 Entering Gaussian System, Link 0=g09
 AtFile(1): H.gbs
            H     0
            S   10   1.00
               1000.000000000000            0.000068713567
                316.227766000000            0.000169141320
                100.000000000000            0.000823394812
                 31.622776600000            0.003425569236
                 10.000000000000            0.013951996000
                  3.162277660000            0.056909313560
                  1.000000000000            0.198286399900
                  0.316227766000            0.496922426700
                  0.100000000000            0.369846276400
                  0.031622776600            0.003752720039
            ****
 Initial command:
 /projects/guscus/apps/gau/g09-e1/g09/l1.exe "/users/lcj1/gaussian/h14_rhf2rows/mix/Gau-26867.inp" -scrdir="/users/lcj1/gaussian/h14_rhf2rows/mix/"
 Entering Link 1 = /projects/guscus/apps/gau/g09-e1/g09/l1.exe PID=     26868.
  
 Copyright (c) 1988,1990,1992,1993,1995,1998,2003,2009,2015,
            Gaussian, Inc.  All Rights Reserved.
  
 This is part of the Gaussian(R) 09 program.  It is based on
 the Gaussian(R) 03 system (copyright 2003, Gaussian, Inc.),
 the Gaussian(R) 98 system (copyright 1998, Gaussian, Inc.),
 the Gaussian(R) 94 system (copyright 1995, Gaussian, Inc.),
 the Gaussian 92(TM) system (copyright 1992, Gaussian, Inc.),
 the Gaussian 90(TM) system (copyright 1990, Gaussian, Inc.),
 the Gaussian 88(TM) system (copyright 1988, Gaussian, Inc.),
 the Gaussian 86(TM) system (copyright 1986, Carnegie Mellon
 University), and the Gaussian 82(TM) system (copyright 1983,
 Carnegie Mellon University). Gaussian is a federally registered
 trademark of Gaussian, Inc.
  
 This software contains proprietary and confidential information,
 including trade secrets, belonging to Gaussian, Inc.
  
 This software is provided under written license and may be
 used, copied, transmitted, or stored only in accord with that
 written license.
  
 The following legend is applicable only to US Government
 contracts under FAR:
  
                    RESTRICTED RIGHTS LEGEND
  
 Use, reproduction and disclosure by the US Government is
 subject to restrictions as set forth in subparagraphs (a)
 and (c) of the Commercial Computer Software - Restricted
 Rights clause in FAR 52.227-19.
  
 Gaussian, Inc.
 340 Quinnipiac St., Bldg. 40, Wallingford CT 06492
  
  
 ---------------------------------------------------------------
 Warning -- This program may not be used in any manner that
 competes with the business of Gaussian, Inc. or will provide
 assistance to any competitor of Gaussian, Inc.  The licensee
 of this program is prohibited from giving any competitor of
 Gaussian, Inc. access to this program.  By using this program,
 the user acknowledges that Gaussian, Inc. is engaged in the
 business of creating and licensing software in the field of
 computational chemistry and represents and warrants to the
 licensee that it is not a competitor of Gaussian, Inc. and that
 it will not use this program in any manner prohibited above.
 ---------------------------------------------------------------
  

 Cite this work as:
 Gaussian 09, Revision E.01,
 M. J. Frisch, G. W. Trucks, H. B. Schlegel, G. E. Scuseria, 
 M. A. Robb, J. R. Cheeseman, G. Scalmani, V. Barone, B. Mennucci, 
 G. A. Petersson, H. Nakatsuji, M. Caricato, X. Li, H. P. Hratchian, 
 A. F. Izmaylov, J. Bloino, G. Zheng, J. L. Sonnenberg, M. Hada, 
 M. Ehara, K. Toyota, R. Fukuda, J. Hasegawa, M. Ishida, T. Nakajima, 
 Y. Honda, O. Kitao, H. Nakai, T. Vreven, J. A. Montgomery, Jr., 
 J. E. Peralta, F. Ogliaro, M. Bearpark, J. J. Heyd, E. Brothers, 
 K. N. Kudin, V. N. Staroverov, T. Keith, R. Kobayashi, J. Normand, 
 K. Raghavachari, A. Rendell, J. C. Burant, S. S. Iyengar, J. Tomasi, 
 M. Cossi, N. Rega, J. M. Millam, M. Klene, J. E. Knox, J. B. Cross, 
 V. Bakken, C. Adamo, J. Jaramillo, R. Gomperts, R. E. Stratmann, 
 O. Yazyev, A. J. Austin, R. Cammi, C. Pomelli, J. W. Ochterski, 
 R. L. Martin, K. Morokuma, V. G. Zakrzewski, G. A. Voth, 
 P. Salvador, J. J. Dannenberg, S. Dapprich, A. D. Daniels, 
 O. Farkas, J. B. Foresman, J. V. Ortiz, J. Cioslowski, 
 and D. J. Fox, Gaussian, Inc., Wallingford CT, 2013.
 
 ******************************************
 Gaussian 09:  ES64L-G09RevE.01 30-Nov-2015
                14-Feb-2017 
 ******************************************
 %chk=h12.chk
 ----------------------------------------------------------------------
 #rhf/gen scf(tight,novaracc,noincfock,fulldiag) stable(crhf) guess=mix
  geom=nocrowd test
 ----------------------------------------------------------------------
 1/38=1/1;
 2/12=1,17=6,18=5,40=1/2;
 3/5=7,16=1,25=1,30=1,116=1/1,2,3;
 4/13=-1/1;
 5/5=100002,16=1,32=2,38=1/2;
 8/6=1,10=90,11=11/1,4;
 9/8=4,13=1/2;
 6/7=2,8=2,9=2,10=2,28=1/1;
 99/5=1,9=1/99;
 ----------------------------------------------------------------------
 hf stability analysis of h12 triangular lattice, y= 0.3794068973118231
 4 alpha= 14.000000000000000
 ----------------------------------------------------------------------
 Symbolic Z-matrix:
 Charge =  0 Multiplicity = 1
 H
 H                    1     1.5683 
 H                    1     1.5683   2     152. 
 H                    2     1.5683   1     28.      3     0.       0
 H                    3     1.5683   1     180.     2     0.       0
 H                    4     1.5683   2     180.     1     0.       0
 H                    5     1.5683   3     180.     2     0.       0
 H                    6     1.5683   4     180.     1     0.       0
 H                    7     1.5683   5     180.     2     0.       0
 H                    8     1.5683   6     180.     1     0.       0
 H                    9     1.5683   7     180.     2     0.       0
 H                    10    1.5683   8     180.     1     0.       0
 H                    11    1.5683   9     180.     2     0.       0
 H                    12    1.5683   10    180.     1     0.       0
 
                          Input orientation:                          
 ---------------------------------------------------------------------
 Center     Atomic      Atomic             Coordinates (Angstroms)
 Number     Number       Type             X           Y           Z
 ---------------------------------------------------------------------
      1          1           0        0.000000    0.000000    0.000000
      2          1           0        0.000000    0.000000    1.568303
      3          1           0        0.736274    0.000000   -1.384730
      4          1           0        0.736274    0.000000    0.183574
      5          1           0        1.472548    0.000000   -2.769459
      6          1           0        1.472548    0.000000   -1.201156
      7          1           0        2.208821    0.000000   -4.154189
      8          1           0        2.208821    0.000000   -2.585885
      9          1           0        2.945095    0.000000   -5.538918
     10          1           0        2.945095    0.000000   -3.970615
     11          1           0        3.681369    0.000000   -6.923648
     12          1           0        3.681369    0.000000   -5.355345
     13          1           0        4.417643    0.000000   -8.308377
     14          1           0        4.417643    0.000000   -6.740074
 ---------------------------------------------------------------------
                    Distance matrix (angstroms):
                    1          2          3          4          5
     1  H    0.000000
     2  H    1.568303   0.000000
     3  H    1.568303   3.043436   0.000000
     4  H    0.758814   1.568303   1.568303   0.000000
     5  H    3.136606   4.580893   1.568303   3.043436   0.000000
     6  H    1.900308   3.136606   0.758814   1.568303   1.568303
     7  H    4.704910   6.133988   3.136606   4.580893   1.568303
     8  H    3.400837   4.704910   1.900308   3.136606   0.758814
     9  H    6.273213   7.693256   4.704910   6.133988   3.136606
    10  H    4.943619   6.273213   3.400837   4.704910   1.900308
    11  H    7.841516   9.255577   6.273213   7.693256   4.704910
    12  H    6.498630   7.841516   4.943619   6.273213   3.400837
    13  H    9.409819  10.819630   7.841516   9.255577   6.273213
    14  H    8.058794   9.409819   6.498630   7.841516   4.943619
                    6          7          8          9         10
     6  H    0.000000
     7  H    3.043436   0.000000
     8  H    1.568303   1.568303   0.000000
     9  H    4.580893   1.568303   3.043436   0.000000
    10  H    3.136606   0.758814   1.568303   1.568303   0.000000
    11  H    6.133988   3.136606   4.580893   1.568303   3.043436
    12  H    4.704910   1.900308   3.136606   0.758814   1.568303
    13  H    7.693256   4.704910   6.133988   3.136606   4.580893
    14  H    6.273213   3.400837   4.704910   1.900308   3.136606
                   11         12         13         14
    11  H    0.000000
    12  H    1.568303   0.000000
    13  H    1.568303   3.043436   0.000000
    14  H    0.758814   1.568303   1.568303   0.000000
 Stoichiometry    H14
 Framework group  C2H[SGH(H14)]
 Deg. of freedom    13
 Full point group                 C2H     NOp   4
 Largest Abelian subgroup         C2H     NOp   4
 Largest concise Abelian subgroup C2      NOp   2
                         Standard orientation:                         
 ---------------------------------------------------------------------
 Center     Atomic      Atomic             Coordinates (Angstroms)
 Number     Number       Type             X           Y           Z
 ---------------------------------------------------------------------
      1          1           0        2.208821   -3.370037    0.000000
      2          1           0        2.208821   -4.938340    0.000000
      3          1           0        1.472548   -1.985307    0.000000
      4          1           0        1.472548   -3.553611    0.000000
      5          1           0        0.736274   -0.600578    0.000000
      6          1           0        0.736274   -2.168881    0.000000
      7          1           0        0.000000    0.784152   -0.000000
      8          1           0       -0.000000   -0.784152    0.000000
      9          1           0       -0.736274    2.168881   -0.000000
     10          1           0       -0.736274    0.600578    0.000000
     11          1           0       -1.472548    3.553611   -0.000000
     12          1           0       -1.472548    1.985307    0.000000
     13          1           0       -2.208821    4.938340   -0.000000
     14          1           0       -2.208821    3.370037    0.000000
 ---------------------------------------------------------------------
 Rotational constants (GHZ):    277.3417204      3.4693979      3.4265338
 General basis read from cards:  (5D, 7F)
 There are     7 symmetry adapted cartesian basis functions of AG  symmetry.
 There are     0 symmetry adapted cartesian basis functions of BG  symmetry.
 There are     0 symmetry adapted cartesian basis functions of AU  symmetry.
 There are     7 symmetry adapted cartesian basis functions of BU  symmetry.
 There are     7 symmetry adapted basis functions of AG  symmetry.
 There are     0 symmetry adapted basis functions of BG  symmetry.
 There are     0 symmetry adapted basis functions of AU  symmetry.
 There are     7 symmetry adapted basis functions of BU  symmetry.
    14 basis functions,   140 primitive gaussians,    14 cartesian basis functions
     7 alpha electrons        7 beta electrons
       nuclear repulsion energy        18.9705924449 Hartrees.
 NAtoms=   14 NActive=   14 NUniq=    7 SFac= 4.00D+00 NAtFMM=   60 NAOKFM=F Big=F
 Integral buffers will be    131072 words long.
 Regular integral format.
 Two-electron integral symmetry is turned on.
 One-electron integrals computed using PRISM.
 NBasis=    14 RedAO= T EigKep=  1.62D-01  NBF=     7     0     0     7
 NBsUse=    14 1.00D-06 EigRej= -1.00D+00 NBFU=     7     0     0     7
 ExpMin= 3.16D-02 ExpMax= 1.00D+03 ExpMxC= 1.00D+01 IAcc=3 IRadAn=         5 AccDes= 0.00D+00
 Harris functional with IExCor=  205 and IRadAn=       5 diagonalized for initial guess.
 HarFok:  IExCor=  205 AccDes= 0.00D+00 IRadAn=         5 IDoV= 1 UseB2=F ITyADJ=14
 ICtDFT=  3500011 ScaDFX=  1.000000  1.000000  1.000000  1.000000
 FoFCou: FMM=F IPFlag=           0 FMFlag=      100000 FMFlg1=           0
         NFxFlg=           0 DoJE=T BraDBF=F KetDBF=T FulRan=T
         wScrn=  0.000000 ICntrl=     500 IOpCl=  0 I1Cent=   200000004 NGrid=           0
         NMat0=    1 NMatS0=      1 NMatT0=    0 NMatD0=    1 NMtDS0=    0 NMtDT0=    0
 Petite list used in FoFCou.
 Mixing orbitals, IMix= 1 IMixAn=  0 NRI=1 NE=    7 Coef=  7.07106781D-01  7.07106781D-01
 Initial guess orbital symmetries:
       Occupied  (AG) (BU) (AG) (BU) (AG) (BU) (?A)
       Virtual   (?A) (BU) (AG) (BU) (AG) (BU) (AG)
 Keep R1 ints in memory in symmetry-blocked form, NReq=914392.
 Requested convergence on RMS density matrix=1.00D-08 within 128 cycles.
 Requested convergence on MAX density matrix=1.00D-06.
 Requested convergence on             energy=1.00D-06.
 No special actions if energy rises.
 An orbital has undefined symmetry, so N**3 symmetry is turned off.
 Density matrix breaks symmetry, PCut= 1.00D-04
 Density matrix has no symmetry -- integrals replicated.
 Density matrix breaks symmetry, PCut= 1.00D-07
 Density matrix has no symmetry -- integrals replicated.
 Density matrix breaks symmetry, PCut= 1.00D-07
 Density matrix has no symmetry -- integrals replicated.
 EnCoef did   100 forward-backward iterations
 Density matrix breaks symmetry, PCut= 1.00D-07
 Density matrix has no symmetry -- integrals replicated.
 Density matrix breaks symmetry, PCut= 1.00D-07
 Density matrix has no symmetry -- integrals replicated.
 Density matrix breaks symmetry, PCut= 1.00D-07
 Density matrix has no symmetry -- integrals replicated.
 Density matrix breaks symmetry, PCut= 1.00D-07
 Density matrix has no symmetry -- integrals replicated.
 Density matrix breaks symmetry, PCut= 1.00D-07
 Density matrix has no symmetry -- integrals replicated.
 Density matrix breaks symmetry, PCut= 1.00D-07
 Density matrix has no symmetry -- integrals replicated.
 Density matrix breaks symmetry, PCut= 1.00D-07
 Density matrix has no symmetry -- integrals replicated.
 Rare condition: small coef for last iteration:  0.000D+00
 Density matrix breaks symmetry, PCut= 1.00D-07
 Density matrix has no symmetry -- integrals replicated.
 EnCoef did   100 forward-backward iterations
 Density matrix breaks symmetry, PCut= 1.00D-07
 Density matrix has no symmetry -- integrals replicated.
 Density matrix breaks symmetry, PCut= 1.00D-07
 Density matrix has no symmetry -- integrals replicated.
 Density matrix breaks symmetry, PCut= 1.00D-07
 Density matrix has no symmetry -- integrals replicated.
 Density matrix breaks symmetry, PCut= 1.00D-07
 Density matrix has no symmetry -- integrals replicated.
 SCF Done:  E(RHF) =  -6.94969367376     A.U. after   14 cycles
            NFock= 14  Conv=0.57D-08     -V/T= 1.9488
 Range of M.O.s used for correlation:     1    14
 NBasis=    14 NAE=     7 NBE=     7 NFC=     0 NFV=     0
 NROrb=     14 NOA=     7 NOB=     7 NVA=     7 NVB=     7

 **** Warning!!: The smallest alpha delta epsilon is  0.53487682D-01

 Semi-Direct transformation.
 ModeAB=           2 MOrb=             7 LenV=     134076295
 LASXX=         4102 LTotXX=        4102 LenRXX=        4102
 LTotAB=        5341 MaxLAS=       10290 LenRXY=       10290
 NonZer=       10290 LenScr=      655360 LnRSAI=           0
 LnScr1=           0 LExtra=           0 Total=       669752
 MaxDsk=          -1 SrtSym=           F ITran=            3
 JobTyp=0 Pass  1:  I=   1 to   7.
 (rs|ai) integrals will be sorted in core.
 SymMOI:  orbitals are not symmetric.
 Spin components of T(2) and E(2):
     alpha-alpha T2 =       0.8069582830D-03 E2=     -0.1522809569D-02
     alpha-beta  T2 =       0.6299683164D+01 E2=     -0.7489876340D+00
     beta-beta   T2 =       0.8069582830D-03 E2=     -0.1522809569D-02
 ANorm=    0.2702091242D+01
 E2 =    -0.7520332531D+00 EUMP2 =    -0.77017269268486D+01
 Second order stability test of a single determinant RHF wave function:
 Stabil:  MDV=134217728
 ***********************************************************************
 Matrix         Lowest Root    Major Pairs
 ***********************************************************************
 Internal RHF     0.2142767    Stable
 RRHF --> CRHF    0.0021198    Stable
 RRHF --> RUHF   -0.5416366    7A=8B
 Not stable.
 ***********************************************************************

 **********************************************************************

            Population analysis using the SCF density.

 **********************************************************************

 Orbital symmetries:
       Occupied  (AG) (BU) (AG) (BU) (AG) (BU) (AG)
       Virtual   (BU) (BU) (AG) (BU) (AG) (BU) (AG)
 The electronic state is 1-AG.
 Alpha  occ. eigenvalues --   -0.76479  -0.73937  -0.68648  -0.61574  -0.53067
 Alpha  occ. eigenvalues --   -0.43638  -0.13494
 Alpha virt. eigenvalues --   -0.08145   0.20343   0.25412   0.34586   0.46157
 Alpha virt. eigenvalues --    0.58128   0.67849
          Condensed to atoms (all electrons):
               1          2          3          4          5          6
     1  H    0.708402  -0.071271  -0.093173   0.508133   0.002859  -0.078845
     2  H   -0.071271   1.219968  -0.004771  -0.055883   0.000383   0.001293
     3  H   -0.093173  -0.004771   0.779814  -0.072296  -0.109603   0.572308
     4  H    0.508133  -0.055883  -0.072296   0.665137   0.001148  -0.092459
     5  H    0.002859   0.000383  -0.109603   0.001148   0.795537  -0.090500
     6  H   -0.078845   0.001293   0.572308  -0.092459  -0.090500   0.775561
     7  H    0.000054  -0.000032   0.003676   0.000129  -0.109433   0.001836
     8  H    0.003020   0.000203  -0.084675   0.002451   0.586853  -0.105429
     9  H   -0.000016   0.000005   0.000007  -0.000019   0.003320   0.000174
    10  H   -0.000022  -0.000019   0.003612   0.000033  -0.086354   0.003320
    11  H    0.000002  -0.000001  -0.000007   0.000002   0.000033  -0.000019
    12  H   -0.000004   0.000002  -0.000065  -0.000007   0.003612   0.000007
    13  H   -0.000001   0.000000   0.000002  -0.000001  -0.000019   0.000005
    14  H    0.000002  -0.000001  -0.000004   0.000002  -0.000022  -0.000016
               7          8          9         10         11         12
     1  H    0.000054   0.003020  -0.000016  -0.000022   0.000002  -0.000004
     2  H   -0.000032   0.000203   0.000005  -0.000019  -0.000001   0.000002
     3  H    0.003676  -0.084675   0.000007   0.003612  -0.000007  -0.000065
     4  H    0.000129   0.002451  -0.000019   0.000033   0.000002  -0.000007
     5  H   -0.109433   0.586853   0.003320  -0.086354   0.000033   0.003612
     6  H    0.001836  -0.105429   0.000174   0.003320  -0.000019   0.000007
     7  H    0.788832  -0.092748  -0.105429   0.586853   0.002451  -0.084675
     8  H   -0.092748   0.788832   0.001836  -0.109433   0.000129   0.003676
     9  H   -0.105429   0.001836   0.775561  -0.090500  -0.092459   0.572308
    10  H    0.586853  -0.109433  -0.090500   0.795537   0.001148  -0.109603
    11  H    0.002451   0.000129  -0.092459   0.001148   0.665137  -0.072296
    12  H   -0.084675   0.003676   0.572308  -0.109603  -0.072296   0.779814
    13  H    0.000203  -0.000032   0.001293   0.000383  -0.055883  -0.004771
    14  H    0.003020   0.000054  -0.078845   0.002859   0.508133  -0.093173
              13         14
     1  H   -0.000001   0.000002
     2  H    0.000000  -0.000001
     3  H    0.000002  -0.000004
     4  H   -0.000001   0.000002
     5  H   -0.000019  -0.000022
     6  H    0.000005  -0.000016
     7  H    0.000203   0.003020
     8  H   -0.000032   0.000054
     9  H    0.001293  -0.078845
    10  H    0.000383   0.002859
    11  H   -0.055883   0.508133
    12  H   -0.004771  -0.093173
    13  H    1.219968  -0.071271
    14  H   -0.071271   0.708402
 Mulliken charges:
               1
     1  H    0.020860
     2  H   -0.089876
     3  H    0.005175
     4  H    0.043629
     5  H    0.002187
     6  H    0.012764
     7  H    0.005262
     8  H    0.005262
     9  H    0.012764
    10  H    0.002187
    11  H    0.043629
    12  H    0.005175
    13  H   -0.089876
    14  H    0.020860
 Sum of Mulliken charges =   0.00000
 Mulliken charges with hydrogens summed into heavy atoms:
               1
 Electronic spatial extent (au):  <R**2>=            578.2580
 Charge=              0.0000 electrons
 Dipole moment (field-independent basis, Debye):
    X=              0.0000    Y=             -0.0000    Z=             -0.0000  Tot=              0.0000
 Quadrupole moment (field-independent basis, Debye-Ang):
   XX=            -19.2182   YY=            -37.7371   ZZ=            -17.8979
   XY=              9.4930   XZ=             -0.0000   YZ=              0.0000
 Traceless Quadrupole moment (field-independent basis, Debye-Ang):
   XX=              5.7328   YY=            -12.7860   ZZ=              7.0531
   XY=              9.4930   XZ=             -0.0000   YZ=              0.0000
 Octapole moment (field-independent basis, Debye-Ang**2):
  XXX=              0.0000  YYY=             -0.0002  ZZZ=             -0.0000  XYY=              0.0001
  XXY=             -0.0000  XXZ=             -0.0000  XZZ=              0.0000  YZZ=             -0.0000
  YYZ=             -0.0000  XYZ=              0.0000
 Hexadecapole moment (field-independent basis, Debye-Ang**3):
 XXXX=           -262.5661 YYYY=          -1635.8711 ZZZZ=            -21.4843 XXXY=            271.1414
 XXXZ=             -0.0000 YYYX=            541.5092 YYYZ=              0.0000 ZZZX=             -0.0000
 ZZZY=              0.0000 XXYY=           -330.2967 XXZZ=            -46.9474 YYZZ=           -163.8031
 XXYZ=              0.0000 YYXZ=             -0.0000 ZZXY=             77.0291
 N-N= 1.897059244488D+01 E-N=-5.134853638028D+01  KE= 7.324685971066D+00
 Symmetry AG   KE= 3.994757695828D+00
 Symmetry BG   KE= 0.000000000000D+00
 Symmetry AU   KE= 0.000000000000D+00
 Symmetry BU   KE= 3.329928275238D+00

 Test job not archived.
 1\1\GINC-SULU\Stability\RHF\Gen\H14\LCJ1\14-Feb-2017\0\\#rhf/gen scf(t
 ight,novaracc,noincfock,fulldiag) stable(crhf) guess=mix geom=nocrowd 
 test\\hf stability analysis of h12 triangular lattice, y= 0.3794068973
 1182314 alpha= 14.000000000000000\\0,1\H\H,1,1.5683032163\H,1,1.568303
 2163,2,152.\H,2,1.5683032163,1,28.,3,0.,0\H,3,1.5683032163,1,180.,2,0.
 ,0\H,4,1.5683032163,2,180.,1,0.,0\H,5,1.5683032163,3,180.,2,0.,0\H,6,1
 .5683032163,4,180.,1,0.,0\H,7,1.5683032163,5,180.,2,0.,0\H,8,1.5683032
 163,6,180.,1,0.,0\H,9,1.5683032163,7,180.,2,0.,0\H,10,1.5683032163,8,1
 80.,1,0.,0\H,11,1.5683032163,9,180.,2,0.,0\H,12,1.5683032163,10,180.,1
 ,0.,0\\Version=ES64L-G09RevE.01\State=1-AG\HF=-6.9496937\MP2=-7.701726
 9\RMSD=5.662e-09\Dipole=-0.0000014,0.,0.0000031\Quadrupole=4.2622237,5
 .2438417,-9.5060654,0.,7.0578404,0.\PG=C02H [SGH(H14)]\\@


 I DON'T PRETEND TO UNDERSTAND THE UNIVERSE --
 IT'S A GREAT DEAL BIGGER THAN I AM.
       -- ATTR. TO WILLIAM ALLINGHAM (1828-89)
 Job cpu time:       0 days  0 hours  0 minutes  1.8 seconds.
 File lengths (MBytes):  RWF=     84 Int=      0 D2E=      0 Chk=      2 Scr=      2
 Normal termination of Gaussian 09 at Tue Feb 14 14:25:25 2017.
