 Entering Gaussian System, Link 0=g09
 AtFile(1): H.gbs
            H     0
            S   10   1.00
               1000.000000000000            0.000068713567
                316.227766000000            0.000169141320
                100.000000000000            0.000823394812
                 31.622776600000            0.003425569236
                 10.000000000000            0.013951996000
                  3.162277660000            0.056909313560
                  1.000000000000            0.198286399900
                  0.316227766000            0.496922426700
                  0.100000000000            0.369846276400
                  0.031622776600            0.003752720039
            ****
 Initial command:
 /projects/guscus/apps/gau/g09-e1/g09/l1.exe "/users/lcj1/gaussian/h14_rhf2rows/mix/Gau-26827.inp" -scrdir="/users/lcj1/gaussian/h14_rhf2rows/mix/"
 Entering Link 1 = /projects/guscus/apps/gau/g09-e1/g09/l1.exe PID=     26828.
  
 Copyright (c) 1988,1990,1992,1993,1995,1998,2003,2009,2015,
            Gaussian, Inc.  All Rights Reserved.
  
 This is part of the Gaussian(R) 09 program.  It is based on
 the Gaussian(R) 03 system (copyright 2003, Gaussian, Inc.),
 the Gaussian(R) 98 system (copyright 1998, Gaussian, Inc.),
 the Gaussian(R) 94 system (copyright 1995, Gaussian, Inc.),
 the Gaussian 92(TM) system (copyright 1992, Gaussian, Inc.),
 the Gaussian 90(TM) system (copyright 1990, Gaussian, Inc.),
 the Gaussian 88(TM) system (copyright 1988, Gaussian, Inc.),
 the Gaussian 86(TM) system (copyright 1986, Carnegie Mellon
 University), and the Gaussian 82(TM) system (copyright 1983,
 Carnegie Mellon University). Gaussian is a federally registered
 trademark of Gaussian, Inc.
  
 This software contains proprietary and confidential information,
 including trade secrets, belonging to Gaussian, Inc.
  
 This software is provided under written license and may be
 used, copied, transmitted, or stored only in accord with that
 written license.
  
 The following legend is applicable only to US Government
 contracts under FAR:
  
                    RESTRICTED RIGHTS LEGEND
  
 Use, reproduction and disclosure by the US Government is
 subject to restrictions as set forth in subparagraphs (a)
 and (c) of the Commercial Computer Software - Restricted
 Rights clause in FAR 52.227-19.
  
 Gaussian, Inc.
 340 Quinnipiac St., Bldg. 40, Wallingford CT 06492
  
  
 ---------------------------------------------------------------
 Warning -- This program may not be used in any manner that
 competes with the business of Gaussian, Inc. or will provide
 assistance to any competitor of Gaussian, Inc.  The licensee
 of this program is prohibited from giving any competitor of
 Gaussian, Inc. access to this program.  By using this program,
 the user acknowledges that Gaussian, Inc. is engaged in the
 business of creating and licensing software in the field of
 computational chemistry and represents and warrants to the
 licensee that it is not a competitor of Gaussian, Inc. and that
 it will not use this program in any manner prohibited above.
 ---------------------------------------------------------------
  

 Cite this work as:
 Gaussian 09, Revision E.01,
 M. J. Frisch, G. W. Trucks, H. B. Schlegel, G. E. Scuseria, 
 M. A. Robb, J. R. Cheeseman, G. Scalmani, V. Barone, B. Mennucci, 
 G. A. Petersson, H. Nakatsuji, M. Caricato, X. Li, H. P. Hratchian, 
 A. F. Izmaylov, J. Bloino, G. Zheng, J. L. Sonnenberg, M. Hada, 
 M. Ehara, K. Toyota, R. Fukuda, J. Hasegawa, M. Ishida, T. Nakajima, 
 Y. Honda, O. Kitao, H. Nakai, T. Vreven, J. A. Montgomery, Jr., 
 J. E. Peralta, F. Ogliaro, M. Bearpark, J. J. Heyd, E. Brothers, 
 K. N. Kudin, V. N. Staroverov, T. Keith, R. Kobayashi, J. Normand, 
 K. Raghavachari, A. Rendell, J. C. Burant, S. S. Iyengar, J. Tomasi, 
 M. Cossi, N. Rega, J. M. Millam, M. Klene, J. E. Knox, J. B. Cross, 
 V. Bakken, C. Adamo, J. Jaramillo, R. Gomperts, R. E. Stratmann, 
 O. Yazyev, A. J. Austin, R. Cammi, C. Pomelli, J. W. Ochterski, 
 R. L. Martin, K. Morokuma, V. G. Zakrzewski, G. A. Voth, 
 P. Salvador, J. J. Dannenberg, S. Dapprich, A. D. Daniels, 
 O. Farkas, J. B. Foresman, J. V. Ortiz, J. Cioslowski, 
 and D. J. Fox, Gaussian, Inc., Wallingford CT, 2013.
 
 ******************************************
 Gaussian 09:  ES64L-G09RevE.01 30-Nov-2015
                14-Feb-2017 
 ******************************************
 %chk=h12.chk
 ----------------------------------------------------------------------
 #rhf/gen scf(tight,novaracc,noincfock,fulldiag) stable(crhf) guess=mix
  geom=nocrowd test
 ----------------------------------------------------------------------
 1/38=1/1;
 2/12=1,17=6,18=5,40=1/2;
 3/5=7,16=1,25=1,30=1,116=1/1,2,3;
 4/13=-1/1;
 5/5=100002,16=1,32=2,38=1/2;
 8/6=1,10=90,11=11/1,4;
 9/8=4,13=1/2;
 6/7=2,8=2,9=2,10=2,28=1/1;
 99/5=1,9=1/99;
 ----------------------------------------------------------------------
 hf stability analysis of h12 triangular lattice, y= 0.3650915174764740
 0 alpha= 13.000000000000000
 ----------------------------------------------------------------------
 Symbolic Z-matrix:
 Charge =  0 Multiplicity = 1
 H
 H                    1     1.62298 
 H                    1     1.62298  2     154. 
 H                    2     1.62298  1     26.      3     0.       0
 H                    3     1.62298  1     180.     2     0.       0
 H                    4     1.62298  2     180.     1     0.       0
 H                    5     1.62298  3     180.     2     0.       0
 H                    6     1.62298  4     180.     1     0.       0
 H                    7     1.62298  5     180.     2     0.       0
 H                    8     1.62298  6     180.     1     0.       0
 H                    9     1.62298  7     180.     2     0.       0
 H                    10    1.62298  8     180.     1     0.       0
 H                    11    1.62298  9     180.     2     0.       0
 H                    12    1.62298  10    180.     1     0.       0
 
                          Input orientation:                          
 ---------------------------------------------------------------------
 Center     Atomic      Atomic             Coordinates (Angstroms)
 Number     Number       Type             X           Y           Z
 ---------------------------------------------------------------------
      1          1           0        0.000000    0.000000    0.000000
      2          1           0        0.000000    0.000000    1.622982
      3          1           0        0.711468    0.000000   -1.458727
      4          1           0        0.711468    0.000000    0.164255
      5          1           0        1.422937    0.000000   -2.917453
      6          1           0        1.422937    0.000000   -1.294471
      7          1           0        2.134405    0.000000   -4.376180
      8          1           0        2.134405    0.000000   -2.753198
      9          1           0        2.845874    0.000000   -5.834906
     10          1           0        2.845874    0.000000   -4.211924
     11          1           0        3.557342    0.000000   -7.293633
     12          1           0        3.557342    0.000000   -5.670651
     13          1           0        4.268811    0.000000   -8.752359
     14          1           0        4.268811    0.000000   -7.129377
 ---------------------------------------------------------------------
                    Distance matrix (angstroms):
                    1          2          3          4          5
     1  H    0.000000
     2  H    1.622982   0.000000
     3  H    1.622982   3.162770   0.000000
     4  H    0.730183   1.622982   1.622982   0.000000
     5  H    3.245964   4.758182   1.622982   3.162770   0.000000
     6  H    1.923644   3.245964   0.730183   1.622982   1.622982
     7  H    4.868946   6.367545   3.245964   4.758182   1.622982
     8  H    3.483645   4.868946   1.923644   3.245964   0.730183
     9  H    6.491928   7.982424   4.868946   6.367545   3.245964
    10  H    5.083238   6.491928   3.483645   4.868946   1.923644
    11  H    8.114910   9.600037   6.491928   7.982424   4.868946
    12  H    6.694099   8.114910   5.083238   6.491928   3.483645
    13  H    9.737892  11.219200   8.114910   9.600037   6.491928
    14  H    8.309679   9.737892   6.694099   8.114910   5.083238
                    6          7          8          9         10
     6  H    0.000000
     7  H    3.162770   0.000000
     8  H    1.622982   1.622982   0.000000
     9  H    4.758182   1.622982   3.162770   0.000000
    10  H    3.245964   0.730183   1.622982   1.622982   0.000000
    11  H    6.367545   3.245964   4.758182   1.622982   3.162770
    12  H    4.868946   1.923644   3.245964   0.730183   1.622982
    13  H    7.982424   4.868946   6.367545   3.245964   4.758182
    14  H    6.491928   3.483645   4.868946   1.923644   3.245964
                   11         12         13         14
    11  H    0.000000
    12  H    1.622982   0.000000
    13  H    1.622982   3.162770   0.000000
    14  H    0.730183   1.622982   1.622982   0.000000
 Stoichiometry    H14
 Framework group  C2H[SGH(H14)]
 Deg. of freedom    13
 Full point group                 C2H     NOp   4
 Largest Abelian subgroup         C2H     NOp   4
 Largest concise Abelian subgroup C2      NOp   2
                         Standard orientation:                         
 ---------------------------------------------------------------------
 Center     Atomic      Atomic             Coordinates (Angstroms)
 Number     Number       Type             X           Y           Z
 ---------------------------------------------------------------------
      1          1           0        2.134405   -3.564689    0.000000
      2          1           0        2.134405   -5.187671    0.000000
      3          1           0        1.422937   -2.105962    0.000000
      4          1           0        1.422937   -3.728944    0.000000
      5          1           0        0.711468   -0.647236    0.000000
      6          1           0        0.711468   -2.270218    0.000000
      7          1           0        0.000000    0.811491   -0.000000
      8          1           0       -0.000000   -0.811491   -0.000000
      9          1           0       -0.711468    2.270218    0.000000
     10          1           0       -0.711468    0.647236    0.000000
     11          1           0       -1.422937    3.728944    0.000000
     12          1           0       -1.422937    2.105962    0.000000
     13          1           0       -2.134405    5.187671    0.000000
     14          1           0       -2.134405    3.564689    0.000000
 ---------------------------------------------------------------------
 Rotational constants (GHZ):    297.4990497      3.2343256      3.1995411
 General basis read from cards:  (5D, 7F)
 There are     7 symmetry adapted cartesian basis functions of AG  symmetry.
 There are     0 symmetry adapted cartesian basis functions of BG  symmetry.
 There are     0 symmetry adapted cartesian basis functions of AU  symmetry.
 There are     7 symmetry adapted cartesian basis functions of BU  symmetry.
 There are     7 symmetry adapted basis functions of AG  symmetry.
 There are     0 symmetry adapted basis functions of BG  symmetry.
 There are     0 symmetry adapted basis functions of AU  symmetry.
 There are     7 symmetry adapted basis functions of BU  symmetry.
    14 basis functions,   140 primitive gaussians,    14 cartesian basis functions
     7 alpha electrons        7 beta electrons
       nuclear repulsion energy        18.6674773982 Hartrees.
 NAtoms=   14 NActive=   14 NUniq=    7 SFac= 4.00D+00 NAtFMM=   60 NAOKFM=F Big=F
 Integral buffers will be    131072 words long.
 Regular integral format.
 Two-electron integral symmetry is turned on.
 One-electron integrals computed using PRISM.
 NBasis=    14 RedAO= T EigKep=  1.58D-01  NBF=     7     0     0     7
 NBsUse=    14 1.00D-06 EigRej= -1.00D+00 NBFU=     7     0     0     7
 ExpMin= 3.16D-02 ExpMax= 1.00D+03 ExpMxC= 1.00D+01 IAcc=3 IRadAn=         5 AccDes= 0.00D+00
 Harris functional with IExCor=  205 and IRadAn=       5 diagonalized for initial guess.
 HarFok:  IExCor=  205 AccDes= 0.00D+00 IRadAn=         5 IDoV= 1 UseB2=F ITyADJ=14
 ICtDFT=  3500011 ScaDFX=  1.000000  1.000000  1.000000  1.000000
 FoFCou: FMM=F IPFlag=           0 FMFlag=      100000 FMFlg1=           0
         NFxFlg=           0 DoJE=T BraDBF=F KetDBF=T FulRan=T
         wScrn=  0.000000 ICntrl=     500 IOpCl=  0 I1Cent=   200000004 NGrid=           0
         NMat0=    1 NMatS0=      1 NMatT0=    0 NMatD0=    1 NMtDS0=    0 NMtDT0=    0
 Petite list used in FoFCou.
 Mixing orbitals, IMix= 1 IMixAn=  0 NRI=1 NE=    7 Coef=  7.07106781D-01  7.07106781D-01
 Initial guess orbital symmetries:
       Occupied  (AG) (BU) (AG) (BU) (AG) (BU) (?A)
       Virtual   (?A) (BU) (AG) (BU) (AG) (BU) (AG)
 Keep R1 ints in memory in symmetry-blocked form, NReq=913776.
 Requested convergence on RMS density matrix=1.00D-08 within 128 cycles.
 Requested convergence on MAX density matrix=1.00D-06.
 Requested convergence on             energy=1.00D-06.
 No special actions if energy rises.
 An orbital has undefined symmetry, so N**3 symmetry is turned off.
 Density matrix breaks symmetry, PCut= 1.00D-04
 Density matrix has no symmetry -- integrals replicated.
 Density matrix breaks symmetry, PCut= 1.00D-07
 Density matrix has no symmetry -- integrals replicated.
 Density matrix breaks symmetry, PCut= 1.00D-07
 Density matrix has no symmetry -- integrals replicated.
 EnCoef did   100 forward-backward iterations
 Density matrix breaks symmetry, PCut= 1.00D-07
 Density matrix has no symmetry -- integrals replicated.
 Density matrix breaks symmetry, PCut= 1.00D-07
 Density matrix has no symmetry -- integrals replicated.
 Density matrix breaks symmetry, PCut= 1.00D-07
 Density matrix has no symmetry -- integrals replicated.
 Density matrix breaks symmetry, PCut= 1.00D-07
 Density matrix has no symmetry -- integrals replicated.
 Density matrix breaks symmetry, PCut= 1.00D-07
 Density matrix has no symmetry -- integrals replicated.
 Density matrix breaks symmetry, PCut= 1.00D-07
 Density matrix has no symmetry -- integrals replicated.
 Density matrix breaks symmetry, PCut= 1.00D-07
 Density matrix has no symmetry -- integrals replicated.
 Density matrix breaks symmetry, PCut= 1.00D-07
 Density matrix has no symmetry -- integrals replicated.
 Density matrix breaks symmetry, PCut= 1.00D-07
 Density matrix has no symmetry -- integrals replicated.
 Density matrix breaks symmetry, PCut= 1.00D-07
 Density matrix has no symmetry -- integrals replicated.
 Density matrix breaks symmetry, PCut= 1.00D-07
 Density matrix has no symmetry -- integrals replicated.
 SCF Done:  E(RHF) =  -6.98844198091     A.U. after   15 cycles
            NFock= 15  Conv=0.25D-08     -V/T= 1.9684
 Range of M.O.s used for correlation:     1    14
 NBasis=    14 NAE=     7 NBE=     7 NFC=     0 NFV=     0
 NROrb=     14 NOA=     7 NOB=     7 NVA=     7 NVB=     7

 **** Warning!!: The smallest alpha delta epsilon is  0.49919444D-01

 Semi-Direct transformation.
 ModeAB=           2 MOrb=             7 LenV=     134077527
 LASXX=         4102 LTotXX=        4102 LenRXX=        4102
 LTotAB=        5341 MaxLAS=       10290 LenRXY=       10290
 NonZer=       10290 LenScr=      655360 LnRSAI=           0
 LnScr1=           0 LExtra=           0 Total=       669752
 MaxDsk=          -1 SrtSym=           F ITran=            3
 JobTyp=0 Pass  1:  I=   1 to   7.
 (rs|ai) integrals will be sorted in core.
 SymMOI:  orbitals are not symmetric.
 Spin components of T(2) and E(2):
     alpha-alpha T2 =       0.6318458408D-03 E2=     -0.1250819761D-02
     alpha-beta  T2 =       0.7637958023D+01 E2=     -0.8331069755D+00
     beta-beta   T2 =       0.6318458408D-03 E2=     -0.1250819761D-02
 ANorm=    0.2939255299D+01
 E2 =    -0.8356086150D+00 EUMP2 =    -0.78240505958867D+01
 Second order stability test of a single determinant RHF wave function:
 Stabil:  MDV=134217728
 ***********************************************************************
 Matrix         Lowest Root    Major Pairs
 ***********************************************************************
 Internal RHF     0.2631802    Stable
 RRHF --> CRHF    0.0011368    Stable
 RRHF --> RUHF   -0.5567236    7A=8B
 Not stable.
 ***********************************************************************

 **********************************************************************

            Population analysis using the SCF density.

 **********************************************************************

 Orbital symmetries:
       Occupied  (AG) (BU) (AG) (BU) (AG) (BU) (AG)
       Virtual   (BU) (BU) (AG) (BU) (AG) (BU) (AG)
 The electronic state is 1-AG.
 Alpha  occ. eigenvalues --   -0.75654  -0.73363  -0.68588  -0.62211  -0.54626
 Alpha  occ. eigenvalues --   -0.46467  -0.14849
 Alpha virt. eigenvalues --   -0.09857   0.23429   0.28241   0.36936   0.47927
 Alpha virt. eigenvalues --    0.59302   0.68575
          Condensed to atoms (all electrons):
               1          2          3          4          5          6
     1  H    0.682625  -0.061823  -0.081999   0.507590   0.002300  -0.067992
     2  H   -0.061823   1.179993  -0.002462  -0.052569   0.000189   0.001072
     3  H   -0.081999  -0.002462   0.748342  -0.068094  -0.093170   0.562520
     4  H    0.507590  -0.052569  -0.068094   0.659027   0.001338  -0.081219
     5  H    0.002300   0.000189  -0.093170   0.001338   0.758430  -0.080567
     6  H   -0.067992   0.001072   0.562520  -0.081219  -0.080567   0.743007
     7  H    0.000015  -0.000015   0.002765   0.000053  -0.093128   0.001791
     8  H    0.002282   0.000098  -0.072917   0.002077   0.572450  -0.090610
     9  H   -0.000007   0.000002  -0.000006  -0.000009   0.002602   0.000068
    10  H   -0.000020  -0.000009   0.002633   0.000006  -0.073956   0.002602
    11  H    0.000001  -0.000000  -0.000004   0.000001   0.000006  -0.000009
    12  H   -0.000002   0.000001  -0.000039  -0.000004   0.002633  -0.000006
    13  H   -0.000000   0.000000   0.000001  -0.000000  -0.000009   0.000002
    14  H    0.000001  -0.000000  -0.000002   0.000001  -0.000020  -0.000007
               7          8          9         10         11         12
     1  H    0.000015   0.002282  -0.000007  -0.000020   0.000001  -0.000002
     2  H   -0.000015   0.000098   0.000002  -0.000009  -0.000000   0.000001
     3  H    0.002765  -0.072917  -0.000006   0.002633  -0.000004  -0.000039
     4  H    0.000053   0.002077  -0.000009   0.000006   0.000001  -0.000004
     5  H   -0.093128   0.572450   0.002602  -0.073956   0.000006   0.002633
     6  H    0.001791  -0.090610   0.000068   0.002602  -0.000009  -0.000006
     7  H    0.754139  -0.081962  -0.090610   0.572450   0.002077  -0.072917
     8  H   -0.081962   0.754139   0.001791  -0.093128   0.000053   0.002765
     9  H   -0.090610   0.001791   0.743007  -0.080567  -0.081219   0.562520
    10  H    0.572450  -0.093128  -0.080567   0.758430   0.001338  -0.093170
    11  H    0.002077   0.000053  -0.081219   0.001338   0.659027  -0.068094
    12  H   -0.072917   0.002765   0.562520  -0.093170  -0.068094   0.748342
    13  H    0.000098  -0.000015   0.001072   0.000189  -0.052569  -0.002462
    14  H    0.002282   0.000015  -0.067992   0.002300   0.507590  -0.081999
              13         14
     1  H   -0.000000   0.000001
     2  H    0.000000  -0.000000
     3  H    0.000001  -0.000002
     4  H   -0.000000   0.000001
     5  H   -0.000009  -0.000020
     6  H    0.000002  -0.000007
     7  H    0.000098   0.002282
     8  H   -0.000015   0.000015
     9  H    0.001072  -0.067992
    10  H    0.000189   0.002300
    11  H   -0.052569   0.507590
    12  H   -0.002462  -0.081999
    13  H    1.179993  -0.061823
    14  H   -0.061823   0.682625
 Mulliken charges:
               1
     1  H    0.017029
     2  H   -0.064477
     3  H    0.002432
     4  H    0.031803
     5  H    0.000902
     6  H    0.009348
     7  H    0.002963
     8  H    0.002963
     9  H    0.009348
    10  H    0.000902
    11  H    0.031803
    12  H    0.002432
    13  H   -0.064477
    14  H    0.017029
 Sum of Mulliken charges =  -0.00000
 Mulliken charges with hydrogens summed into heavy atoms:
               1
 Electronic spatial extent (au):  <R**2>=            612.5009
 Charge=             -0.0000 electrons
 Dipole moment (field-independent basis, Debye):
    X=             -0.0000    Y=              0.0000    Z=             -0.0000  Tot=              0.0000
 Quadrupole moment (field-independent basis, Debye-Ang):
   XX=            -18.3223   YY=            -34.7269   ZZ=            -17.9927
   XY=              7.4262   XZ=             -0.0000   YZ=              0.0000
 Traceless Quadrupole moment (field-independent basis, Debye-Ang):
   XX=              5.3583   YY=            -11.0463   ZZ=              5.6880
   XY=              7.4262   XZ=             -0.0000   YZ=              0.0000
 Octapole moment (field-independent basis, Debye-Ang**2):
  XXX=              0.0000  YYY=              0.0000  ZZZ=             -0.0000  XYY=             -0.0000
  XXY=              0.0000  XXZ=             -0.0000  XZZ=             -0.0000  YZZ=              0.0000
  YYZ=             -0.0000  XYZ=              0.0000
 Hexadecapole moment (field-independent basis, Debye-Ang**3):
 XXXX=           -240.1531 YYYY=          -1692.8601 ZZZZ=            -21.6755 XXXY=            258.3868
 XXXZ=             -0.0000 YYYX=            504.6815 YYYZ=              0.0000 ZZZX=             -0.0000
 ZZZY=              0.0000 XXYY=           -314.8598 XXZZ=            -44.2486 YYZZ=           -179.6306
 XXYZ=              0.0000 YYXZ=             -0.0000 ZZXY=             78.0186
 N-N= 1.866747739822D+01 E-N=-5.061322945129D+01  KE= 7.216540874045D+00
 Symmetry AG   KE= 3.930857975279D+00
 Symmetry BG   KE= 0.000000000000D+00
 Symmetry AU   KE= 0.000000000000D+00
 Symmetry BU   KE= 3.285682898766D+00

 Test job not archived.
 1\1\GINC-SULU\Stability\RHF\Gen\H14\LCJ1\14-Feb-2017\0\\#rhf/gen scf(t
 ight,novaracc,noincfock,fulldiag) stable(crhf) guess=mix geom=nocrowd 
 test\\hf stability analysis of h12 triangular lattice, y= 0.3650915174
 7647400 alpha= 13.000000000000000\\0,1\H\H,1,1.6229819796\H,1,1.622981
 9796,2,154.\H,2,1.6229819796,1,26.,3,0.,0\H,3,1.6229819796,1,180.,2,0.
 ,0\H,4,1.6229819796,2,180.,1,0.,0\H,5,1.6229819796,3,180.,2,0.,0\H,6,1
 .6229819796,4,180.,1,0.,0\H,7,1.6229819796,5,180.,2,0.,0\H,8,1.6229819
 796,6,180.,1,0.,0\H,9,1.6229819796,7,180.,2,0.,0\H,10,1.6229819796,8,1
 80.,1,0.,0\H,11,1.6229819796,9,180.,2,0.,0\H,12,1.6229819796,10,180.,1
 ,0.,0\\Version=ES64L-G09RevE.01\State=1-AG\HF=-6.988442\MP2=-7.8240506
 \RMSD=2.542e-09\Dipole=0.,0.,0.\Quadrupole=3.9837737,4.2288764,-8.2126
 501,0.,5.5212143,0.\PG=C02H [SGH(H14)]\\@


 PERICLES, SOPHOCLES,
 PELOPONESIAN WAR,
 FRENCH VERBS, LATIN VERBS
 H2SO4.
 Job cpu time:       0 days  0 hours  0 minutes  1.8 seconds.
 File lengths (MBytes):  RWF=     84 Int=      0 D2E=      0 Chk=      2 Scr=      2
 Normal termination of Gaussian 09 at Tue Feb 14 14:25:21 2017.
