 Entering Gaussian System, Link 0=g09
 AtFile(1): H.gbs
            H     0
            S   10   1.00
               1000.000000000000            0.000068713567
                316.227766000000            0.000169141320
                100.000000000000            0.000823394812
                 31.622776600000            0.003425569236
                 10.000000000000            0.013951996000
                  3.162277660000            0.056909313560
                  1.000000000000            0.198286399900
                  0.316227766000            0.496922426700
                  0.100000000000            0.369846276400
                  0.031622776600            0.003752720039
            ****
 Initial command:
 /projects/guscus/apps/gau/g09-e1/g09/l1.exe "/users/lcj1/gaussian/h14_rhf2rows/mix/Gau-28777.inp" -scrdir="/users/lcj1/gaussian/h14_rhf2rows/mix/"
 Entering Link 1 = /projects/guscus/apps/gau/g09-e1/g09/l1.exe PID=     28778.
  
 Copyright (c) 1988,1990,1992,1993,1995,1998,2003,2009,2015,
            Gaussian, Inc.  All Rights Reserved.
  
 This is part of the Gaussian(R) 09 program.  It is based on
 the Gaussian(R) 03 system (copyright 2003, Gaussian, Inc.),
 the Gaussian(R) 98 system (copyright 1998, Gaussian, Inc.),
 the Gaussian(R) 94 system (copyright 1995, Gaussian, Inc.),
 the Gaussian 92(TM) system (copyright 1992, Gaussian, Inc.),
 the Gaussian 90(TM) system (copyright 1990, Gaussian, Inc.),
 the Gaussian 88(TM) system (copyright 1988, Gaussian, Inc.),
 the Gaussian 86(TM) system (copyright 1986, Carnegie Mellon
 University), and the Gaussian 82(TM) system (copyright 1983,
 Carnegie Mellon University). Gaussian is a federally registered
 trademark of Gaussian, Inc.
  
 This software contains proprietary and confidential information,
 including trade secrets, belonging to Gaussian, Inc.
  
 This software is provided under written license and may be
 used, copied, transmitted, or stored only in accord with that
 written license.
  
 The following legend is applicable only to US Government
 contracts under FAR:
  
                    RESTRICTED RIGHTS LEGEND
  
 Use, reproduction and disclosure by the US Government is
 subject to restrictions as set forth in subparagraphs (a)
 and (c) of the Commercial Computer Software - Restricted
 Rights clause in FAR 52.227-19.
  
 Gaussian, Inc.
 340 Quinnipiac St., Bldg. 40, Wallingford CT 06492
  
  
 ---------------------------------------------------------------
 Warning -- This program may not be used in any manner that
 competes with the business of Gaussian, Inc. or will provide
 assistance to any competitor of Gaussian, Inc.  The licensee
 of this program is prohibited from giving any competitor of
 Gaussian, Inc. access to this program.  By using this program,
 the user acknowledges that Gaussian, Inc. is engaged in the
 business of creating and licensing software in the field of
 computational chemistry and represents and warrants to the
 licensee that it is not a competitor of Gaussian, Inc. and that
 it will not use this program in any manner prohibited above.
 ---------------------------------------------------------------
  

 Cite this work as:
 Gaussian 09, Revision E.01,
 M. J. Frisch, G. W. Trucks, H. B. Schlegel, G. E. Scuseria, 
 M. A. Robb, J. R. Cheeseman, G. Scalmani, V. Barone, B. Mennucci, 
 G. A. Petersson, H. Nakatsuji, M. Caricato, X. Li, H. P. Hratchian, 
 A. F. Izmaylov, J. Bloino, G. Zheng, J. L. Sonnenberg, M. Hada, 
 M. Ehara, K. Toyota, R. Fukuda, J. Hasegawa, M. Ishida, T. Nakajima, 
 Y. Honda, O. Kitao, H. Nakai, T. Vreven, J. A. Montgomery, Jr., 
 J. E. Peralta, F. Ogliaro, M. Bearpark, J. J. Heyd, E. Brothers, 
 K. N. Kudin, V. N. Staroverov, T. Keith, R. Kobayashi, J. Normand, 
 K. Raghavachari, A. Rendell, J. C. Burant, S. S. Iyengar, J. Tomasi, 
 M. Cossi, N. Rega, J. M. Millam, M. Klene, J. E. Knox, J. B. Cross, 
 V. Bakken, C. Adamo, J. Jaramillo, R. Gomperts, R. E. Stratmann, 
 O. Yazyev, A. J. Austin, R. Cammi, C. Pomelli, J. W. Ochterski, 
 R. L. Martin, K. Morokuma, V. G. Zakrzewski, G. A. Voth, 
 P. Salvador, J. J. Dannenberg, S. Dapprich, A. D. Daniels, 
 O. Farkas, J. B. Foresman, J. V. Ortiz, J. Cioslowski, 
 and D. J. Fox, Gaussian, Inc., Wallingford CT, 2013.
 
 ******************************************
 Gaussian 09:  ES64L-G09RevE.01 30-Nov-2015
                14-Feb-2017 
 ******************************************
 %chk=h12.chk
 ----------------------------------------------------------------------
 #rhf/gen scf(tight,novaracc,noincfock,fulldiag) stable(crhf) guess=mix
  geom=nocrowd test
 ----------------------------------------------------------------------
 1/38=1/1;
 2/12=1,17=6,18=5,40=1/2;
 3/5=7,16=1,25=1,30=1,116=1/1,2,3;
 4/13=-1/1;
 5/5=100002,16=1,32=2,38=1/2;
 8/6=1,10=90,11=11/1,4;
 9/8=4,13=1/2;
 6/7=2,8=2,9=2,10=2,28=1/1;
 99/5=1,9=1/99;
 ----------------------------------------------------------------------
 hf stability analysis of h12 triangular lattice, y= 1.0205721581109972
  alpha= 61.000000000000000
 ----------------------------------------------------------------------
 Symbolic Z-matrix:
 Charge =  0 Multiplicity = 1
 H
 H                    1     1.16688 
 H                    1     1.16688  2     58. 
 H                    2     1.16688  1     122.     3     0.       0
 H                    3     1.16688  1     180.     2     0.       0
 H                    4     1.16688  2     180.     1     0.       0
 H                    5     1.16688  3     180.     2     0.       0
 H                    6     1.16688  4     180.     1     0.       0
 H                    7     1.16688  5     180.     2     0.       0
 H                    8     1.16688  6     180.     1     0.       0
 H                    9     1.16688  7     180.     2     0.       0
 H                    10    1.16688  8     180.     1     0.       0
 H                    11    1.16688  9     180.     2     0.       0
 H                    12    1.16688  10    180.     1     0.       0
 
                          Input orientation:                          
 ---------------------------------------------------------------------
 Center     Atomic      Atomic             Coordinates (Angstroms)
 Number     Number       Type             X           Y           Z
 ---------------------------------------------------------------------
      1          1           0        0.000000    0.000000    0.000000
      2          1           0        0.000000    0.000000    1.166875
      3          1           0        0.989566    0.000000    0.618350
      4          1           0        0.989566    0.000000    1.785225
      5          1           0        1.979133    0.000000    1.236699
      6          1           0        1.979133    0.000000    2.403575
      7          1           0        2.968699    0.000000    1.855049
      8          1           0        2.968699    0.000000    3.021924
      9          1           0        3.958266    0.000000    2.473399
     10          1           0        3.958266    0.000000    3.640274
     11          1           0        4.947832    0.000000    3.091749
     12          1           0        4.947832    0.000000    4.258624
     13          1           0        5.937398    0.000000    3.710098
     14          1           0        5.937398    0.000000    4.876974
 ---------------------------------------------------------------------
                    Distance matrix (angstroms):
                    1          2          3          4          5
     1  H    0.000000
     2  H    1.166875   0.000000
     3  H    1.166875   1.131425   0.000000
     4  H    2.041144   1.166875   1.166875   0.000000
     5  H    2.333751   1.980364   1.166875   1.131425   0.000000
     6  H    3.113541   2.333751   2.041144   1.166875   1.166875
     7  H    3.500626   3.047418   2.333751   1.980364   1.166875
     8  H    4.236178   3.500626   3.113541   2.333751   2.041144
     9  H    4.667501   4.168317   3.500626   3.047418   2.333751
    10  H    5.377682   4.667501   4.236178   3.500626   3.113541
    11  H    5.834377   5.309066   4.667501   4.168317   3.500626
    12  H    6.528163   5.834377   5.377682   4.667501   4.236178
    13  H    7.001252   6.459155   5.834377   5.309066   4.667501
    14  H    7.683591   7.001252   6.528163   5.834377   5.377682
                    6          7          8          9         10
     6  H    0.000000
     7  H    1.131425   0.000000
     8  H    1.166875   1.166875   0.000000
     9  H    1.980364   1.166875   1.131425   0.000000
    10  H    2.333751   2.041144   1.166875   1.166875   0.000000
    11  H    3.047418   2.333751   1.980364   1.166875   1.131425
    12  H    3.500626   3.113541   2.333751   2.041144   1.166875
    13  H    4.168317   3.500626   3.047418   2.333751   1.980364
    14  H    4.667501   4.236178   3.500626   3.113541   2.333751
                   11         12         13         14
    11  H    0.000000
    12  H    1.166875   0.000000
    13  H    1.166875   1.131425   0.000000
    14  H    2.041144   1.166875   1.166875   0.000000
 Stoichiometry    H14
 Framework group  C2H[SGH(H14)]
 Deg. of freedom    13
 Full point group                 C2H     NOp   4
 Largest Abelian subgroup         C2H     NOp   4
 Largest concise Abelian subgroup C2      NOp   2
                         Standard orientation:                         
 ---------------------------------------------------------------------
 Center     Atomic      Atomic             Coordinates (Angstroms)
 Number     Number       Type             X           Y           Z
 ---------------------------------------------------------------------
      1          1           0        2.968699    2.438487    0.000000
      2          1           0        2.968699    1.271611    0.000000
      3          1           0        1.979133    1.820137    0.000000
      4          1           0        1.979133    0.653262    0.000000
      5          1           0        0.989566    1.201787    0.000000
      6          1           0        0.989566    0.034912    0.000000
      7          1           0       -0.000000    0.583438    0.000000
      8          1           0       -0.000000   -0.583438   -0.000000
      9          1           0       -0.989566   -0.034912    0.000000
     10          1           0       -0.989566   -1.201787    0.000000
     11          1           0       -1.979133   -0.653262    0.000000
     12          1           0       -1.979133   -1.820137    0.000000
     13          1           0       -2.968699   -1.271611    0.000000
     14          1           0       -2.968699   -2.438487    0.000000
 ---------------------------------------------------------------------
 Rotational constants (GHZ):    148.9964934      6.4579283      6.1896513
 General basis read from cards:  (5D, 7F)
 There are     7 symmetry adapted cartesian basis functions of AG  symmetry.
 There are     0 symmetry adapted cartesian basis functions of BG  symmetry.
 There are     0 symmetry adapted cartesian basis functions of AU  symmetry.
 There are     7 symmetry adapted cartesian basis functions of BU  symmetry.
 There are     7 symmetry adapted basis functions of AG  symmetry.
 There are     0 symmetry adapted basis functions of BG  symmetry.
 There are     0 symmetry adapted basis functions of AU  symmetry.
 There are     7 symmetry adapted basis functions of BU  symmetry.
    14 basis functions,   140 primitive gaussians,    14 cartesian basis functions
     7 alpha electrons        7 beta electrons
       nuclear repulsion energy        22.2177714474 Hartrees.
 NAtoms=   14 NActive=   14 NUniq=    7 SFac= 4.00D+00 NAtFMM=   60 NAOKFM=F Big=F
 Integral buffers will be    131072 words long.
 Regular integral format.
 Two-electron integral symmetry is turned on.
 One-electron integrals computed using PRISM.
 NBasis=    14 RedAO= T EigKep=  1.75D-01  NBF=     7     0     0     7
 NBsUse=    14 1.00D-06 EigRej= -1.00D+00 NBFU=     7     0     0     7
 ExpMin= 3.16D-02 ExpMax= 1.00D+03 ExpMxC= 1.00D+01 IAcc=3 IRadAn=         5 AccDes= 0.00D+00
 Harris functional with IExCor=  205 and IRadAn=       5 diagonalized for initial guess.
 HarFok:  IExCor=  205 AccDes= 0.00D+00 IRadAn=         5 IDoV= 1 UseB2=F ITyADJ=14
 ICtDFT=  3500011 ScaDFX=  1.000000  1.000000  1.000000  1.000000
 FoFCou: FMM=F IPFlag=           0 FMFlag=      100000 FMFlg1=           0
         NFxFlg=           0 DoJE=T BraDBF=F KetDBF=T FulRan=T
         wScrn=  0.000000 ICntrl=     500 IOpCl=  0 I1Cent=   200000004 NGrid=           0
         NMat0=    1 NMatS0=      1 NMatT0=    0 NMatD0=    1 NMtDS0=    0 NMtDT0=    0
 Petite list used in FoFCou.
 Mixing orbitals, IMix= 1 IMixAn=  0 NRI=1 NE=    7 Coef=  7.07106781D-01  7.07106781D-01
 Initial guess orbital symmetries:
       Occupied  (AG) (BU) (AG) (BU) (AG) (BU) (?A)
       Virtual   (?A) (BU) (AG) (AG) (BU) (BU) (AG)
 Keep R1 ints in memory in symmetry-blocked form, NReq=923618.
 Requested convergence on RMS density matrix=1.00D-08 within 128 cycles.
 Requested convergence on MAX density matrix=1.00D-06.
 Requested convergence on             energy=1.00D-06.
 No special actions if energy rises.
 An orbital has undefined symmetry, so N**3 symmetry is turned off.
 Density matrix breaks symmetry, PCut= 1.00D-04
 Density matrix has no symmetry -- integrals replicated.
 Density matrix breaks symmetry, PCut= 1.00D-07
 Density matrix has no symmetry -- integrals replicated.
 Density matrix breaks symmetry, PCut= 1.00D-07
 Density matrix has no symmetry -- integrals replicated.
 Density matrix breaks symmetry, PCut= 1.00D-07
 Density matrix has no symmetry -- integrals replicated.
 Density matrix breaks symmetry, PCut= 1.00D-07
 Density matrix has no symmetry -- integrals replicated.
 Density matrix breaks symmetry, PCut= 1.00D-07
 Density matrix has no symmetry -- integrals replicated.
 Density matrix breaks symmetry, PCut= 1.00D-07
 Density matrix has no symmetry -- integrals replicated.
 Density matrix breaks symmetry, PCut= 1.00D-07
 Density matrix has no symmetry -- integrals replicated.
 Density matrix breaks symmetry, PCut= 1.00D-07
 Density matrix has no symmetry -- integrals replicated.
 Density matrix breaks symmetry, PCut= 1.00D-07
 Density matrix has no symmetry -- integrals replicated.
 Density matrix breaks symmetry, PCut= 1.00D-07
 Density matrix has no symmetry -- integrals replicated.
 Density matrix breaks symmetry, PCut= 1.00D-07
 Density matrix has no symmetry -- integrals replicated.
 Density matrix breaks symmetry, PCut= 1.00D-07
 Density matrix has no symmetry -- integrals replicated.
 Density matrix breaks symmetry, PCut= 1.00D-07
 Density matrix has no symmetry -- integrals replicated.
 Density matrix breaks symmetry, PCut= 1.00D-07
 Density matrix has no symmetry -- integrals replicated.
 Density matrix breaks symmetry, PCut= 1.00D-07
 Density matrix has no symmetry -- integrals replicated.
 SCF Done:  E(RHF) =  -6.81488615658     A.U. after   17 cycles
            NFock= 17  Conv=0.70D-08     -V/T= 1.9655
 Range of M.O.s used for correlation:     1    14
 NBasis=    14 NAE=     7 NBE=     7 NFC=     0 NFV=     0
 NROrb=     14 NOA=     7 NOB=     7 NVA=     7 NVB=     7
 Semi-Direct transformation.
 ModeAB=           2 MOrb=             7 LenV=     134067265
 LASXX=         4102 LTotXX=        4102 LenRXX=        4102
 LTotAB=        5341 MaxLAS=       10290 LenRXY=       10290
 NonZer=       10290 LenScr=      655360 LnRSAI=           0
 LnScr1=           0 LExtra=           0 Total=       669752
 MaxDsk=          -1 SrtSym=           F ITran=            3
 JobTyp=0 Pass  1:  I=   1 to   7.
 (rs|ai) integrals will be sorted in core.
 SymMOI:  orbitals are not symmetric.
 Spin components of T(2) and E(2):
     alpha-alpha T2 =       0.1228561026D-01 E2=     -0.1422913364D-01
     alpha-beta  T2 =       0.1091707504D+00 E2=     -0.1362250506D+00
     beta-beta   T2 =       0.1228561026D-01 E2=     -0.1422913364D-01
 ANorm=    0.1064773202D+01
 E2 =    -0.1646833179D+00 EUMP2 =    -0.69795694744465D+01
 Second order stability test of a single determinant RHF wave function:
 Stabil:  MDV=134217728
 ***********************************************************************
 Matrix         Lowest Root    Major Pairs
 ***********************************************************************
 Internal RHF     0.0716794    Stable
 RRHF --> CRHF    0.0514686    Stable
 RRHF --> RUHF   -0.0594678    7A=8B 5A=10B 6A=8B 7A=9B 5A=14B 5A=11B
 Not stable.
 ***********************************************************************

 **********************************************************************

            Population analysis using the SCF density.

 **********************************************************************

 Orbital symmetries:
       Occupied  (AG) (BU) (AG) (BU) (BU) (AG) (AG)
       Virtual   (BU) (BU) (AG) (AG) (BU) (BU) (AG)
 The electronic state is 1-AG.
 Alpha  occ. eigenvalues --   -0.86354  -0.79843  -0.70358  -0.55372  -0.37825
 Alpha  occ. eigenvalues --   -0.37017  -0.28000
 Alpha virt. eigenvalues --    0.00019   0.07981   0.19165   0.36817   0.42165
 Alpha virt. eigenvalues --    0.61032   0.64658
          Condensed to atoms (all electrons):
               1          2          3          4          5          6
     1  H    0.734451   0.198751   0.175231  -0.109875  -0.039722  -0.015171
     2  H    0.198751   0.820965  -0.103278   0.190506  -0.175073   0.034962
     3  H    0.175231  -0.103278   0.773891  -0.189813   0.362675  -0.102902
     4  H   -0.109875   0.190506  -0.189813   1.159096  -0.094664   0.333980
     5  H   -0.039722  -0.175073   0.362675  -0.094664   1.294006  -0.175139
     6  H   -0.015171   0.034962  -0.102902   0.333980  -0.175139   0.730900
     7  H    0.007745  -0.012199   0.019144  -0.136890   0.131029  -0.041159
     8  H    0.002407   0.007055  -0.013067  -0.026030  -0.114214   0.183451
     9  H    0.000572   0.001471  -0.001759  -0.008737  -0.025723  -0.036940
    10  H   -0.000116  -0.000905   0.002510   0.000807   0.011224  -0.025723
    11  H   -0.000148   0.000136  -0.000339   0.003994   0.000807  -0.008737
    12  H   -0.000005  -0.000130   0.000274  -0.000339   0.002510  -0.001759
    13  H    0.000001   0.000035  -0.000130   0.000136  -0.000905   0.001471
    14  H    0.000005   0.000001  -0.000005  -0.000148  -0.000116   0.000572
               7          8          9         10         11         12
     1  H    0.007745   0.002407   0.000572  -0.000116  -0.000148  -0.000005
     2  H   -0.012199   0.007055   0.001471  -0.000905   0.000136  -0.000130
     3  H    0.019144  -0.013067  -0.001759   0.002510  -0.000339   0.000274
     4  H   -0.136890  -0.026030  -0.008737   0.000807   0.003994  -0.000339
     5  H    0.131029  -0.114214  -0.025723   0.011224   0.000807   0.002510
     6  H   -0.041159   0.183451  -0.036940  -0.025723  -0.008737  -0.001759
     7  H    0.880974   0.096369   0.183451  -0.114214  -0.026030  -0.013067
     8  H    0.096369   0.880974  -0.041159   0.131029  -0.136890   0.019144
     9  H    0.183451  -0.041159   0.730900  -0.175139   0.333980  -0.102902
    10  H   -0.114214   0.131029  -0.175139   1.294006  -0.094664   0.362675
    11  H   -0.026030  -0.136890   0.333980  -0.094664   1.159096  -0.189813
    12  H   -0.013067   0.019144  -0.102902   0.362675  -0.189813   0.773891
    13  H    0.007055  -0.012199   0.034962  -0.175073   0.190506  -0.103278
    14  H    0.002407   0.007745  -0.015171  -0.039722  -0.109875   0.175231
              13         14
     1  H    0.000001   0.000005
     2  H    0.000035   0.000001
     3  H   -0.000130  -0.000005
     4  H    0.000136  -0.000148
     5  H   -0.000905  -0.000116
     6  H    0.001471   0.000572
     7  H    0.007055   0.002407
     8  H   -0.012199   0.007745
     9  H    0.034962  -0.015171
    10  H   -0.175073  -0.039722
    11  H    0.190506  -0.109875
    12  H   -0.103278   0.175231
    13  H    0.820965   0.198751
    14  H    0.198751   0.734451
 Mulliken charges:
               1
     1  H    0.045873
     2  H    0.037702
     3  H    0.077567
     4  H   -0.122024
     5  H   -0.176696
     6  H    0.122194
     7  H    0.015384
     8  H    0.015384
     9  H    0.122194
    10  H   -0.176696
    11  H   -0.122024
    12  H    0.077567
    13  H    0.037702
    14  H    0.045873
 Sum of Mulliken charges =   0.00000
 Mulliken charges with hydrogens summed into heavy atoms:
               1
 Electronic spatial extent (au):  <R**2>=            328.7042
 Charge=             -0.0000 electrons
 Dipole moment (field-independent basis, Debye):
    X=             -0.0000    Y=              0.0000    Z=              0.0000  Tot=              0.0000
 Quadrupole moment (field-independent basis, Debye-Ang):
   XX=            -16.0587   YY=            -18.7249   ZZ=            -18.2029
   XY=              4.6581   XZ=             -0.0000   YZ=             -0.0000
 Traceless Quadrupole moment (field-independent basis, Debye-Ang):
   XX=              1.6034   YY=             -1.0627   ZZ=             -0.5407
   XY=              4.6581   XZ=             -0.0000   YZ=             -0.0000
 Octapole moment (field-independent basis, Debye-Ang**2):
  XXX=             -0.0000  YYY=             -0.0000  ZZZ=             -0.0000  XYY=             -0.0000
  XXY=             -0.0000  XXZ=             -0.0000  XZZ=              0.0000  YZZ=             -0.0000
  YYZ=             -0.0000  XYZ=              0.0000
 Hexadecapole moment (field-independent basis, Debye-Ang**3):
 XXXX=           -444.2138 YYYY=           -225.7888 ZZZZ=            -22.0109 XXXY=            -94.2276
 XXXZ=              0.0000 YYYX=           -111.6816 YYYZ=              0.0000 ZZZX=              0.0000
 ZZZY=              0.0000 XXYY=            -82.6084 XXZZ=            -80.3723 YYZZ=            -42.9578
 XXYZ=              0.0000 YYXZ=              0.0000 ZZXY=            -44.4885
 N-N= 2.221777144739D+01 E-N=-5.722796854371D+01  KE= 7.058064535834D+00
 Symmetry AG   KE= 4.161209024098D+00
 Symmetry BG   KE= 0.000000000000D+00
 Symmetry AU   KE= 0.000000000000D+00
 Symmetry BU   KE= 2.896855511736D+00

 Test job not archived.
 1\1\GINC-SULU\Stability\RHF\Gen\H14\LCJ1\14-Feb-2017\0\\#rhf/gen scf(t
 ight,novaracc,noincfock,fulldiag) stable(crhf) guess=mix geom=nocrowd 
 test\\hf stability analysis of h12 triangular lattice, y= 1.0205721581
 109972 alpha= 61.000000000000000\\0,1\H\H,1,1.1668753094\H,1,1.1668753
 094,2,58.\H,2,1.1668753094,1,122.,3,0.,0\H,3,1.1668753094,1,180.,2,0.,
 0\H,4,1.1668753094,2,180.,1,0.,0\H,5,1.1668753094,3,180.,2,0.,0\H,6,1.
 1668753094,4,180.,1,0.,0\H,7,1.1668753094,5,180.,2,0.,0\H,8,1.16687530
 94,6,180.,1,0.,0\H,9,1.1668753094,7,180.,2,0.,0\H,10,1.1668753094,8,18
 0.,1,0.,0\H,11,1.1668753094,9,180.,2,0.,0\H,12,1.1668753094,10,180.,1,
 0.,0\\Version=ES64L-G09RevE.01\State=1-AG\HF=-6.8148862\MP2=-6.9795695
 \RMSD=6.967e-09\Dipole=0.,0.,0.\Quadrupole=1.1920985,-0.4019981,-0.790
 1004,0.,3.4631935,0.\PG=C02H [SGH(H14)]\\@


 A COMPUTER IS LIKE A HORSE, IT WILL SENSE WEAKNESS.
     -- GREG WETTSTEIN
 Job cpu time:       0 days  0 hours  0 minutes  2.0 seconds.
 File lengths (MBytes):  RWF=     84 Int=      0 D2E=      0 Chk=      2 Scr=      2
 Normal termination of Gaussian 09 at Tue Feb 14 14:28:20 2017.
