 Entering Gaussian System, Link 0=g09
 AtFile(1): H.gbs
            H     0
            S   10   1.00
               1000.000000000000            0.000068713567
                316.227766000000            0.000169141320
                100.000000000000            0.000823394812
                 31.622776600000            0.003425569236
                 10.000000000000            0.013951996000
                  3.162277660000            0.056909313560
                  1.000000000000            0.198286399900
                  0.316227766000            0.496922426700
                  0.100000000000            0.369846276400
                  0.031622776600            0.003752720039
            ****
 Initial command:
 /projects/guscus/apps/gau/g09-e1/g09/l1.exe "/users/lcj1/gaussian/h10/2rows_uhf/ag2bu3/singlet/Gau-18219.inp" -scrdir="/users/lcj1/gaussian/h10/2rows_uhf/ag2bu3/singlet/"
 Entering Link 1 = /projects/guscus/apps/gau/g09-e1/g09/l1.exe PID=     18220.
  
 Copyright (c) 1988,1990,1992,1993,1995,1998,2003,2009,2015,
            Gaussian, Inc.  All Rights Reserved.
  
 This is part of the Gaussian(R) 09 program.  It is based on
 the Gaussian(R) 03 system (copyright 2003, Gaussian, Inc.),
 the Gaussian(R) 98 system (copyright 1998, Gaussian, Inc.),
 the Gaussian(R) 94 system (copyright 1995, Gaussian, Inc.),
 the Gaussian 92(TM) system (copyright 1992, Gaussian, Inc.),
 the Gaussian 90(TM) system (copyright 1990, Gaussian, Inc.),
 the Gaussian 88(TM) system (copyright 1988, Gaussian, Inc.),
 the Gaussian 86(TM) system (copyright 1986, Carnegie Mellon
 University), and the Gaussian 82(TM) system (copyright 1983,
 Carnegie Mellon University). Gaussian is a federally registered
 trademark of Gaussian, Inc.
  
 This software contains proprietary and confidential information,
 including trade secrets, belonging to Gaussian, Inc.
  
 This software is provided under written license and may be
 used, copied, transmitted, or stored only in accord with that
 written license.
  
 The following legend is applicable only to US Government
 contracts under FAR:
  
                    RESTRICTED RIGHTS LEGEND
  
 Use, reproduction and disclosure by the US Government is
 subject to restrictions as set forth in subparagraphs (a)
 and (c) of the Commercial Computer Software - Restricted
 Rights clause in FAR 52.227-19.
  
 Gaussian, Inc.
 340 Quinnipiac St., Bldg. 40, Wallingford CT 06492
  
  
 ---------------------------------------------------------------
 Warning -- This program may not be used in any manner that
 competes with the business of Gaussian, Inc. or will provide
 assistance to any competitor of Gaussian, Inc.  The licensee
 of this program is prohibited from giving any competitor of
 Gaussian, Inc. access to this program.  By using this program,
 the user acknowledges that Gaussian, Inc. is engaged in the
 business of creating and licensing software in the field of
 computational chemistry and represents and warrants to the
 licensee that it is not a competitor of Gaussian, Inc. and that
 it will not use this program in any manner prohibited above.
 ---------------------------------------------------------------
  

 Cite this work as:
 Gaussian 09, Revision E.01,
 M. J. Frisch, G. W. Trucks, H. B. Schlegel, G. E. Scuseria, 
 M. A. Robb, J. R. Cheeseman, G. Scalmani, V. Barone, B. Mennucci, 
 G. A. Petersson, H. Nakatsuji, M. Caricato, X. Li, H. P. Hratchian, 
 A. F. Izmaylov, J. Bloino, G. Zheng, J. L. Sonnenberg, M. Hada, 
 M. Ehara, K. Toyota, R. Fukuda, J. Hasegawa, M. Ishida, T. Nakajima, 
 Y. Honda, O. Kitao, H. Nakai, T. Vreven, J. A. Montgomery, Jr., 
 J. E. Peralta, F. Ogliaro, M. Bearpark, J. J. Heyd, E. Brothers, 
 K. N. Kudin, V. N. Staroverov, T. Keith, R. Kobayashi, J. Normand, 
 K. Raghavachari, A. Rendell, J. C. Burant, S. S. Iyengar, J. Tomasi, 
 M. Cossi, N. Rega, J. M. Millam, M. Klene, J. E. Knox, J. B. Cross, 
 V. Bakken, C. Adamo, J. Jaramillo, R. Gomperts, R. E. Stratmann, 
 O. Yazyev, A. J. Austin, R. Cammi, C. Pomelli, J. W. Ochterski, 
 R. L. Martin, K. Morokuma, V. G. Zakrzewski, G. A. Voth, 
 P. Salvador, J. J. Dannenberg, S. Dapprich, A. D. Daniels, 
 O. Farkas, J. B. Foresman, J. V. Ortiz, J. Cioslowski, 
 and D. J. Fox, Gaussian, Inc., Wallingford CT, 2013.
 
 ******************************************
 Gaussian 09:  ES64L-G09RevE.01 30-Nov-2015
                23-Feb-2017 
 ******************************************
 %chk=h10.chk
 ----------------------------------------------------------------------
 #uhf/gen scf(tight,novaracc,noincfock,fulldiag) stable(crhf) guess=(re
 ad,mix)geom=nocrowd test
 ----------------------------------------------------------------------
 1/38=1/1;
 2/12=1,17=6,18=5,40=1/2;
 3/5=7,16=1,25=1,30=1,116=2/1,2,3;
 4/5=1,13=-1/1;
 5/5=100002,16=1,32=2,38=6/2;
 8/6=1,10=90,11=11/1,4;
 9/8=4,13=1/2;
 6/7=2,8=2,9=2,10=2,28=1/1;
 99/5=1,9=1/99;
 ----------------------------------------------------------------------
 hf stability analysis of h10 triangular lattice, y= 0.2848531043101661
 9
 ----------------------------------------------------------------------
 Symbolic Z-matrix:
 Charge =  0 Multiplicity = 1
 H
 H                    1     2.04675 
 H                    1     2.04675  2     164. 
 H                    2     2.04675  1     16.      3     0.       0
 H                    3     2.04675  1     180.     2     0.       0
 H                    4     2.04675  2     180.     1     0.       0
 H                    5     2.04675  3     180.     2     0.       0
 H                    6     2.04675  4     180.     1     0.       0
 H                    7     2.04675  5     180.     2     0.       0
 H                    8     2.04675  6     180.     1     0.       0
 
                          Input orientation:                          
 ---------------------------------------------------------------------
 Center     Atomic      Atomic             Coordinates (Angstroms)
 Number     Number       Type             X           Y           Z
 ---------------------------------------------------------------------
      1          1           0        0.000000    0.000000    0.000000
      2          1           0        0.000000    0.000000    2.046754
      3          1           0        0.564162    0.000000   -1.967466
      4          1           0        0.564162    0.000000    0.079288
      5          1           0        1.128324    0.000000   -3.934932
      6          1           0        1.128324    0.000000   -1.888178
      7          1           0        1.692486    0.000000   -5.902399
      8          1           0        1.692486    0.000000   -3.855645
      9          1           0        2.256647    0.000000   -7.869865
     10          1           0        2.256647    0.000000   -5.823111
 ---------------------------------------------------------------------
                    Distance matrix (angstroms):
                    1          2          3          4          5
     1  H    0.000000
     2  H    2.046754   0.000000
     3  H    2.046754   4.053670   0.000000
     4  H    0.569706   2.046754   2.046754   0.000000
     5  H    4.093508   6.087174   2.046754   4.053670   0.000000
     6  H    2.199621   4.093508   0.569706   2.046754   2.046754
     7  H    6.140262   8.127332   4.093508   6.087174   2.046754
     8  H    4.210760   6.140262   2.199621   4.093508   0.569706
     9  H    8.187016  10.170142   6.140262   8.127332   4.093508
    10  H    6.245084   8.187016   4.210760   6.140262   2.199621
                    6          7          8          9         10
     6  H    0.000000
     7  H    4.053670   0.000000
     8  H    2.046754   2.046754   0.000000
     9  H    6.087174   2.046754   4.053670   0.000000
    10  H    4.093508   0.569706   2.046754   2.046754   0.000000
 Stoichiometry    H10
 Framework group  C2H[SGH(H10)]
 Deg. of freedom     9
 Full point group                 C2H     NOp   4
 Largest Abelian subgroup         C2H     NOp   4
 Largest concise Abelian subgroup C2      NOp   2
                         Standard orientation:                         
 ---------------------------------------------------------------------
 Center     Atomic      Atomic             Coordinates (Angstroms)
 Number     Number       Type             X           Y           Z
 ---------------------------------------------------------------------
      1          1           0        1.128324   -2.911555   -0.000000
      2          1           0        1.128324   -4.958309   -0.000000
      3          1           0        0.564162   -0.944089   -0.000000
      4          1           0        0.564162   -2.990843   -0.000000
      5          1           0        0.000000    1.023377    0.000000
      6          1           0       -0.000000   -1.023377    0.000000
      7          1           0       -0.564162    2.990843   -0.000000
      8          1           0       -0.564162    0.944089   -0.000000
      9          1           0       -1.128324    4.958309   -0.000000
     10          1           0       -1.128324    2.911555   -0.000000
 ---------------------------------------------------------------------
 Rotational constants (GHZ):    703.6245313      5.3606125      5.3200811
 General basis read from cards:  (5D, 7F)
 There are     5 symmetry adapted cartesian basis functions of AG  symmetry.
 There are     0 symmetry adapted cartesian basis functions of BG  symmetry.
 There are     0 symmetry adapted cartesian basis functions of AU  symmetry.
 There are     5 symmetry adapted cartesian basis functions of BU  symmetry.
 There are     5 symmetry adapted basis functions of AG  symmetry.
 There are     0 symmetry adapted basis functions of BG  symmetry.
 There are     0 symmetry adapted basis functions of AU  symmetry.
 There are     5 symmetry adapted basis functions of BU  symmetry.
    10 basis functions,   100 primitive gaussians,    10 cartesian basis functions
     5 alpha electrons        5 beta electrons
       nuclear repulsion energy        10.3491859499 Hartrees.
 NAtoms=   10 NActive=   10 NUniq=    5 SFac= 4.00D+00 NAtFMM=   60 NAOKFM=F Big=F
 Integral buffers will be    131072 words long.
 Regular integral format.
 Two-electron integral symmetry is turned on.
 One-electron integrals computed using PRISM.
 NBasis=    10 RedAO= T EigKep=  1.33D-01  NBF=     5     0     0     5
 NBsUse=    10 1.00D-06 EigRej= -1.00D+00 NBFU=     5     0     0     5
 Initial guess from the checkpoint file:  "h10.chk"
 B after Tr=     0.000000   -0.000000   -0.000000
         Rot=    0.507213   -0.000000    0.000000    0.861821 Ang= 119.04 deg.
 Mixing orbitals, IMix= 1 IMixAn=  0 NRI=1 NE=    5 Coef=  7.07106781D-01  7.07106781D-01
 Mixing orbitals, IMix= 1 IMixAn=  0 NRI=1 NE=    5 Coef= -7.07106781D-01  7.07106781D-01
 Initial guess orbital symmetries:
 Alpha Orbitals:
       Occupied  (AG) (BU) (AG) (BU) (?A)
       Virtual   (?A) (BU) (AG) (BU) (AG)
 Beta  Orbitals:
       Occupied  (AG) (BU) (AG) (BU) (?A)
       Virtual   (?A) (BU) (AG) (BU) (AG)
 Initial guess <Sx>= 0.0000 <Sy>= 0.0000 <Sz>= 0.0000 <S**2>= 1.0000 S= 0.6180
 Keep R1 and R2 ints in memory in symmetry-blocked form, NReq=872649.
 Requested convergence on RMS density matrix=1.00D-08 within 128 cycles.
 Requested convergence on MAX density matrix=1.00D-06.
 Requested convergence on             energy=1.00D-06.
 No special actions if energy rises.
 An orbital has undefined symmetry, so N**3 symmetry is turned off.
 Density matrix breaks symmetry, PCut= 1.00D-04
 Density matrix has no symmetry -- integrals replicated.
 Density matrix breaks symmetry, PCut= 1.00D-07
 Density matrix has no symmetry -- integrals replicated.
 Density matrix breaks symmetry, PCut= 1.00D-07
 Density matrix has no symmetry -- integrals replicated.
 Density matrix breaks symmetry, PCut= 1.00D-07
 Density matrix has no symmetry -- integrals replicated.
 Density matrix breaks symmetry, PCut= 1.00D-07
 Density matrix has no symmetry -- integrals replicated.
 Density matrix breaks symmetry, PCut= 1.00D-07
 Density matrix has no symmetry -- integrals replicated.
 Density matrix breaks symmetry, PCut= 1.00D-07
 Density matrix has no symmetry -- integrals replicated.
 Density matrix breaks symmetry, PCut= 1.00D-07
 Density matrix has no symmetry -- integrals replicated.
 Density matrix breaks symmetry, PCut= 1.00D-07
 Density matrix has no symmetry -- integrals replicated.
 Density matrix breaks symmetry, PCut= 1.00D-07
 Density matrix has no symmetry -- integrals replicated.
 Density matrix breaks symmetry, PCut= 1.00D-07
 Density matrix has no symmetry -- integrals replicated.
 Density matrix breaks symmetry, PCut= 1.00D-07
 Density matrix has no symmetry -- integrals replicated.
 Density matrix breaks symmetry, PCut= 1.00D-07
 Density matrix has no symmetry -- integrals replicated.
 SCF Done:  E(UHF) =  -5.06942138505     A.U. after   12 cycles
            NFock= 12  Conv=0.14D-08     -V/T= 2.0562
 <Sx>= 0.0000 <Sy>= 0.0000 <Sz>= 0.0000 <S**2>= 1.0000 S= 0.6180
 <L.S>= 0.000000000000E+00
 Annihilation of the first spin contaminant:
 S**2 before annihilation     1.0000,   after     0.0000
 Range of M.O.s used for correlation:     1    10
 NBasis=    10 NAE=     5 NBE=     5 NFC=     0 NFV=     0
 NROrb=     10 NOA=     5 NOB=     5 NVA=     5 NVB=     5
 Semi-Direct transformation.
 ModeAB=           2 MOrb=             5 LenV=     134114193
 LASXX=         1030 LTotXX=        1030 LenRXX=        1030
 LTotAB=        1825 MaxLAS=        2750 LenRXY=        2750
 NonZer=        2750 LenScr=      655360 LnRSAI=           0
 LnScr1=           0 LExtra=           0 Total=       659140
 MaxDsk=          -1 SrtSym=           F ITran=            3
 JobTyp=1 Pass  1:  I=   1 to   5.
 (rs|ai) integrals will be sorted in core.
 ModeAB=           2 MOrb=             5 LenV=     134114193
 LASXX=         1030 LTotXX=        1030 LenRXX=        2750
 LTotAB=         225 MaxLAS=        2750 LenRXY=         225
 NonZer=        2750 LenScr=      655360 LnRSAI=           0
 LnScr1=           0 LExtra=           0 Total=       658335
 MaxDsk=          -1 SrtSym=           F ITran=            3
 JobTyp=2 Pass  1:  I=   1 to   5.
 (rs|ai) integrals will be sorted in core.
 SymMOI:  orbitals are not symmetric.
 Spin components of T(2) and E(2):
     alpha-alpha T2 =       0.8263231917D-04 E2=     -0.2040865769D-03
     alpha-beta  T2 =       0.1306217790D-01 E2=     -0.3215584908D-01
     beta-beta   T2 =       0.8263231917D-04 E2=     -0.2040865769D-03
 ANorm=    0.1006591994D+01
 E2 =    -0.3256402223D-01 EUMP2 =    -0.51019854072821D+01
 (S**2,0)=  0.10000D+01           (S**2,1)=  0.10000D+01
 E(PUHF)=      -0.50694214459D+01        E(PMP2)=      -0.51019854681D+01
 Second order stability test of a single determinant UHF wave function:
 Stabil:  MDV=134217728
 ***********************************************************************
 Matrix         Lowest Root    Major Pairs
 ***********************************************************************
 Internal UHF     0.4729149    Stable
 RUHF --> CUHF (A)0.5643084    Stable
 RUHF --> CUHF (B)0.5643084    Stable
 RUHF --> GHF    0.            Zero root
 Stable under the perturbations considered.
 ***********************************************************************

 **********************************************************************

            Population analysis using the SCF density.

 **********************************************************************

 Orbital symmetries:
 Alpha Orbitals:
       Occupied  (BG) (BG) (BG) (BG) (BG)
       Virtual   (BG) (?A) (?A) (?A) (?A)
 Beta  Orbitals:
       Occupied  (BG) (BG) (BG) (BG) (BG)
       Virtual   (BG) (?A) (?A) (?A) (?A)
 Unable to determine electronic state:  partially filled degenerate orbitals.
 Alpha  occ. eigenvalues --   -0.73201  -0.70788  -0.67081  -0.63190  -0.48814
 Alpha virt. eigenvalues --    0.14157   0.43239   0.50027   0.59803   0.69042
  Beta  occ. eigenvalues --   -0.73201  -0.70788  -0.67081  -0.63190  -0.48814
  Beta virt. eigenvalues --    0.14157   0.43239   0.50027   0.59803   0.69042
          Condensed to atoms (all electrons):
               1          2          3          4          5          6
     1  H    0.585040  -0.028037  -0.027016   0.493616   0.000245  -0.022278
     2  H   -0.028037   1.050935   0.000236  -0.027976  -0.000001   0.000262
     3  H   -0.027016   0.000236   0.600350  -0.027340  -0.027497   0.503672
     4  H    0.493616  -0.027976  -0.027340   0.591246   0.000254  -0.027128
     5  H    0.000245  -0.000001  -0.027497   0.000254   0.599901  -0.027769
     6  H   -0.022278   0.000262   0.503672  -0.027128  -0.027769   0.599901
     7  H   -0.000001   0.000000   0.000245  -0.000001  -0.027128   0.000254
     8  H    0.000207  -0.000001  -0.022626   0.000245   0.503672  -0.027497
     9  H    0.000000   0.000000  -0.000001   0.000000   0.000262  -0.000001
    10  H   -0.000001   0.000000   0.000207  -0.000001  -0.022278   0.000245
               7          8          9         10
     1  H   -0.000001   0.000207   0.000000  -0.000001
     2  H    0.000000  -0.000001   0.000000   0.000000
     3  H    0.000245  -0.022626  -0.000001   0.000207
     4  H   -0.000001   0.000245   0.000000  -0.000001
     5  H   -0.027128   0.503672   0.000262  -0.022278
     6  H    0.000254  -0.027497  -0.000001   0.000245
     7  H    0.591246  -0.027340  -0.027976   0.493616
     8  H   -0.027340   0.600350   0.000236  -0.027016
     9  H   -0.027976   0.000236   1.050935  -0.028037
    10  H    0.493616  -0.027016  -0.028037   0.585040
          Atomic-Atomic Spin Densities.
               1          2          3          4          5          6
     1  H    0.011785  -0.022908  -0.000367   0.009729   0.000004  -0.000409
     2  H   -0.022908   1.049846   0.000210  -0.022818  -0.000001   0.000238
     3  H   -0.000367   0.000210   0.000099  -0.000358   0.000013   0.000292
     4  H    0.009729  -0.022818  -0.000358   0.011398   0.000004  -0.000482
     5  H    0.000004  -0.000001   0.000013   0.000004  -0.000609  -0.000000
     6  H   -0.000409   0.000238   0.000292  -0.000482  -0.000000   0.000609
     7  H    0.000000   0.000000  -0.000004  -0.000000   0.000482  -0.000004
     8  H    0.000004  -0.000001  -0.000000   0.000004  -0.000292  -0.000013
     9  H   -0.000000   0.000000   0.000001  -0.000000  -0.000238   0.000001
    10  H    0.000000   0.000000  -0.000004  -0.000000   0.000409  -0.000004
               7          8          9         10
     1  H    0.000000   0.000004  -0.000000   0.000000
     2  H    0.000000  -0.000001   0.000000   0.000000
     3  H   -0.000004  -0.000000   0.000001  -0.000004
     4  H   -0.000000   0.000004  -0.000000  -0.000000
     5  H    0.000482  -0.000292  -0.000238   0.000409
     6  H   -0.000004  -0.000013   0.000001  -0.000004
     7  H   -0.011398   0.000358   0.022818  -0.009729
     8  H    0.000358  -0.000099  -0.000210   0.000367
     9  H    0.022818  -0.000210  -1.049846   0.022908
    10  H   -0.009729   0.000367   0.022908  -0.011785
 Mulliken charges and spin densities:
               1          2
     1  H   -0.001775  -0.002162
     2  H    0.004582   1.004566
     3  H   -0.000231  -0.000117
     4  H   -0.002915  -0.002523
     5  H    0.000339  -0.000230
     6  H    0.000339   0.000230
     7  H   -0.002915   0.002523
     8  H   -0.000231   0.000117
     9  H    0.004582  -1.004566
    10  H   -0.001775   0.002162
 Sum of Mulliken charges =  -0.00000   0.00000
 Mulliken charges and spin densities with hydrogens summed into heavy atoms:
               1          2
 Electronic spatial extent (au):  <R**2>=            367.2972
 Charge=              0.0000 electrons
 Dipole moment (field-independent basis, Debye):
    X=             -0.0000    Y=              0.0000    Z=             -0.0000  Tot=              0.0000
 Quadrupole moment (field-independent basis, Debye-Ang):
   XX=            -12.3257   YY=            -15.6887   ZZ=            -13.2770
   XY=              0.7513   XZ=             -0.0000   YZ=              0.0000
 Traceless Quadrupole moment (field-independent basis, Debye-Ang):
   XX=              1.4381   YY=             -1.9249   ZZ=              0.4868
   XY=              0.7513   XZ=             -0.0000   YZ=              0.0000
 Octapole moment (field-independent basis, Debye-Ang**2):
  XXX=             -0.0000  YYY=              0.0000  ZZZ=              0.0000  XYY=             -0.0000
  XXY=              0.0000  XXZ=              0.0000  XZZ=             -0.0000  YZZ=              0.0000
  YYZ=              0.0000  XYZ=             -0.0000
 Hexadecapole moment (field-independent basis, Debye-Ang**3):
 XXXX=            -63.0420 YYYY=           -816.7680 ZZZZ=            -16.3912 XXXY=             86.0103
 XXXZ=             -0.0000 YYYX=            112.5914 YYYZ=              0.0000 ZZZX=             -0.0000
 ZZZY=              0.0000 XXYY=           -131.4518 XXZZ=            -13.6466 YYZZ=           -123.0032
 XXYZ=              0.0000 YYXZ=             -0.0000 ZZXY=             29.7610
 N-N= 1.034918594988D+01 E-N=-2.917541453092D+01  KE= 4.799691292445D+00
 Symmetry AG   KE= 2.183936688186D+00
 Symmetry BG   KE= 0.000000000000D+00
 Symmetry AU   KE= 0.000000000000D+00
 Symmetry BU   KE= 2.615754604259D+00
                          Isotropic Fermi Contact Couplings
        Atom                 a.u.       MegaHertz       Gauss      10(-4) cm-1
     1  H(1)               0.00471      10.51637       3.75250       3.50788
     2  H(1)               0.32478     725.85976     259.00480     242.12075
     3  H(1)               0.00007       0.15892       0.05671       0.05301
     4  H(1)               0.00459      10.26929       3.66434       3.42547
     5  H(1)              -0.00021      -0.46465      -0.16580      -0.15499
     6  H(1)               0.00021       0.46465       0.16580       0.15499
     7  H(1)              -0.00459     -10.26929      -3.66434      -3.42547
     8  H(1)              -0.00007      -0.15892      -0.05671      -0.05301
     9  H(1)              -0.32478    -725.85976    -259.00480    -242.12075
    10  H(1)              -0.00471     -10.51637      -3.75250      -3.50788
 --------------------------------------------------------
       Center         ----  Spin Dipole Couplings  ----
                      3XX-RR        3YY-RR        3ZZ-RR
 --------------------------------------------------------
     1   Atom       -0.010091      0.026446     -0.016355
     2   Atom        0.002006     -0.004292      0.002285
     3   Atom       -0.001557      0.003410     -0.001853
     4   Atom       -0.007362      0.023763     -0.016402
     5   Atom        0.001052     -0.002720      0.001667
     6   Atom       -0.001052      0.002720     -0.001667
     7   Atom        0.007362     -0.023763      0.016402
     8   Atom        0.001557     -0.003410      0.001853
     9   Atom       -0.002006      0.004292     -0.002285
    10   Atom        0.010091     -0.026446      0.016355
 --------------------------------------------------------
                        XY            XZ            YZ
 --------------------------------------------------------
     1   Atom       -0.000235     -0.000000      0.000000
     2   Atom        0.000939     -0.000000     -0.000000
     3   Atom       -0.000477     -0.000000      0.000000
     4   Atom       -0.009239     -0.000000      0.000000
     5   Atom        0.001508     -0.000000      0.000000
     6   Atom       -0.001508     -0.000000      0.000000
     7   Atom        0.009239     -0.000000      0.000000
     8   Atom        0.000477     -0.000000      0.000000
     9   Atom       -0.000939      0.000000     -0.000000
    10   Atom        0.000235      0.000000      0.000000
 --------------------------------------------------------


 ---------------------------------------------------------------------------------
              Anisotropic Spin Dipole Couplings in Principal Axis System
 ---------------------------------------------------------------------------------

       Atom             a.u.   MegaHertz   Gauss  10(-4) cm-1        Axes

              Baa    -0.0164    -8.726    -3.114    -2.911  0.0000  0.0000  1.0000
     1 H(1)   Bbb    -0.0101    -5.385    -1.921    -1.796  1.0000  0.0064  0.0000
              Bcc     0.0264    14.111     5.035     4.707 -0.0064  1.0000  0.0000
 
              Baa    -0.0044    -2.363    -0.843    -0.788 -0.1443  0.9895  0.0000
     2 H(1)   Bbb     0.0021     1.144     0.408     0.381  0.9895  0.1443  0.0000
              Bcc     0.0023     1.219     0.435     0.407  0.0000  0.0000  1.0000
 
              Baa    -0.0019    -0.989    -0.353    -0.330  0.0000  0.0000  1.0000
     3 H(1)   Bbb    -0.0016    -0.855    -0.305    -0.285  0.9955  0.0947  0.0000
              Bcc     0.0035     1.844     0.658     0.615 -0.0947  0.9955  0.0000
 
              Baa    -0.0164    -8.751    -3.123    -2.919  0.0000  0.0000  1.0000
     4 H(1)   Bbb    -0.0099    -5.281    -1.884    -1.762  0.9643  0.2647  0.0000
              Bcc     0.0263    14.032     5.007     4.681 -0.2647  0.9643  0.0000
 
              Baa    -0.0032    -1.733    -0.618    -0.578 -0.3309  0.9437  0.0000
     5 H(1)   Bbb     0.0016     0.844     0.301     0.281  0.9437  0.3309  0.0000
              Bcc     0.0017     0.890     0.317     0.297  0.0000  0.0000  1.0000
 
              Baa    -0.0017    -0.890    -0.317    -0.297  0.0000  0.0000  1.0000
     6 H(1)   Bbb    -0.0016    -0.844    -0.301    -0.281  0.9437  0.3309  0.0000
              Bcc     0.0032     1.733     0.618     0.578 -0.3309  0.9437  0.0000
 
              Baa    -0.0263   -14.032    -5.007    -4.681 -0.2647  0.9643  0.0000
     7 H(1)   Bbb     0.0099     5.281     1.884     1.762  0.9643  0.2647  0.0000
              Bcc     0.0164     8.751     3.123     2.919  0.0000  0.0000  1.0000
 
              Baa    -0.0035    -1.844    -0.658    -0.615 -0.0947  0.9955  0.0000
     8 H(1)   Bbb     0.0016     0.855     0.305     0.285  0.9955  0.0947  0.0000
              Bcc     0.0019     0.989     0.353     0.330  0.0000  0.0000  1.0000
 
              Baa    -0.0023    -1.219    -0.435    -0.407  0.0000  0.0000  1.0000
     9 H(1)   Bbb    -0.0021    -1.144    -0.408    -0.381  0.9895  0.1443  0.0000
              Bcc     0.0044     2.363     0.843     0.788 -0.1443  0.9895  0.0000
 
              Baa    -0.0264   -14.111    -5.035    -4.707 -0.0064  1.0000  0.0000
    10 H(1)   Bbb     0.0101     5.385     1.921     1.796  1.0000  0.0064  0.0000
              Bcc     0.0164     8.726     3.114     2.911  0.0000  0.0000  1.0000
 

 ---------------------------------------------------------------------------------


 Test job not archived.
 1\1\GINC-SULU\Stability\UHF\Gen\H10\LCJ1\23-Feb-2017\0\\#uhf/gen scf(t
 ight,novaracc,noincfock,fulldiag) stable(crhf) guess=(read,mix)geom=no
 crowd test\\hf stability analysis of h10 triangular lattice, y= 0.2848
 5310431016619\\0,1\H\H,1,2.0467539666\H,1,2.0467539666,2,164.\H,2,2.04
 67539666,1,16.,3,0.,0\H,3,2.0467539666,1,180.,2,0.,0\H,4,2.0467539666,
 2,180.,1,0.,0\H,5,2.0467539666,3,180.,2,0.,0\H,6,2.0467539666,4,180.,1
 ,0.,0\H,7,2.0467539666,5,180.,2,0.,0\H,8,2.0467539666,6,180.,1,0.,0\\V
 ersion=ES64L-G09RevE.01\HF=-5.0694214\MP2=-5.1019854\PUHF=-5.0694214\P
 MP2-0=-5.1019855\S2=1.\S2-1=1.\S2A=0.\RMSD=1.364e-09\Dipole=0.,0.,0.\Q
 uadrupole=1.0691922,0.3619274,-1.4311196,0.,0.5586101,0.\PG=C02H [SGH(
 H10)]\\@


 THERE ARE PEOPLE SO ADDICTED TO EXAGERATING THEY
 CAN'T TELL THE TRUTH WITHOUT LYING. -- FORTUNE COOKIE
 Job cpu time:       0 days  0 hours  0 minutes  1.1 seconds.
 File lengths (MBytes):  RWF=     94 Int=      0 D2E=      0 Chk=      2 Scr=      2
 Normal termination of Gaussian 09 at Thu Feb 23 15:34:14 2017.
