 Entering Gaussian System, Link 0=g09
 AtFile(1): H.gbs
            H     0
            S   10   1.00
               1000.000000000000            0.000068713567
                316.227766000000            0.000169141320
                100.000000000000            0.000823394812
                 31.622776600000            0.003425569236
                 10.000000000000            0.013951996000
                  3.162277660000            0.056909313560
                  1.000000000000            0.198286399900
                  0.316227766000            0.496922426700
                  0.100000000000            0.369846276400
                  0.031622776600            0.003752720039
            ****
 Initial command:
 /projects/guscus/apps/gau/g09-e1/g09/l1.exe "/users/lcj1/gaussian/h10/2rows_uhf/ag2bu3/singlet/Gau-708.inp" -scrdir="/users/lcj1/gaussian/h10/2rows_uhf/ag2bu3/singlet/"
 Entering Link 1 = /projects/guscus/apps/gau/g09-e1/g09/l1.exe PID=       709.
  
 Copyright (c) 1988,1990,1992,1993,1995,1998,2003,2009,2015,
            Gaussian, Inc.  All Rights Reserved.
  
 This is part of the Gaussian(R) 09 program.  It is based on
 the Gaussian(R) 03 system (copyright 2003, Gaussian, Inc.),
 the Gaussian(R) 98 system (copyright 1998, Gaussian, Inc.),
 the Gaussian(R) 94 system (copyright 1995, Gaussian, Inc.),
 the Gaussian 92(TM) system (copyright 1992, Gaussian, Inc.),
 the Gaussian 90(TM) system (copyright 1990, Gaussian, Inc.),
 the Gaussian 88(TM) system (copyright 1988, Gaussian, Inc.),
 the Gaussian 86(TM) system (copyright 1986, Carnegie Mellon
 University), and the Gaussian 82(TM) system (copyright 1983,
 Carnegie Mellon University). Gaussian is a federally registered
 trademark of Gaussian, Inc.
  
 This software contains proprietary and confidential information,
 including trade secrets, belonging to Gaussian, Inc.
  
 This software is provided under written license and may be
 used, copied, transmitted, or stored only in accord with that
 written license.
  
 The following legend is applicable only to US Government
 contracts under FAR:
  
                    RESTRICTED RIGHTS LEGEND
  
 Use, reproduction and disclosure by the US Government is
 subject to restrictions as set forth in subparagraphs (a)
 and (c) of the Commercial Computer Software - Restricted
 Rights clause in FAR 52.227-19.
  
 Gaussian, Inc.
 340 Quinnipiac St., Bldg. 40, Wallingford CT 06492
  
  
 ---------------------------------------------------------------
 Warning -- This program may not be used in any manner that
 competes with the business of Gaussian, Inc. or will provide
 assistance to any competitor of Gaussian, Inc.  The licensee
 of this program is prohibited from giving any competitor of
 Gaussian, Inc. access to this program.  By using this program,
 the user acknowledges that Gaussian, Inc. is engaged in the
 business of creating and licensing software in the field of
 computational chemistry and represents and warrants to the
 licensee that it is not a competitor of Gaussian, Inc. and that
 it will not use this program in any manner prohibited above.
 ---------------------------------------------------------------
  

 Cite this work as:
 Gaussian 09, Revision E.01,
 M. J. Frisch, G. W. Trucks, H. B. Schlegel, G. E. Scuseria, 
 M. A. Robb, J. R. Cheeseman, G. Scalmani, V. Barone, B. Mennucci, 
 G. A. Petersson, H. Nakatsuji, M. Caricato, X. Li, H. P. Hratchian, 
 A. F. Izmaylov, J. Bloino, G. Zheng, J. L. Sonnenberg, M. Hada, 
 M. Ehara, K. Toyota, R. Fukuda, J. Hasegawa, M. Ishida, T. Nakajima, 
 Y. Honda, O. Kitao, H. Nakai, T. Vreven, J. A. Montgomery, Jr., 
 J. E. Peralta, F. Ogliaro, M. Bearpark, J. J. Heyd, E. Brothers, 
 K. N. Kudin, V. N. Staroverov, T. Keith, R. Kobayashi, J. Normand, 
 K. Raghavachari, A. Rendell, J. C. Burant, S. S. Iyengar, J. Tomasi, 
 M. Cossi, N. Rega, J. M. Millam, M. Klene, J. E. Knox, J. B. Cross, 
 V. Bakken, C. Adamo, J. Jaramillo, R. Gomperts, R. E. Stratmann, 
 O. Yazyev, A. J. Austin, R. Cammi, C. Pomelli, J. W. Ochterski, 
 R. L. Martin, K. Morokuma, V. G. Zakrzewski, G. A. Voth, 
 P. Salvador, J. J. Dannenberg, S. Dapprich, A. D. Daniels, 
 O. Farkas, J. B. Foresman, J. V. Ortiz, J. Cioslowski, 
 and D. J. Fox, Gaussian, Inc., Wallingford CT, 2013.
 
 ******************************************
 Gaussian 09:  ES64L-G09RevE.01 30-Nov-2015
                23-Feb-2017 
 ******************************************
 %chk=h10.chk
 ----------------------------------------------------------------------
 #uhf/gen scf(tight,novaracc,noincfock,fulldiag) stable(crhf) guess=(re
 ad,mix)geom=nocrowd test
 ----------------------------------------------------------------------
 1/38=1/1;
 2/12=1,17=6,18=5,40=1/2;
 3/5=7,16=1,25=1,30=1,116=2/1,2,3;
 4/5=1,13=-1/1;
 5/5=100002,16=1,32=2,38=6/2;
 8/6=1,10=90,11=11/1,4;
 9/8=4,13=1/2;
 6/7=2,8=2,9=2,10=2,28=1/1;
 99/5=1,9=1/99;
 ----------------------------------------------------------------------
 hf stability analysis of h10 triangular lattice, y= 0.9802409242172439
 6
 ----------------------------------------------------------------------
 Symbolic Z-matrix:
 Charge =  0 Multiplicity = 1
 H
 H                    1     1.14358 
 H                    1     1.14358  2     62. 
 H                    2     1.14358  1     118.     3     0.       0
 H                    3     1.14358  1     180.     2     0.       0
 H                    4     1.14358  2     180.     1     0.       0
 H                    5     1.14358  3     180.     2     0.       0
 H                    6     1.14358  4     180.     1     0.       0
 H                    7     1.14358  5     180.     2     0.       0
 H                    8     1.14358  6     180.     1     0.       0
 
                          Input orientation:                          
 ---------------------------------------------------------------------
 Center     Atomic      Atomic             Coordinates (Angstroms)
 Number     Number       Type             X           Y           Z
 ---------------------------------------------------------------------
      1          1           0        0.000000    0.000000    0.000000
      2          1           0        0.000000    0.000000    1.143582
      3          1           0        1.009723    0.000000    0.536879
      4          1           0        1.009723    0.000000    1.680461
      5          1           0        2.019446    0.000000    1.073758
      6          1           0        2.019446    0.000000    2.217340
      7          1           0        3.029168    0.000000    1.610637
      8          1           0        3.029168    0.000000    2.754219
      9          1           0        4.038891    0.000000    2.147517
     10          1           0        4.038891    0.000000    3.291098
 ---------------------------------------------------------------------
                    Distance matrix (angstroms):
                    1          2          3          4          5
     1  H    0.000000
     2  H    1.143582   0.000000
     3  H    1.143582   1.177976   0.000000
     4  H    1.960482   1.143582   1.143582   0.000000
     5  H    2.287164   2.020652   1.143582   1.177976   0.000000
     6  H    2.999126   2.287164   1.960482   1.143582   1.143582
     7  H    3.430745   3.064964   2.287164   2.020652   1.143582
     8  H    4.094091   3.430745   2.999126   2.287164   1.960482
     9  H    4.574327   4.161794   3.430745   3.064964   2.287164
    10  H    5.209987   4.574327   4.094091   3.430745   2.999126
                    6          7          8          9         10
     6  H    0.000000
     7  H    1.177976   0.000000
     8  H    1.143582   1.143582   0.000000
     9  H    2.020652   1.143582   1.177976   0.000000
    10  H    2.287164   1.960482   1.143582   1.143582   0.000000
 Stoichiometry    H10
 Framework group  C2H[SGH(H10)]
 Deg. of freedom     9
 Full point group                 C2H     NOp   4
 Largest Abelian subgroup         C2H     NOp   4
 Largest concise Abelian subgroup C2      NOp   2
                         Standard orientation:                         
 ---------------------------------------------------------------------
 Center     Atomic      Atomic             Coordinates (Angstroms)
 Number     Number       Type             X           Y           Z
 ---------------------------------------------------------------------
      1          1           0        2.019446    1.645549   -0.000000
      2          1           0        2.019446    0.501967   -0.000000
      3          1           0        1.009723    1.108670   -0.000000
      4          1           0        1.009723   -0.034912   -0.000000
      5          1           0       -0.000000    0.571791    0.000000
      6          1           0       -0.000000   -0.571791    0.000000
      7          1           0       -1.009723    0.034912   -0.000000
      8          1           0       -1.009723   -1.108670   -0.000000
      9          1           0       -2.019446   -0.501967   -0.000000
     10          1           0       -2.019446   -1.645549   -0.000000
 ---------------------------------------------------------------------
 Rotational constants (GHZ):    202.7241197     18.6058671     17.0417849
 General basis read from cards:  (5D, 7F)
 There are     5 symmetry adapted cartesian basis functions of AG  symmetry.
 There are     0 symmetry adapted cartesian basis functions of BG  symmetry.
 There are     0 symmetry adapted cartesian basis functions of AU  symmetry.
 There are     5 symmetry adapted cartesian basis functions of BU  symmetry.
 There are     5 symmetry adapted basis functions of AG  symmetry.
 There are     0 symmetry adapted basis functions of BG  symmetry.
 There are     0 symmetry adapted basis functions of AU  symmetry.
 There are     5 symmetry adapted basis functions of BU  symmetry.
    10 basis functions,   100 primitive gaussians,    10 cartesian basis functions
     5 alpha electrons        5 beta electrons
       nuclear repulsion energy        13.2762483752 Hartrees.
 NAtoms=   10 NActive=   10 NUniq=    5 SFac= 4.00D+00 NAtFMM=   60 NAOKFM=F Big=F
 Integral buffers will be    131072 words long.
 Regular integral format.
 Two-electron integral symmetry is turned on.
 One-electron integrals computed using PRISM.
 NBasis=    10 RedAO= T EigKep=  1.81D-01  NBF=     5     0     0     5
 NBsUse=    10 1.00D-06 EigRej= -1.00D+00 NBFU=     5     0     0     5
 Initial guess from the checkpoint file:  "h10.chk"
 B after Tr=     0.000000    0.000000   -0.000000
         Rot=    0.983609   -0.000000    0.000000    0.180312 Ang=  20.78 deg.
 Mixing orbitals, IMix= 1 IMixAn=  0 NRI=1 NE=    5 Coef=  7.07106781D-01  7.07106781D-01
 Mixing orbitals, IMix= 1 IMixAn=  0 NRI=1 NE=    5 Coef= -7.07106781D-01  7.07106781D-01
 Initial guess orbital symmetries:
 Alpha Orbitals:
       Occupied  (AG) (BU) (AG) (BU) (?A)
       Virtual   (?A) (BU) (AG) (BU) (AG)
 Beta  Orbitals:
       Occupied  (AG) (BU) (AG) (BU) (?A)
       Virtual   (?A) (BU) (AG) (BU) (AG)
 Initial guess <Sx>= 0.0000 <Sy>= 0.0000 <Sz>= 0.0000 <S**2>= 1.0000 S= 0.6180
 Keep R1 and R2 ints in memory in symmetry-blocked form, NReq=879397.
 Requested convergence on RMS density matrix=1.00D-08 within 128 cycles.
 Requested convergence on MAX density matrix=1.00D-06.
 Requested convergence on             energy=1.00D-06.
 No special actions if energy rises.
 An orbital has undefined symmetry, so N**3 symmetry is turned off.
 Density matrix breaks symmetry, PCut= 1.00D-04
 Density matrix has no symmetry -- integrals replicated.
 Density matrix breaks symmetry, PCut= 1.00D-07
 Density matrix has no symmetry -- integrals replicated.
 Density matrix breaks symmetry, PCut= 1.00D-07
 Density matrix has no symmetry -- integrals replicated.
 Density matrix breaks symmetry, PCut= 1.00D-07
 Density matrix has no symmetry -- integrals replicated.
 Density matrix breaks symmetry, PCut= 1.00D-07
 Density matrix has no symmetry -- integrals replicated.
 Density matrix breaks symmetry, PCut= 1.00D-07
 Density matrix has no symmetry -- integrals replicated.
 Density matrix breaks symmetry, PCut= 1.00D-07
 Density matrix has no symmetry -- integrals replicated.
 Density matrix breaks symmetry, PCut= 1.00D-07
 Density matrix has no symmetry -- integrals replicated.
 Density matrix breaks symmetry, PCut= 1.00D-07
 Density matrix has no symmetry -- integrals replicated.
 Density matrix breaks symmetry, PCut= 1.00D-07
 Density matrix has no symmetry -- integrals replicated.
 Density matrix breaks symmetry, PCut= 1.00D-07
 Density matrix has no symmetry -- integrals replicated.
 Density matrix breaks symmetry, PCut= 1.00D-07
 Density matrix has no symmetry -- integrals replicated.
 Rare condition: small coef for last iteration:  0.000D+00
 Density matrix breaks symmetry, PCut= 1.00D-07
 Density matrix has no symmetry -- integrals replicated.
 Density matrix breaks symmetry, PCut= 1.00D-07
 Density matrix has no symmetry -- integrals replicated.
 Density matrix breaks symmetry, PCut= 1.00D-07
 Density matrix has no symmetry -- integrals replicated.
 Density matrix breaks symmetry, PCut= 1.00D-07
 Density matrix has no symmetry -- integrals replicated.
 Density matrix breaks symmetry, PCut= 1.00D-07
 Density matrix has no symmetry -- integrals replicated.
 Density matrix breaks symmetry, PCut= 1.00D-07
 Density matrix has no symmetry -- integrals replicated.
 Density matrix breaks symmetry, PCut= 1.00D-07
 Density matrix has no symmetry -- integrals replicated.
 Density matrix breaks symmetry, PCut= 1.00D-07
 Density matrix has no symmetry -- integrals replicated.
 Density matrix breaks symmetry, PCut= 1.00D-07
 Density matrix has no symmetry -- integrals replicated.
 Density matrix breaks symmetry, PCut= 1.00D-07
 Density matrix has no symmetry -- integrals replicated.
 Density matrix breaks symmetry, PCut= 1.00D-07
 Density matrix has no symmetry -- integrals replicated.
 Density matrix breaks symmetry, PCut= 1.00D-07
 Density matrix has no symmetry -- integrals replicated.
 Density matrix breaks symmetry, PCut= 1.00D-07
 Density matrix has no symmetry -- integrals replicated.
 SCF Done:  E(UHF) =  -4.87836565802     A.U. after   24 cycles
            NFock= 24  Conv=0.25D-08     -V/T= 1.9478
 <Sx>= 0.0000 <Sy>= 0.0000 <Sz>= 0.0000 <S**2>= 0.5419 S= 0.3899
 <L.S>= 0.000000000000E+00
 Annihilation of the first spin contaminant:
 S**2 before annihilation     0.5419,   after     0.0234
 Range of M.O.s used for correlation:     1    10
 NBasis=    10 NAE=     5 NBE=     5 NFC=     0 NFV=     0
 NROrb=     10 NOA=     5 NOB=     5 NVA=     5 NVB=     5
 Semi-Direct transformation.
 ModeAB=           2 MOrb=             5 LenV=     134107263
 LASXX=         1030 LTotXX=        1030 LenRXX=        1030
 LTotAB=        1825 MaxLAS=        2750 LenRXY=        2750
 NonZer=        2750 LenScr=      655360 LnRSAI=           0
 LnScr1=           0 LExtra=           0 Total=       659140
 MaxDsk=          -1 SrtSym=           F ITran=            3
 JobTyp=1 Pass  1:  I=   1 to   5.
 (rs|ai) integrals will be sorted in core.
 ModeAB=           2 MOrb=             5 LenV=     134107263
 LASXX=         1030 LTotXX=        1030 LenRXX=        2750
 LTotAB=         225 MaxLAS=        2750 LenRXY=         225
 NonZer=        2750 LenScr=      655360 LnRSAI=           0
 LnScr1=           0 LExtra=           0 Total=       658335
 MaxDsk=          -1 SrtSym=           F ITran=            3
 JobTyp=2 Pass  1:  I=   1 to   5.
 (rs|ai) integrals will be sorted in core.
 SymMOI:  orbitals are not symmetric.
 Spin components of T(2) and E(2):
     alpha-alpha T2 =       0.4327591319D-02 E2=     -0.5828101203D-02
     alpha-beta  T2 =       0.5186092642D-01 E2=     -0.7557037391D-01
     beta-beta   T2 =       0.4327591319D-02 E2=     -0.5828101203D-02
 ANorm=    0.1029813628D+01
 E2 =    -0.8722657632D-01 EUMP2 =    -0.49655922343385D+01
 (S**2,0)=  0.54193D+00           (S**2,1)=  0.48668D+00
 E(PUHF)=      -0.48959118823D+01        E(PMP2)=      -0.49822629751D+01
 Second order stability test of a single determinant UHF wave function:
 Stabil:  MDV=134217728
 ***********************************************************************
 Matrix         Lowest Root    Major Pairs
 ***********************************************************************
 Internal UHF    -0.0347464    5B=6B 5A=6A
 RUHF --> CUHF (A)0.0551957    Stable
 RUHF --> CUHF (B)0.0551957    Stable
 RUHF --> GHF    -0.0416821    5A=6B 5B=6A
 Not stable.
 ***********************************************************************

 **********************************************************************

            Population analysis using the SCF density.

 **********************************************************************

 Orbital symmetries:
 Alpha Orbitals:
       Occupied  (BG) (BG) (BG) (BG) (BG)
       Virtual   (BG) (BG) (BG) (BG) (BG)
 Beta  Orbitals:
       Occupied  (BG) (BG) (BG) (BG) (BG)
       Virtual   (BG) (BG) (BG) (BG) (BG)
 Unable to determine electronic state:  partially filled degenerate orbitals.
 Alpha  occ. eigenvalues --   -0.86106  -0.72967  -0.55095  -0.38436  -0.30536
 Alpha virt. eigenvalues --    0.02304   0.23242   0.23739   0.54760   0.61166
  Beta  occ. eigenvalues --   -0.86106  -0.72967  -0.55095  -0.38436  -0.30536
  Beta virt. eigenvalues --    0.02304   0.23242   0.23739   0.54760   0.61166
          Condensed to atoms (all electrons):
               1          2          3          4          5          6
     1  H    0.992085   0.301322   0.013658  -0.163331  -0.068474   0.003228
     2  H    0.301322   0.710023  -0.069015   0.041129  -0.125032   0.020986
     3  H    0.013658  -0.069015   0.784721   0.021028   0.322541  -0.118285
     4  H   -0.163331   0.041129   0.021028   1.214888   0.065972   0.079929
     5  H   -0.068474  -0.125032   0.322541   0.065972   0.986047  -0.159840
     6  H    0.003228   0.020986  -0.118285   0.079929  -0.159840   0.986047
     7  H    0.014211  -0.000984  -0.025177  -0.153587   0.079929   0.065972
     8  H    0.003382   0.007778  -0.021933  -0.025177  -0.118285   0.322541
     9  H   -0.000480  -0.000528   0.007778  -0.000984   0.020986  -0.125032
    10  H   -0.000649  -0.000480   0.003382   0.014211   0.003228  -0.068474
               7          8          9         10
     1  H    0.014211   0.003382  -0.000480  -0.000649
     2  H   -0.000984   0.007778  -0.000528  -0.000480
     3  H   -0.025177  -0.021933   0.007778   0.003382
     4  H   -0.153587  -0.025177  -0.000984   0.014211
     5  H    0.079929  -0.118285   0.020986   0.003228
     6  H    0.065972   0.322541  -0.125032  -0.068474
     7  H    1.214888   0.021028   0.041129  -0.163331
     8  H    0.021028   0.784721  -0.069015   0.013658
     9  H    0.041129  -0.069015   0.710023   0.301322
    10  H   -0.163331   0.013658   0.301322   0.992085
          Atomic-Atomic Spin Densities.
               1          2          3          4          5          6
     1  H    0.078616  -0.044740   0.041633  -0.044611   0.018735   0.000626
     2  H   -0.044740   0.191527  -0.125276   0.146208  -0.047201   0.018880
     3  H    0.041633  -0.125276   0.335727  -0.166252   0.134185  -0.037903
     4  H   -0.044611   0.146208  -0.166252   0.498049  -0.167178   0.020125
     5  H    0.018735  -0.047201   0.134185  -0.167178   0.165098  -0.000000
     6  H    0.000626   0.018880  -0.037903   0.020125  -0.000000  -0.165098
     7  H    0.001101  -0.003264   0.004226  -0.000000  -0.020125   0.167178
     8  H   -0.000219   0.000367  -0.000000  -0.004226   0.037903  -0.134185
     9  H   -0.000058  -0.000000  -0.000367   0.003264  -0.018880   0.047201
    10  H    0.000000   0.000058   0.000219  -0.001101  -0.000626  -0.018735
               7          8          9         10
     1  H    0.001101  -0.000219  -0.000058   0.000000
     2  H   -0.003264   0.000367  -0.000000   0.000058
     3  H    0.004226  -0.000000  -0.000367   0.000219
     4  H   -0.000000  -0.004226   0.003264  -0.001101
     5  H   -0.020125   0.037903  -0.018880  -0.000626
     6  H    0.167178  -0.134185   0.047201  -0.018735
     7  H   -0.498049   0.166252  -0.146208   0.044611
     8  H    0.166252  -0.335727   0.125276  -0.041633
     9  H   -0.146208   0.125276  -0.191527   0.044740
    10  H    0.044611  -0.041633   0.044740  -0.078616
 Mulliken charges and spin densities:
               1          2
     1  H   -0.094952   0.051084
     2  H    0.114800   0.136559
     3  H    0.081301   0.186193
     4  H   -0.094077   0.284277
     5  H   -0.007072   0.101912
     6  H   -0.007072  -0.101912
     7  H   -0.094077  -0.284277
     8  H    0.081301  -0.186193
     9  H    0.114800  -0.136559
    10  H   -0.094952  -0.051084
 Sum of Mulliken charges =  -0.00000   0.00000
 Mulliken charges and spin densities with hydrogens summed into heavy atoms:
               1          2
 Electronic spatial extent (au):  <R**2>=            137.6329
 Charge=             -0.0000 electrons
 Dipole moment (field-independent basis, Debye):
    X=             -0.0000    Y=             -0.0000    Z=             -0.0000  Tot=              0.0000
 Quadrupole moment (field-independent basis, Debye-Ang):
   XX=            -15.1945   YY=            -15.6790   ZZ=            -12.9130
   XY=             -2.0189   XZ=              0.0000   YZ=              0.0000
 Traceless Quadrupole moment (field-independent basis, Debye-Ang):
   XX=             -0.5990   YY=             -1.0835   ZZ=              1.6825
   XY=             -2.0189   XZ=              0.0000   YZ=              0.0000
 Octapole moment (field-independent basis, Debye-Ang**2):
  XXX=             -0.0000  YYY=             -0.0000  ZZZ=              0.0000  XYY=             -0.0000
  XXY=             -0.0000  XXZ=              0.0000  XZZ=             -0.0000  YZZ=             -0.0000
  YYZ=              0.0000  XYZ=              0.0000
 Hexadecapole moment (field-independent basis, Debye-Ang**3):
 XXXX=           -207.1344 YYYY=            -98.0442 ZZZZ=            -15.5603 XXXY=            -65.6259
 XXXZ=              0.0000 YYYX=            -52.9503 YYYZ=              0.0000 ZZZX=              0.0000
 ZZZY=              0.0000 XXYY=            -59.6493 XXZZ=            -33.3924 YYZZ=            -18.1884
 XXYZ=              0.0000 YYXZ=              0.0000 ZZXY=            -15.1269
 N-N= 1.327624837518D+01 E-N=-3.579365383245D+01  KE= 5.147216303495D+00
 Symmetry AG   KE= 1.759068568189D+00
 Symmetry BG   KE= 0.000000000000D+00
 Symmetry AU   KE= 0.000000000000D+00
 Symmetry BU   KE= 3.388147735306D+00
                          Isotropic Fermi Contact Couplings
        Atom                 a.u.       MegaHertz       Gauss      10(-4) cm-1
     1  H(1)               0.02240      50.05314      17.86020      16.69593
     2  H(1)               0.05523     123.43154      44.04344      41.17233
     3  H(1)               0.08809     196.86863      70.24762      65.66831
     4  H(1)               0.13121     293.24710     104.63785      97.81670
     5  H(1)               0.04461      99.70741      35.57808      33.25881
     6  H(1)              -0.04461     -99.70741     -35.57808     -33.25881
     7  H(1)              -0.13121    -293.24710    -104.63785     -97.81670
     8  H(1)              -0.08809    -196.86863     -70.24762     -65.66831
     9  H(1)              -0.05523    -123.43154     -44.04344     -41.17233
    10  H(1)              -0.02240     -50.05314     -17.86020     -16.69593
 --------------------------------------------------------
       Center         ----  Spin Dipole Couplings  ----
                      3XX-RR        3YY-RR        3ZZ-RR
 --------------------------------------------------------
     1   Atom        0.020621      0.001834     -0.022455
     2   Atom        0.021147      0.008928     -0.030075
     3   Atom        0.010530      0.014101     -0.024631
     4   Atom        0.002474      0.003160     -0.005633
     5   Atom       -0.007132      0.007670     -0.000538
     6   Atom        0.007132     -0.007670      0.000538
     7   Atom       -0.002474     -0.003160      0.005633
     8   Atom       -0.010530     -0.014101      0.024631
     9   Atom       -0.021147     -0.008928      0.030075
    10   Atom       -0.020621     -0.001834      0.022455
 --------------------------------------------------------
                        XY            XZ            YZ
 --------------------------------------------------------
     1   Atom        0.012992     -0.000000     -0.000000
     2   Atom        0.029663     -0.000000     -0.000000
     3   Atom       -0.004138     -0.000000     -0.000000
     4   Atom       -0.004529     -0.000000      0.000000
     5   Atom       -0.001098     -0.000000     -0.000000
     6   Atom        0.001098     -0.000000      0.000000
     7   Atom        0.004529      0.000000     -0.000000
     8   Atom        0.004138     -0.000000      0.000000
     9   Atom       -0.029663     -0.000000     -0.000000
    10   Atom       -0.012992     -0.000000     -0.000000
 --------------------------------------------------------


 ---------------------------------------------------------------------------------
              Anisotropic Spin Dipole Couplings in Principal Axis System
 ---------------------------------------------------------------------------------

       Atom             a.u.   MegaHertz   Gauss  10(-4) cm-1        Axes

              Baa    -0.0225   -11.981    -4.275    -3.996  0.0000  0.0000  1.0000
     1 H(1)   Bbb    -0.0048    -2.563    -0.915    -0.855 -0.4550  0.8905  0.0000
              Bcc     0.0273    14.545     5.190     4.852  0.8905  0.4550  0.0000
 
              Baa    -0.0301   -16.047    -5.726    -5.353  0.0000  0.0000  1.0000
     2 H(1)   Bbb    -0.0152    -8.136    -2.903    -2.714 -0.6318  0.7752  0.0000
              Bcc     0.0453    24.182     8.629     8.066  0.7752  0.6318  0.0000
 
              Baa    -0.0246   -13.142    -4.689    -4.384  0.0000  0.0000  1.0000
     3 H(1)   Bbb     0.0078     4.166     1.487     1.390  0.8355  0.5495  0.0000
              Bcc     0.0168     8.976     3.203     2.994 -0.5495  0.8355  0.0000
 
              Baa    -0.0056    -3.006    -1.072    -1.003  0.0000  0.0000  1.0000
     4 H(1)   Bbb    -0.0017    -0.921    -0.328    -0.307  0.7333  0.6799  0.0000
              Bcc     0.0074     3.926     1.401     1.310 -0.6799  0.7333  0.0000
 
              Baa    -0.0072    -3.849    -1.373    -1.284  0.9973  0.0736  0.0000
     5 H(1)   Bbb    -0.0005    -0.287    -0.102    -0.096  0.0000  0.0000  1.0000
              Bcc     0.0078     4.136     1.476     1.379 -0.0736  0.9973  0.0000
 
              Baa    -0.0078    -4.136    -1.476    -1.379 -0.0736  0.9973  0.0000
     6 H(1)   Bbb     0.0005     0.287     0.102     0.096  0.0000  0.0000  1.0000
              Bcc     0.0072     3.849     1.373     1.284  0.9973  0.0736  0.0000
 
              Baa    -0.0074    -3.926    -1.401    -1.310 -0.6799  0.7333  0.0000
     7 H(1)   Bbb     0.0017     0.921     0.328     0.307  0.7333  0.6799  0.0000
              Bcc     0.0056     3.006     1.072     1.003  0.0000  0.0000  1.0000
 
              Baa    -0.0168    -8.976    -3.203    -2.994 -0.5495  0.8355  0.0000
     8 H(1)   Bbb    -0.0078    -4.166    -1.487    -1.390  0.8355  0.5495  0.0000
              Bcc     0.0246    13.142     4.689     4.384  0.0000  0.0000  1.0000
 
              Baa    -0.0453   -24.182    -8.629    -8.066  0.7752  0.6318  0.0000
     9 H(1)   Bbb     0.0152     8.136     2.903     2.714 -0.6318  0.7752 -0.0000
              Bcc     0.0301    16.047     5.726     5.353  0.0000  0.0000  1.0000
 
              Baa    -0.0273   -14.545    -5.190    -4.852  0.8905  0.4550  0.0000
    10 H(1)   Bbb     0.0048     2.563     0.915     0.855 -0.4550  0.8905  0.0000
              Bcc     0.0225    11.981     4.275     3.996  0.0000  0.0000  1.0000
 

 ---------------------------------------------------------------------------------


 Test job not archived.
 1\1\GINC-SULU\Stability\UHF\Gen\H10\LCJ1\23-Feb-2017\0\\#uhf/gen scf(t
 ight,novaracc,noincfock,fulldiag) stable(crhf) guess=(read,mix)geom=no
 crowd test\\hf stability analysis of h10 triangular lattice, y= 0.9802
 4092421724396\\0,1\H\H,1,1.1435817798\H,1,1.1435817798,2,62.\H,2,1.143
 5817798,1,118.,3,0.,0\H,3,1.1435817798,1,180.,2,0.,0\H,4,1.1435817798,
 2,180.,1,0.,0\H,5,1.1435817798,3,180.,2,0.,0\H,6,1.1435817798,4,180.,1
 ,0.,0\H,7,1.1435817798,5,180.,2,0.,0\H,8,1.1435817798,6,180.,1,0.,0\\V
 ersion=ES64L-G09RevE.01\HF=-4.8783657\MP2=-4.9655922\PUHF=-4.8959119\P
 MP2-0=-4.982263\S2=0.541931\S2-1=0.486679\S2A=0.023373\RMSD=2.477e-09\
 Dipole=0.,0.,0.\Quadrupole=-0.4453143,1.2508862,-0.8055719,0.,-1.50103
 79,0.\PG=C02H [SGH(H10)]\\@


 THE MOST SERIOUS THREAT TO THE SURVIVAL OF MANKIND IS NOT NOW
 IGNORANCE IN THE TRADITIONAL SENSE,
 BUT A MORALLY NEUTRAL, AN INSENSITIVE OR INHIBITED HUMAN INTELLIGENCE.

                     -- MARGO JEFFERSON IN NEWSWEEK, SEPTEMBER 2, 1974
 Job cpu time:       0 days  0 hours  0 minutes  1.3 seconds.
 File lengths (MBytes):  RWF=     94 Int=      0 D2E=      0 Chk=      2 Scr=      2
 Normal termination of Gaussian 09 at Thu Feb 23 15:45:31 2017.
