 Entering Gaussian System, Link 0=g09
 AtFile(1): H.gbs
            H     0
            S   10   1.00
               1000.000000000000            0.000068713567
                316.227766000000            0.000169141320
                100.000000000000            0.000823394812
                 31.622776600000            0.003425569236
                 10.000000000000            0.013951996000
                  3.162277660000            0.056909313560
                  1.000000000000            0.198286399900
                  0.316227766000            0.496922426700
                  0.100000000000            0.369846276400
                  0.031622776600            0.003752720039
            ****
 Initial command:
 /projects/guscus/apps/gau/g09-e1/g09/l1.exe "/users/lcj1/gaussian/h10/rhfstability/2rows/zmatrix/constarea/fwd/Gau-30097.inp" -scrdir="/users/lcj1/gaussian/h10/rhfstability/2rows/zmatrix/constarea/fwd/"
 Entering Link 1 = /projects/guscus/apps/gau/g09-e1/g09/l1.exe PID=     30098.
  
 Copyright (c) 1988,1990,1992,1993,1995,1998,2003,2009,2015,
            Gaussian, Inc.  All Rights Reserved.
  
 This is part of the Gaussian(R) 09 program.  It is based on
 the Gaussian(R) 03 system (copyright 2003, Gaussian, Inc.),
 the Gaussian(R) 98 system (copyright 1998, Gaussian, Inc.),
 the Gaussian(R) 94 system (copyright 1995, Gaussian, Inc.),
 the Gaussian 92(TM) system (copyright 1992, Gaussian, Inc.),
 the Gaussian 90(TM) system (copyright 1990, Gaussian, Inc.),
 the Gaussian 88(TM) system (copyright 1988, Gaussian, Inc.),
 the Gaussian 86(TM) system (copyright 1986, Carnegie Mellon
 University), and the Gaussian 82(TM) system (copyright 1983,
 Carnegie Mellon University). Gaussian is a federally registered
 trademark of Gaussian, Inc.
  
 This software contains proprietary and confidential information,
 including trade secrets, belonging to Gaussian, Inc.
  
 This software is provided under written license and may be
 used, copied, transmitted, or stored only in accord with that
 written license.
  
 The following legend is applicable only to US Government
 contracts under FAR:
  
                    RESTRICTED RIGHTS LEGEND
  
 Use, reproduction and disclosure by the US Government is
 subject to restrictions as set forth in subparagraphs (a)
 and (c) of the Commercial Computer Software - Restricted
 Rights clause in FAR 52.227-19.
  
 Gaussian, Inc.
 340 Quinnipiac St., Bldg. 40, Wallingford CT 06492
  
  
 ---------------------------------------------------------------
 Warning -- This program may not be used in any manner that
 competes with the business of Gaussian, Inc. or will provide
 assistance to any competitor of Gaussian, Inc.  The licensee
 of this program is prohibited from giving any competitor of
 Gaussian, Inc. access to this program.  By using this program,
 the user acknowledges that Gaussian, Inc. is engaged in the
 business of creating and licensing software in the field of
 computational chemistry and represents and warrants to the
 licensee that it is not a competitor of Gaussian, Inc. and that
 it will not use this program in any manner prohibited above.
 ---------------------------------------------------------------
  

 Cite this work as:
 Gaussian 09, Revision E.01,
 M. J. Frisch, G. W. Trucks, H. B. Schlegel, G. E. Scuseria, 
 M. A. Robb, J. R. Cheeseman, G. Scalmani, V. Barone, B. Mennucci, 
 G. A. Petersson, H. Nakatsuji, M. Caricato, X. Li, H. P. Hratchian, 
 A. F. Izmaylov, J. Bloino, G. Zheng, J. L. Sonnenberg, M. Hada, 
 M. Ehara, K. Toyota, R. Fukuda, J. Hasegawa, M. Ishida, T. Nakajima, 
 Y. Honda, O. Kitao, H. Nakai, T. Vreven, J. A. Montgomery, Jr., 
 J. E. Peralta, F. Ogliaro, M. Bearpark, J. J. Heyd, E. Brothers, 
 K. N. Kudin, V. N. Staroverov, T. Keith, R. Kobayashi, J. Normand, 
 K. Raghavachari, A. Rendell, J. C. Burant, S. S. Iyengar, J. Tomasi, 
 M. Cossi, N. Rega, J. M. Millam, M. Klene, J. E. Knox, J. B. Cross, 
 V. Bakken, C. Adamo, J. Jaramillo, R. Gomperts, R. E. Stratmann, 
 O. Yazyev, A. J. Austin, R. Cammi, C. Pomelli, J. W. Ochterski, 
 R. L. Martin, K. Morokuma, V. G. Zakrzewski, G. A. Voth, 
 P. Salvador, J. J. Dannenberg, S. Dapprich, A. D. Daniels, 
 O. Farkas, J. B. Foresman, J. V. Ortiz, J. Cioslowski, 
 and D. J. Fox, Gaussian, Inc., Wallingford CT, 2013.
 
 ******************************************
 Gaussian 09:  ES64L-G09RevE.01 30-Nov-2015
                 9-Feb-2017 
 ******************************************
 %chk=h10.chk
 ----------------------------------------------------------------------
 #rhf/gen scf(symm,tight,novaracc,noincfock,fulldiag) stable(crhf) geom
 =nocrowd test
 ----------------------------------------------------------------------
 1/38=1/1;
 2/12=1,17=6,18=5,40=1/2;
 3/5=7,16=1,25=1,30=1,116=1/1,2,3;
 4/9=4/1;
 5/5=100002,15=2,16=1,32=2,38=1/2;
 8/6=1,10=90,11=11/1,4;
 9/8=4,13=1/2;
 6/7=2,8=2,9=2,10=2,28=1/1;
 99/5=1,9=1/99;
 ----------------------------------------------------------------------
 hf stability analysis of h10 triangular lattice, y= 1.6445705118746621
 ----------------------------------------------------------------------
 Symbolic Z-matrix:
 Charge =  0 Multiplicity = 1
 H
 H                    1     1.68162 
 H                    1     1.68162  2     24.1 
 H                    2     1.68162  1     155.9    3     0.       0
 H                    3     1.68162  1     180.     2     0.       0
 H                    4     1.68162  2     180.     1     0.       0
 H                    5     1.68162  3     180.     2     0.       0
 H                    6     1.68162  4     180.     1     0.       0
 H                    7     1.68162  5     180.     2     0.       0
 H                    8     1.68162  6     180.     1     0.       0
 
                          Input orientation:                          
 ---------------------------------------------------------------------
 Center     Atomic      Atomic             Coordinates (Angstroms)
 Number     Number       Type             X           Y           Z
 ---------------------------------------------------------------------
      1          1           0        0.000000    0.000000    0.000000
      2          1           0        0.000000    0.000000    1.681624
      3          1           0        0.686658    0.000000    1.535044
      4          1           0        0.686658    0.000000    3.216667
      5          1           0        1.373316    0.000000    3.070087
      6          1           0        1.373316    0.000000    4.751711
      7          1           0        2.059975    0.000000    4.605131
      8          1           0        2.059975    0.000000    6.286755
      9          1           0        2.746633    0.000000    6.140175
     10          1           0        2.746633    0.000000    7.821798
 ---------------------------------------------------------------------
                    Distance matrix (angstroms):
                    1          2          3          4          5
     1  H    0.000000
     2  H    1.681624   0.000000
     3  H    1.681624   0.702129   0.000000
     4  H    3.289141   1.681624   1.681624   0.000000
     5  H    3.363247   1.952903   1.681624   0.702129   0.000000
     6  H    4.946186   3.363247   3.289141   1.681624   1.681624
     7  H    5.044871   3.576365   3.363247   1.952903   1.681624
     8  H    6.615647   5.044871   4.946186   3.363247   3.289141
     9  H    6.726495   5.236666   5.044871   3.576365   3.363247
    10  H    8.290025   6.726495   6.615647   5.044871   4.946186
                    6          7          8          9         10
     6  H    0.000000
     7  H    0.702129   0.000000
     8  H    1.681624   1.681624   0.000000
     9  H    1.952903   1.681624   0.702129   0.000000
    10  H    3.363247   3.289141   1.681624   1.681624   0.000000
 Stoichiometry    H10
 Framework group  C2H[SGH(H10)]
 Deg. of freedom     9
 Full point group                 C2H     NOp   4
 Largest Abelian subgroup         C2H     NOp   4
 Largest concise Abelian subgroup C2      NOp   2
                         Standard orientation:                         
 ---------------------------------------------------------------------
 Center     Atomic      Atomic             Coordinates (Angstroms)
 Number     Number       Type             X           Y           Z
 ---------------------------------------------------------------------
      1          1           0        1.373316    3.910899    0.000000
      2          1           0        1.373316    2.229275    0.000000
      3          1           0        0.686658    2.375856    0.000000
      4          1           0        0.686658    0.694232    0.000000
      5          1           0        0.000000    0.840812    0.000000
      6          1           0       -0.000000   -0.840812    0.000000
      7          1           0       -0.686658   -0.694232    0.000000
      8          1           0       -0.686658   -2.375856    0.000000
      9          1           0       -1.373316   -2.229275    0.000000
     10          1           0       -1.373316   -3.910899    0.000000
 ---------------------------------------------------------------------
 Rotational constants (GHZ):    470.5742646      8.0154341      7.8811913
 General basis read from cards:  (5D, 7F)
 There are     5 symmetry adapted cartesian basis functions of AG  symmetry.
 There are     0 symmetry adapted cartesian basis functions of BG  symmetry.
 There are     0 symmetry adapted cartesian basis functions of AU  symmetry.
 There are     5 symmetry adapted cartesian basis functions of BU  symmetry.
 There are     5 symmetry adapted basis functions of AG  symmetry.
 There are     0 symmetry adapted basis functions of BG  symmetry.
 There are     0 symmetry adapted basis functions of AU  symmetry.
 There are     5 symmetry adapted basis functions of BU  symmetry.
    10 basis functions,   100 primitive gaussians,    10 cartesian basis functions
     5 alpha electrons        5 beta electrons
       nuclear repulsion energy        11.0247416876 Hartrees.
 NAtoms=   10 NActive=   10 NUniq=    5 SFac= 4.00D+00 NAtFMM=   60 NAOKFM=F Big=F
 Integral buffers will be    131072 words long.
 Regular integral format.
 Two-electron integral symmetry is turned on.
 One-electron integrals computed using PRISM.
 NBasis=    10 RedAO= T EigKep=  1.61D-01  NBF=     5     0     0     5
 NBsUse=    10 1.00D-06 EigRej= -1.00D+00 NBFU=     5     0     0     5
 ExpMin= 3.16D-02 ExpMax= 1.00D+03 ExpMxC= 1.00D+01 IAcc=3 IRadAn=         5 AccDes= 0.00D+00
 Harris functional with IExCor=  205 and IRadAn=       5 diagonalized for initial guess.
 HarFok:  IExCor=  205 AccDes= 0.00D+00 IRadAn=         5 IDoV= 1 UseB2=F ITyADJ=14
 ICtDFT=  3500011 ScaDFX=  1.000000  1.000000  1.000000  1.000000
 FoFCou: FMM=F IPFlag=           0 FMFlag=      100000 FMFlg1=           0
         NFxFlg=           0 DoJE=T BraDBF=F KetDBF=T FulRan=T
         wScrn=  0.000000 ICntrl=     500 IOpCl=  0 I1Cent=   200000004 NGrid=           0
         NMat0=    1 NMatS0=      1 NMatT0=    0 NMatD0=    1 NMtDS0=    0 NMtDT0=    0
 Petite list used in FoFCou.
 Initial guess orbital symmetries:
       Occupied  (AG) (BU) (AG) (BU) (AG)
       Virtual   (BU) (BU) (AG) (BU) (AG)
 The electronic state of the initial guess is 1-AG.
 Keep R1 ints in memory in symmetry-blocked form, NReq=874387.
 Requested convergence on RMS density matrix=1.00D-08 within 128 cycles.
 Requested convergence on MAX density matrix=1.00D-06.
 Requested convergence on             energy=1.00D-06.
 No special actions if energy rises.
 SCF Done:  E(RHF) =  -4.92118812563     A.U. after    8 cycles
            NFock=  8  Conv=0.78D-09     -V/T= 1.9789
 Range of M.O.s used for correlation:     1    10
 NBasis=    10 NAE=     5 NBE=     5 NFC=     0 NFV=     0
 NROrb=     10 NOA=     5 NOB=     5 NVA=     5 NVB=     5

 **** Warning!!: The smallest alpha delta epsilon is  0.70810691D-01

 Semi-Direct transformation.
 ModeAB=           4 MOrb=             5 LenV=     134112090
 LASXX=         1030 LTotXX=        1030 LenRXX=        2480
 LTotAB=        1450 MaxLAS=        1500 LenRXY=           0
 NonZer=        3510 LenScr=      655360 LnRSAI=        1500
 LnScr1=      655360 LExtra=           0 Total=      1314700
 MaxDsk=          -1 SrtSym=           T ITran=            3
 JobTyp=0 Pass  1:  I=   1 to   5.
 (rs|ai) integrals will be sorted in core.
 Spin components of T(2) and E(2):
     alpha-alpha T2 =       0.3233364115D-03 E2=     -0.6428636023D-03
     alpha-beta  T2 =       0.3682059260D+01 E2=     -0.5637252200D+00
     beta-beta   T2 =       0.3233364115D-03 E2=     -0.6428636023D-03
 ANorm=    0.2163956084D+01
 E2 =    -0.5650109472D+00 EUMP2 =    -0.54861990728158D+01
 Second order stability test of a single determinant RHF wave function:
 Stabil:  MDV=134217728
 ***********************************************************************
 Matrix         Lowest Root    Major Pairs
 ***********************************************************************
 Internal RHF     0.2919029    Stable
 RRHF --> CRHF    0.0042896    Stable
 RRHF --> RUHF   -0.5420047    5A=6B
 Not stable.
 ***********************************************************************

 **********************************************************************

            Population analysis using the SCF density.

 **********************************************************************

 Orbital symmetries:
       Occupied  (AG) (BU) (AG) (BU) (AG)
       Virtual   (BU) (BU) (AG) (BU) (AG)
 The electronic state is 1-AG.
 Alpha  occ. eigenvalues --   -0.75401  -0.70463  -0.62494  -0.52885  -0.17193
 Alpha virt. eigenvalues --   -0.10112   0.26861   0.36360   0.50656   0.64750
          Condensed to atoms (all electrons):
               1          2          3          4          5          6
     1  H    1.150899  -0.049362  -0.045899  -0.002755  -0.000010   0.000379
     2  H   -0.049362   0.651997   0.501362  -0.066629  -0.056180   0.000647
     3  H   -0.045899   0.501362   0.646300  -0.058508  -0.068308   0.000125
     4  H   -0.002755  -0.066629  -0.058508   0.709645   0.545481  -0.073857
     5  H   -0.000010  -0.056180  -0.068308   0.545481   0.707252  -0.064485
     6  H    0.000379   0.000647   0.000125  -0.073857  -0.064485   0.707252
     7  H    0.000175   0.001242   0.001129  -0.060046  -0.073857   0.545481
     8  H   -0.000035   0.000126   0.000157   0.001129   0.000125  -0.068308
     9  H   -0.000031   0.000085   0.000126   0.001242   0.000647  -0.056180
    10  H    0.000010  -0.000031  -0.000035   0.000175   0.000379  -0.000010
               7          8          9         10
     1  H    0.000175  -0.000035  -0.000031   0.000010
     2  H    0.001242   0.000126   0.000085  -0.000031
     3  H    0.001129   0.000157   0.000126  -0.000035
     4  H   -0.060046   0.001129   0.001242   0.000175
     5  H   -0.073857   0.000125   0.000647   0.000379
     6  H    0.545481  -0.068308  -0.056180  -0.000010
     7  H    0.709645  -0.058508  -0.066629  -0.002755
     8  H   -0.058508   0.646300   0.501362  -0.045899
     9  H   -0.066629   0.501362   0.651997  -0.049362
    10  H   -0.002755  -0.045899  -0.049362   1.150899
 Mulliken charges:
               1
     1  H   -0.053371
     2  H    0.016741
     3  H    0.023552
     4  H    0.004122
     5  H    0.008956
     6  H    0.008956
     7  H    0.004122
     8  H    0.023552
     9  H    0.016741
    10  H   -0.053371
 Sum of Mulliken charges =  -0.00000
 Mulliken charges with hydrogens summed into heavy atoms:
               1
 Electronic spatial extent (au):  <R**2>=            263.4528
 Charge=             -0.0000 electrons
 Dipole moment (field-independent basis, Debye):
    X=              0.0000    Y=              0.0000    Z=             -0.0000  Tot=              0.0000
 Quadrupole moment (field-independent basis, Debye-Ang):
   XX=            -12.7065   YY=            -23.0186   ZZ=            -13.0154
   XY=             -3.8825   XZ=             -0.0000   YZ=              0.0000
 Traceless Quadrupole moment (field-independent basis, Debye-Ang):
   XX=              3.5404   YY=             -6.7718   ZZ=              3.2314
   XY=             -3.8825   XZ=             -0.0000   YZ=              0.0000
 Octapole moment (field-independent basis, Debye-Ang**2):
  XXX=              0.0000  YYY=              0.0000  ZZZ=             -0.0000  XYY=              0.0000
  XXY=             -0.0000  XXZ=             -0.0000  XZZ=              0.0000  YZZ=             -0.0000
  YYZ=             -0.0000  XYZ=             -0.0000
 Hexadecapole moment (field-independent basis, Debye-Ang**3):
 XXXX=            -87.1490 YYYY=           -661.3755 ZZZZ=            -15.8317 XXXY=            -89.8820
 XXXZ=              0.0000 YYYX=           -159.2592 YYYZ=              0.0000 ZZZX=              0.0000
 ZZZY=              0.0000 XXYY=           -113.3466 XXZZ=            -17.5892 YYZZ=            -79.5611
 XXYZ=              0.0000 YYXZ=              0.0000 ZZXY=            -28.9243
 N-N= 1.102474168759D+01 E-N=-3.135031233090D+01  KE= 5.027159732241D+00
 Symmetry AG   KE= 2.841108011272D+00
 Symmetry BG   KE= 0.000000000000D+00
 Symmetry AU   KE= 0.000000000000D+00
 Symmetry BU   KE= 2.186051720969D+00

 Test job not archived.
 1\1\GINC-SULU\Stability\RHF\Gen\H10\LCJ1\09-Feb-2017\0\\#rhf/gen scf(s
 ymm,tight,novaracc,noincfock,fulldiag) stable(crhf) geom=nocrowd test\
 \hf stability analysis of h10 triangular lattice, y= 1.644570511874662
 1\\0,1\H\H,1,1.6816237475\H,1,1.6816237475,2,24.1\H,2,1.6816237475,1,1
 55.9,3,0.,0\H,3,1.6816237475,1,180.,2,0.,0\H,4,1.6816237475,2,180.,1,0
 .,0\H,5,1.6816237475,3,180.,2,0.,0\H,6,1.6816237475,4,180.,1,0.,0\H,7,
 1.6816237475,5,180.,2,0.,0\H,8,1.6816237475,6,180.,1,0.,0\\Version=ES6
 4L-G09RevE.01\State=1-AG\HF=-4.9211881\MP2=-5.4861991\RMSD=7.781e-10\D
 ipole=0.,0.,0.\Quadrupole=2.63217,2.4024722,-5.0346422,0.,-2.886507,0.
 \PG=C02H [SGH(H10)]\\@


 A ROPE OVER THE TOP OF A FENCE HAS THE SAME LENGTH ON EACH SIDE.
 WEIGHS 1/3 POUND PER FOOT.  ON ONE END HANGS A MONKEY HOLDING A
 BANANA, AND ON THE OTHER END A WEIGHT EQUAL TO THE WEIGHT
 OF THE MONKEY.  THE BANANA WEIGHS TWO OUNCES PER INCH.
 THE ROPE IS AS LONG AS THE AGE OF THE MONKEY, 
 AND THE WEIGHT OF THE MONKEY (IN OUNCES) IS AS MUCH
 AS THE AGE OF THE MONKEY'S MOTHER.  THE COMBINED AGES OF MONKEY
 AND MOTHER ARE THIRTY YEARS.  HALF THE WEIGHT OF THE MONKEY,
  PLUS THE WEIGHT OF THE BANANA, IS ONE FOURTH AS MUCH AS THE WEIGHT
 OF THE WEIGHT AND THE ROPE.
 THE MONKEY'S MOTHER IS HALF AS OLD AS THE MONKEY WILL BE
 WHEN IT IS 3 TIMES AS OLD AS ITS MOTHER WAS WHEN
 SHE WAS HALF AS OLD AS THE MONKEY WILL BE WHEN IT IS
 AS OLD AS ITS MOTHER WILL BE WHEN SHE IS 4 TIMES AS
 OLD AS THE MONKEY WAS WHEN IT WAS TWICE AS OLD AS 
 ITS MOTHER WAS WHEN SHE WAS ONE THIRD AS OLD AS THE
 MONKEY WAS WHEN IT WAS AS OLD AS ITS MOTHER WAS WHEN 
 SHE WAS 3 TIMES AS OLD AS THE MONKEY WAS WHEN IT WAS AS OLD AS ITS
 MOTHER WAS WHEN SHE WAS 3 TIMES AS OLD AS THE MONKEY 
 WAS WHEN IT WAS ONE FOURTH WAS OLD AS IT IS NOW.

 HOW LONG IS THE BANANA?
 Job cpu time:       0 days  0 hours  0 minutes  0.9 seconds.
 File lengths (MBytes):  RWF=     84 Int=      0 D2E=      0 Chk=      2 Scr=      2
 Normal termination of Gaussian 09 at Thu Feb  9 15:53:35 2017.
