 Entering Gaussian System, Link 0=g09
 AtFile(1): H.gbs
            H     0
            S   10   1.00
               1000.000000000000            0.000068713567
                316.227766000000            0.000169141320
                100.000000000000            0.000823394812
                 31.622776600000            0.003425569236
                 10.000000000000            0.013951996000
                  3.162277660000            0.056909313560
                  1.000000000000            0.198286399900
                  0.316227766000            0.496922426700
                  0.100000000000            0.369846276400
                  0.031622776600            0.003752720039
            ****
 Initial command:
 /projects/guscus/apps/gau/g09-e1/g09/l1.exe "/users/lcj1/gaussian/h10/rhfstability/2rows/zmatrix/constarea/fwd/Gau-3962.inp" -scrdir="/users/lcj1/gaussian/h10/rhfstability/2rows/zmatrix/constarea/fwd/"
 Entering Link 1 = /projects/guscus/apps/gau/g09-e1/g09/l1.exe PID=      3963.
  
 Copyright (c) 1988,1990,1992,1993,1995,1998,2003,2009,2015,
            Gaussian, Inc.  All Rights Reserved.
  
 This is part of the Gaussian(R) 09 program.  It is based on
 the Gaussian(R) 03 system (copyright 2003, Gaussian, Inc.),
 the Gaussian(R) 98 system (copyright 1998, Gaussian, Inc.),
 the Gaussian(R) 94 system (copyright 1995, Gaussian, Inc.),
 the Gaussian 92(TM) system (copyright 1992, Gaussian, Inc.),
 the Gaussian 90(TM) system (copyright 1990, Gaussian, Inc.),
 the Gaussian 88(TM) system (copyright 1988, Gaussian, Inc.),
 the Gaussian 86(TM) system (copyright 1986, Carnegie Mellon
 University), and the Gaussian 82(TM) system (copyright 1983,
 Carnegie Mellon University). Gaussian is a federally registered
 trademark of Gaussian, Inc.
  
 This software contains proprietary and confidential information,
 including trade secrets, belonging to Gaussian, Inc.
  
 This software is provided under written license and may be
 used, copied, transmitted, or stored only in accord with that
 written license.
  
 The following legend is applicable only to US Government
 contracts under FAR:
  
                    RESTRICTED RIGHTS LEGEND
  
 Use, reproduction and disclosure by the US Government is
 subject to restrictions as set forth in subparagraphs (a)
 and (c) of the Commercial Computer Software - Restricted
 Rights clause in FAR 52.227-19.
  
 Gaussian, Inc.
 340 Quinnipiac St., Bldg. 40, Wallingford CT 06492
  
  
 ---------------------------------------------------------------
 Warning -- This program may not be used in any manner that
 competes with the business of Gaussian, Inc. or will provide
 assistance to any competitor of Gaussian, Inc.  The licensee
 of this program is prohibited from giving any competitor of
 Gaussian, Inc. access to this program.  By using this program,
 the user acknowledges that Gaussian, Inc. is engaged in the
 business of creating and licensing software in the field of
 computational chemistry and represents and warrants to the
 licensee that it is not a competitor of Gaussian, Inc. and that
 it will not use this program in any manner prohibited above.
 ---------------------------------------------------------------
  

 Cite this work as:
 Gaussian 09, Revision E.01,
 M. J. Frisch, G. W. Trucks, H. B. Schlegel, G. E. Scuseria, 
 M. A. Robb, J. R. Cheeseman, G. Scalmani, V. Barone, B. Mennucci, 
 G. A. Petersson, H. Nakatsuji, M. Caricato, X. Li, H. P. Hratchian, 
 A. F. Izmaylov, J. Bloino, G. Zheng, J. L. Sonnenberg, M. Hada, 
 M. Ehara, K. Toyota, R. Fukuda, J. Hasegawa, M. Ishida, T. Nakajima, 
 Y. Honda, O. Kitao, H. Nakai, T. Vreven, J. A. Montgomery, Jr., 
 J. E. Peralta, F. Ogliaro, M. Bearpark, J. J. Heyd, E. Brothers, 
 K. N. Kudin, V. N. Staroverov, T. Keith, R. Kobayashi, J. Normand, 
 K. Raghavachari, A. Rendell, J. C. Burant, S. S. Iyengar, J. Tomasi, 
 M. Cossi, N. Rega, J. M. Millam, M. Klene, J. E. Knox, J. B. Cross, 
 V. Bakken, C. Adamo, J. Jaramillo, R. Gomperts, R. E. Stratmann, 
 O. Yazyev, A. J. Austin, R. Cammi, C. Pomelli, J. W. Ochterski, 
 R. L. Martin, K. Morokuma, V. G. Zakrzewski, G. A. Voth, 
 P. Salvador, J. J. Dannenberg, S. Dapprich, A. D. Daniels, 
 O. Farkas, J. B. Foresman, J. V. Ortiz, J. Cioslowski, 
 and D. J. Fox, Gaussian, Inc., Wallingford CT, 2013.
 
 ******************************************
 Gaussian 09:  ES64L-G09RevE.01 30-Nov-2015
                 9-Feb-2017 
 ******************************************
 %chk=h10.chk
 ----------------------------------------------------------------------
 #rhf/gen scf(symm,tight,novaracc,noincfock,fulldiag) stable(crhf) geom
 =nocrowd test
 ----------------------------------------------------------------------
 1/38=1/1;
 2/12=1,17=6,18=5,40=1/2;
 3/5=7,16=1,25=1,30=1,116=1/1,2,3;
 4/9=4/1;
 5/5=100002,15=2,16=1,32=2,38=1/2;
 8/6=1,10=90,11=11/1,4;
 9/8=4,13=1/2;
 6/7=2,8=2,9=2,10=2,28=1/1;
 99/5=1,9=1/99;
 ----------------------------------------------------------------------
 hf stability analysis of h10 triangular lattice, y= 0.9005060787134614
 4
 ----------------------------------------------------------------------
 Symbolic Z-matrix:
 Charge =  0 Multiplicity = 1
 H
 H                    1     1.10543 
 H                    1     1.10543  2     70.9 
 H                    2     1.10543  1     109.1    3     0.       0
 H                    3     1.10543  1     180.     2     0.       0
 H                    4     1.10543  2     180.     1     0.       0
 H                    5     1.10543  3     180.     2     0.       0
 H                    6     1.10543  4     180.     1     0.       0
 H                    7     1.10543  5     180.     2     0.       0
 H                    8     1.10543  6     180.     1     0.       0
 
                          Input orientation:                          
 ---------------------------------------------------------------------
 Center     Atomic      Atomic             Coordinates (Angstroms)
 Number     Number       Type             X           Y           Z
 ---------------------------------------------------------------------
      1          1           0        0.000000    0.000000    0.000000
      2          1           0        0.000000    0.000000    1.105428
      3          1           0        1.044573    0.000000    0.361716
      4          1           0        1.044573    0.000000    1.467144
      5          1           0        2.089146    0.000000    0.723432
      6          1           0        2.089146    0.000000    1.828860
      7          1           0        3.133719    0.000000    1.085148
      8          1           0        3.133719    0.000000    2.190576
      9          1           0        4.178293    0.000000    1.446864
     10          1           0        4.178293    0.000000    2.552292
 ---------------------------------------------------------------------
                    Distance matrix (angstroms):
                    1          2          3          4          5
     1  H    0.000000
     2  H    1.105428   0.000000
     3  H    1.105428   1.282280   0.000000
     4  H    1.801012   1.105428   1.105428   0.000000
     5  H    2.210856   2.123783   1.105428   1.282280   0.000000
     6  H    2.776556   2.210856   1.801012   1.105428   1.105428
     7  H    3.316284   3.133785   2.210856   2.123783   1.105428
     8  H    3.823457   3.316284   2.776556   2.210856   1.801012
     9  H    4.421713   4.192220   3.316284   3.133785   2.210856
    10  H    4.896154   4.421713   3.823457   3.316284   2.776556
                    6          7          8          9         10
     6  H    0.000000
     7  H    1.282280   0.000000
     8  H    1.105428   1.105428   0.000000
     9  H    2.123783   1.105428   1.282280   0.000000
    10  H    2.210856   1.801012   1.105428   1.105428   0.000000
 Stoichiometry    H10
 Framework group  C2H[SGH(H10)]
 Deg. of freedom     9
 Full point group                 C2H     NOp   4
 Largest Abelian subgroup         C2H     NOp   4
 Largest concise Abelian subgroup C2      NOp   2
                         Standard orientation:                         
 ---------------------------------------------------------------------
 Center     Atomic      Atomic             Coordinates (Angstroms)
 Number     Number       Type             X           Y           Z
 ---------------------------------------------------------------------
      1          1           0        2.089146    1.276146   -0.000000
      2          1           0        2.089146    0.170718   -0.000000
      3          1           0        1.044573    0.914430   -0.000000
      4          1           0        1.044573   -0.190998   -0.000000
      5          1           0       -0.000000    0.552714    0.000000
      6          1           0       -0.000000   -0.552714    0.000000
      7          1           0       -1.044573    0.190998   -0.000000
      8          1           0       -1.044573   -0.914430   -0.000000
      9          1           0       -2.089146   -0.170718   -0.000000
     10          1           0       -2.089146   -1.276146   -0.000000
 ---------------------------------------------------------------------
 Rotational constants (GHZ):    186.5934645     20.2143099     18.2384736
 General basis read from cards:  (5D, 7F)
 There are     5 symmetry adapted cartesian basis functions of AG  symmetry.
 There are     0 symmetry adapted cartesian basis functions of BG  symmetry.
 There are     0 symmetry adapted cartesian basis functions of AU  symmetry.
 There are     5 symmetry adapted cartesian basis functions of BU  symmetry.
 There are     5 symmetry adapted basis functions of AG  symmetry.
 There are     0 symmetry adapted basis functions of BG  symmetry.
 There are     0 symmetry adapted basis functions of AU  symmetry.
 There are     5 symmetry adapted basis functions of BU  symmetry.
    10 basis functions,   100 primitive gaussians,    10 cartesian basis functions
     5 alpha electrons        5 beta electrons
       nuclear repulsion energy        13.5310882970 Hartrees.
 NAtoms=   10 NActive=   10 NUniq=    5 SFac= 4.00D+00 NAtFMM=   60 NAOKFM=F Big=F
 Integral buffers will be    131072 words long.
 Regular integral format.
 Two-electron integral symmetry is turned on.
 One-electron integrals computed using PRISM.
 NBasis=    10 RedAO= T EigKep=  1.48D-01  NBF=     5     0     0     5
 NBsUse=    10 1.00D-06 EigRej= -1.00D+00 NBFU=     5     0     0     5
 ExpMin= 3.16D-02 ExpMax= 1.00D+03 ExpMxC= 1.00D+01 IAcc=3 IRadAn=         5 AccDes= 0.00D+00
 Harris functional with IExCor=  205 and IRadAn=       5 diagonalized for initial guess.
 HarFok:  IExCor=  205 AccDes= 0.00D+00 IRadAn=         5 IDoV= 1 UseB2=F ITyADJ=14
 ICtDFT=  3500011 ScaDFX=  1.000000  1.000000  1.000000  1.000000
 FoFCou: FMM=F IPFlag=           0 FMFlag=      100000 FMFlg1=           0
         NFxFlg=           0 DoJE=T BraDBF=F KetDBF=T FulRan=T
         wScrn=  0.000000 ICntrl=     500 IOpCl=  0 I1Cent=   200000004 NGrid=           0
         NMat0=    1 NMatS0=      1 NMatT0=    0 NMatD0=    1 NMtDS0=    0 NMtDT0=    0
 Petite list used in FoFCou.
 Initial guess orbital symmetries:
       Occupied  (AG) (BU) (AG) (BU) (BU)
       Virtual   (AG) (BU) (AG) (AG) (BU)
 The electronic state of the initial guess is 1-AG.
 Keep R1 ints in memory in symmetry-blocked form, NReq=879385.
 Requested convergence on RMS density matrix=1.00D-08 within 128 cycles.
 Requested convergence on MAX density matrix=1.00D-06.
 Requested convergence on             energy=1.00D-06.
 No special actions if energy rises.
 SCF Done:  E(RHF) =  -4.85981854065     A.U. after   10 cycles
            NFock= 10  Conv=0.62D-09     -V/T= 1.9418
 Range of M.O.s used for correlation:     1    10
 NBasis=    10 NAE=     5 NBE=     5 NFC=     0 NFV=     0
 NROrb=     10 NOA=     5 NOB=     5 NVA=     5 NVB=     5
 Semi-Direct transformation.
 ModeAB=           4 MOrb=             5 LenV=     134107176
 LASXX=         1030 LTotXX=        1030 LenRXX=        2480
 LTotAB=        1450 MaxLAS=        1500 LenRXY=           0
 NonZer=        3510 LenScr=      655360 LnRSAI=        1500
 LnScr1=      655360 LExtra=           0 Total=      1314700
 MaxDsk=          -1 SrtSym=           T ITran=            3
 JobTyp=0 Pass  1:  I=   1 to   5.
 (rs|ai) integrals will be sorted in core.
 Spin components of T(2) and E(2):
     alpha-alpha T2 =       0.6281803352D-02 E2=     -0.7727568429D-02
     alpha-beta  T2 =       0.7589868555D-01 E2=     -0.9756941405D-01
     beta-beta   T2 =       0.6281803352D-02 E2=     -0.7727568429D-02
 ANorm=    0.1043293963D+01
 E2 =    -0.1130245509D+00 EUMP2 =    -0.49728430915642D+01
 Second order stability test of a single determinant RHF wave function:
 Stabil:  MDV=134217728
 ***********************************************************************
 Matrix         Lowest Root    Major Pairs
 ***********************************************************************
 Internal RHF     0.048479     Stable
 RRHF --> CRHF   -0.0053301    5A=6A
 RRHF --> RUHF   -0.1256417    5A=6B
 Not stable.
 ***********************************************************************

 **********************************************************************

            Population analysis using the SCF density.

 **********************************************************************

 Orbital symmetries:
       Occupied  (AG) (BU) (AG) (BU) (BU)
       Virtual   (AG) (BU) (AG) (AG) (BU)
 The electronic state is 1-AG.
 Alpha  occ. eigenvalues --   -0.85682  -0.73950  -0.54721  -0.38265  -0.29623
 Alpha virt. eigenvalues --   -0.02247   0.22094   0.28617   0.53487   0.75913
          Condensed to atoms (all electrons):
               1          2          3          4          5          6
     1  H    1.016577   0.388707  -0.082232  -0.186998  -0.061135  -0.009021
     2  H    0.388707   0.684469  -0.077372  -0.056992  -0.101017   0.022512
     3  H   -0.082232  -0.077372   0.796115   0.147311   0.344208  -0.151756
     4  H   -0.186998  -0.056992   0.147311   1.184016  -0.003366   0.201411
     5  H   -0.061135  -0.101017   0.344208  -0.003366   0.951672  -0.183534
     6  H   -0.009021   0.022512  -0.151756   0.201411  -0.183534   0.951672
     7  H    0.020071   0.000015  -0.022569  -0.176926   0.201411  -0.003366
     8  H    0.005452   0.013450  -0.050165  -0.022569  -0.151756   0.344208
     9  H   -0.000668  -0.001127   0.013450   0.000015   0.022512  -0.101017
    10  H   -0.001121  -0.000668   0.005452   0.020071  -0.009021  -0.061135
               7          8          9         10
     1  H    0.020071   0.005452  -0.000668  -0.001121
     2  H    0.000015   0.013450  -0.001127  -0.000668
     3  H   -0.022569  -0.050165   0.013450   0.005452
     4  H   -0.176926  -0.022569   0.000015   0.020071
     5  H    0.201411  -0.151756   0.022512  -0.009021
     6  H   -0.003366   0.344208  -0.101017  -0.061135
     7  H    1.184016   0.147311  -0.056992  -0.186998
     8  H    0.147311   0.796115  -0.077372  -0.082232
     9  H   -0.056992  -0.077372   0.684469   0.388707
    10  H   -0.186998  -0.082232   0.388707   1.016577
 Mulliken charges:
               1
     1  H   -0.089634
     2  H    0.128022
     3  H    0.077558
     4  H   -0.105972
     5  H   -0.009975
     6  H   -0.009975
     7  H   -0.105972
     8  H    0.077558
     9  H    0.128022
    10  H   -0.089634
 Sum of Mulliken charges =   0.00000
 Mulliken charges with hydrogens summed into heavy atoms:
               1
 Electronic spatial extent (au):  <R**2>=            129.9393
 Charge=              0.0000 electrons
 Dipole moment (field-independent basis, Debye):
    X=              0.0000    Y=              0.0000    Z=             -0.0000  Tot=              0.0000
 Quadrupole moment (field-independent basis, Debye-Ang):
   XX=            -15.0189   YY=            -14.8118   ZZ=            -12.8811
   XY=             -1.8258   XZ=             -0.0000   YZ=             -0.0000
 Traceless Quadrupole moment (field-independent basis, Debye-Ang):
   XX=             -0.7816   YY=             -0.5745   ZZ=              1.3561
   XY=             -1.8258   XZ=             -0.0000   YZ=             -0.0000
 Octapole moment (field-independent basis, Debye-Ang**2):
  XXX=              0.0000  YYY=             -0.0000  ZZZ=              0.0000  XYY=              0.0000
  XXY=              0.0000  XXZ=              0.0000  XZZ=              0.0000  YZZ=             -0.0000
  YYZ=              0.0000  XYZ=              0.0000
 Hexadecapole moment (field-independent basis, Debye-Ang**3):
 XXXX=           -227.5789 YYYY=            -65.0567 ZZZZ=            -15.4929 XXXY=            -54.0279
 XXXZ=              0.0000 YYYX=            -33.2860 YYYZ=             -0.0000 ZZZX=             -0.0000
 ZZZY=              0.0000 XXYY=            -50.9959 XXZZ=            -35.2051 YYZZ=            -13.3933
 XXYZ=             -0.0000 YYXZ=             -0.0000 ZZXY=            -10.5965
 N-N= 1.353108829695D+01 E-N=-3.629699534023D+01  KE= 5.160010236801D+00
 Symmetry AG   KE= 1.499973971067D+00
 Symmetry BG   KE= 0.000000000000D+00
 Symmetry AU   KE= 0.000000000000D+00
 Symmetry BU   KE= 3.660036265734D+00

 Test job not archived.
 1\1\GINC-SULU\Stability\RHF\Gen\H10\LCJ1\09-Feb-2017\0\\#rhf/gen scf(s
 ymm,tight,novaracc,noincfock,fulldiag) stable(crhf) geom=nocrowd test\
 \hf stability analysis of h10 triangular lattice, y= 0.900506078713461
 44\\0,1\H\H,1,1.1054281593\H,1,1.1054281593,2,70.9\H,2,1.1054281593,1,
 109.1,3,0.,0\H,3,1.1054281593,1,180.,2,0.,0\H,4,1.1054281593,2,180.,1,
 0.,0\H,5,1.1054281593,3,180.,2,0.,0\H,6,1.1054281593,4,180.,1,0.,0\H,7
 ,1.1054281593,5,180.,2,0.,0\H,8,1.1054281593,6,180.,1,0.,0\\Version=ES
 64L-G09RevE.01\State=1-AG\HF=-4.8598185\MP2=-4.9728431\RMSD=6.215e-10\
 Dipole=0.,0.,0.\Quadrupole=-0.581106,1.0082499,-0.427144,0.,-1.3574655
 ,0.\PG=C02H [SGH(H10)]\\@


 IT IS A PROFOUNDLY ERRONEOUS TRUISM ... THAT WE SHOULD CULTIVATE
 THE HABIT OF THINKING OF WHAT WE ARE DOING.
 THE PRECISE OPPOSITE IS THE CASE.
 CIVILIZATION ADVANCES BY EXTENDING THE NUMBER OF IMPORTANT OPERATIONS
 WHICH WE CAN PERFORM WITHOUT THINKING ABOUT THEM.

                                    -- ALFRED NORTH WHITEHEAD
 Job cpu time:       0 days  0 hours  0 minutes  1.0 seconds.
 File lengths (MBytes):  RWF=     84 Int=      0 D2E=      0 Chk=      2 Scr=      2
 Normal termination of Gaussian 09 at Thu Feb  9 15:31:17 2017.
