 Entering Gaussian System, Link 0=g09
 AtFile(1): H.gbs
            H     0
            S   10   1.00
               1000.000000000000            0.000068713567
                316.227766000000            0.000169141320
                100.000000000000            0.000823394812
                 31.622776600000            0.003425569236
                 10.000000000000            0.013951996000
                  3.162277660000            0.056909313560
                  1.000000000000            0.198286399900
                  0.316227766000            0.496922426700
                  0.100000000000            0.369846276400
                  0.031622776600            0.003752720039
            ****
 Initial command:
 /projects/guscus/apps/gau/g09-e1/g09/l1.exe "/users/lcj1/gaussian/h10/rhfstability/2rows/zmatrix/constarea/fwd/Gau-26684.inp" -scrdir="/users/lcj1/gaussian/h10/rhfstability/2rows/zmatrix/constarea/fwd/"
 Entering Link 1 = /projects/guscus/apps/gau/g09-e1/g09/l1.exe PID=     26685.
  
 Copyright (c) 1988,1990,1992,1993,1995,1998,2003,2009,2015,
            Gaussian, Inc.  All Rights Reserved.
  
 This is part of the Gaussian(R) 09 program.  It is based on
 the Gaussian(R) 03 system (copyright 2003, Gaussian, Inc.),
 the Gaussian(R) 98 system (copyright 1998, Gaussian, Inc.),
 the Gaussian(R) 94 system (copyright 1995, Gaussian, Inc.),
 the Gaussian 92(TM) system (copyright 1992, Gaussian, Inc.),
 the Gaussian 90(TM) system (copyright 1990, Gaussian, Inc.),
 the Gaussian 88(TM) system (copyright 1988, Gaussian, Inc.),
 the Gaussian 86(TM) system (copyright 1986, Carnegie Mellon
 University), and the Gaussian 82(TM) system (copyright 1983,
 Carnegie Mellon University). Gaussian is a federally registered
 trademark of Gaussian, Inc.
  
 This software contains proprietary and confidential information,
 including trade secrets, belonging to Gaussian, Inc.
  
 This software is provided under written license and may be
 used, copied, transmitted, or stored only in accord with that
 written license.
  
 The following legend is applicable only to US Government
 contracts under FAR:
  
                    RESTRICTED RIGHTS LEGEND
  
 Use, reproduction and disclosure by the US Government is
 subject to restrictions as set forth in subparagraphs (a)
 and (c) of the Commercial Computer Software - Restricted
 Rights clause in FAR 52.227-19.
  
 Gaussian, Inc.
 340 Quinnipiac St., Bldg. 40, Wallingford CT 06492
  
  
 ---------------------------------------------------------------
 Warning -- This program may not be used in any manner that
 competes with the business of Gaussian, Inc. or will provide
 assistance to any competitor of Gaussian, Inc.  The licensee
 of this program is prohibited from giving any competitor of
 Gaussian, Inc. access to this program.  By using this program,
 the user acknowledges that Gaussian, Inc. is engaged in the
 business of creating and licensing software in the field of
 computational chemistry and represents and warrants to the
 licensee that it is not a competitor of Gaussian, Inc. and that
 it will not use this program in any manner prohibited above.
 ---------------------------------------------------------------
  

 Cite this work as:
 Gaussian 09, Revision E.01,
 M. J. Frisch, G. W. Trucks, H. B. Schlegel, G. E. Scuseria, 
 M. A. Robb, J. R. Cheeseman, G. Scalmani, V. Barone, B. Mennucci, 
 G. A. Petersson, H. Nakatsuji, M. Caricato, X. Li, H. P. Hratchian, 
 A. F. Izmaylov, J. Bloino, G. Zheng, J. L. Sonnenberg, M. Hada, 
 M. Ehara, K. Toyota, R. Fukuda, J. Hasegawa, M. Ishida, T. Nakajima, 
 Y. Honda, O. Kitao, H. Nakai, T. Vreven, J. A. Montgomery, Jr., 
 J. E. Peralta, F. Ogliaro, M. Bearpark, J. J. Heyd, E. Brothers, 
 K. N. Kudin, V. N. Staroverov, T. Keith, R. Kobayashi, J. Normand, 
 K. Raghavachari, A. Rendell, J. C. Burant, S. S. Iyengar, J. Tomasi, 
 M. Cossi, N. Rega, J. M. Millam, M. Klene, J. E. Knox, J. B. Cross, 
 V. Bakken, C. Adamo, J. Jaramillo, R. Gomperts, R. E. Stratmann, 
 O. Yazyev, A. J. Austin, R. Cammi, C. Pomelli, J. W. Ochterski, 
 R. L. Martin, K. Morokuma, V. G. Zakrzewski, G. A. Voth, 
 P. Salvador, J. J. Dannenberg, S. Dapprich, A. D. Daniels, 
 O. Farkas, J. B. Foresman, J. V. Ortiz, J. Cioslowski, 
 and D. J. Fox, Gaussian, Inc., Wallingford CT, 2013.
 
 ******************************************
 Gaussian 09:  ES64L-G09RevE.01 30-Nov-2015
                 9-Feb-2017 
 ******************************************
 %chk=h10.chk
 ----------------------------------------------------------------------
 #rhf/gen scf(symm,tight,novaracc,noincfock,fulldiag) stable(crhf) geom
 =nocrowd test
 ----------------------------------------------------------------------
 1/38=1/1;
 2/12=1,17=6,18=5,40=1/2;
 3/5=7,16=1,25=1,30=1,116=1/1,2,3;
 4/9=4/1;
 5/5=100002,15=2,16=1,32=2,38=1/2;
 8/6=1,10=90,11=11/1,4;
 9/8=4,13=1/2;
 6/7=2,8=2,9=2,10=2,28=1/1;
 99/5=1,9=1/99;
 ----------------------------------------------------------------------
 hf stability analysis of h10 triangular lattice, y= 0.8156821057826055
 8
 ----------------------------------------------------------------------
 Symbolic Z-matrix:
 Charge =  0 Multiplicity = 1
 H
 H                    1     1.07997 
 H                    1     1.07997  2     81.9 
 H                    2     1.07997  1     98.1     3     0.       0
 H                    3     1.07997  1     180.     2     0.       0
 H                    4     1.07997  2     180.     1     0.       0
 H                    5     1.07997  3     180.     2     0.       0
 H                    6     1.07997  4     180.     1     0.       0
 H                    7     1.07997  5     180.     2     0.       0
 H                    8     1.07997  6     180.     1     0.       0
 
                          Input orientation:                          
 ---------------------------------------------------------------------
 Center     Atomic      Atomic             Coordinates (Angstroms)
 Number     Number       Type             X           Y           Z
 ---------------------------------------------------------------------
      1          1           0        0.000000    0.000000    0.000000
      2          1           0        0.000000    0.000000    1.079971
      3          1           0        1.069196    0.000000    0.152169
      4          1           0        1.069196    0.000000    1.232140
      5          1           0        2.138393    0.000000    0.304338
      6          1           0        2.138393    0.000000    1.384309
      7          1           0        3.207589    0.000000    0.456508
      8          1           0        3.207589    0.000000    1.536478
      9          1           0        4.276785    0.000000    0.608677
     10          1           0        4.276785    0.000000    1.688647
 ---------------------------------------------------------------------
                    Distance matrix (angstroms):
                    1          2          3          4          5
     1  H    0.000000
     2  H    1.079971   0.000000
     3  H    1.079971   1.415626   0.000000
     4  H    1.631364   1.079971   1.079971   0.000000
     5  H    2.159941   2.274715   1.079971   1.415626   0.000000
     6  H    2.547358   2.159941   1.631364   1.079971   1.079971
     7  H    3.239912   3.267619   2.159941   2.274715   1.079971
     8  H    3.556598   3.239912   2.547358   2.159941   1.631364
     9  H    4.319882   4.302675   3.239912   3.267619   2.159941
    10  H    4.598089   4.319882   3.556598   3.239912   2.547358
                    6          7          8          9         10
     6  H    0.000000
     7  H    1.415626   0.000000
     8  H    1.079971   1.079971   0.000000
     9  H    2.274715   1.079971   1.415626   0.000000
    10  H    2.159941   1.631364   1.079971   1.079971   0.000000
 Stoichiometry    H10
 Framework group  C2H[SGH(H10)]
 Deg. of freedom     9
 Full point group                 C2H     NOp   4
 Largest Abelian subgroup         C2H     NOp   4
 Largest concise Abelian subgroup C2      NOp   2
                         Standard orientation:                         
 ---------------------------------------------------------------------
 Center     Atomic      Atomic             Coordinates (Angstroms)
 Number     Number       Type             X           Y           Z
 ---------------------------------------------------------------------
      1          1           0        2.138393    0.844324   -0.000000
      2          1           0        2.138393   -0.235647   -0.000000
      3          1           0        1.069196    0.692154   -0.000000
      4          1           0        1.069196   -0.387816   -0.000000
      5          1           0        0.000000    0.539985    0.000000
      6          1           0       -0.000000   -0.539985    0.000000
      7          1           0       -1.069196    0.387816   -0.000000
      8          1           0       -1.069196   -0.692154   -0.000000
      9          1           0       -2.138393    0.235647   -0.000000
     10          1           0       -2.138393   -0.844324   -0.000000
 ---------------------------------------------------------------------
 Rotational constants (GHZ):    175.9556158     21.4364185     19.1084621
 General basis read from cards:  (5D, 7F)
 There are     5 symmetry adapted cartesian basis functions of AG  symmetry.
 There are     0 symmetry adapted cartesian basis functions of BG  symmetry.
 There are     0 symmetry adapted cartesian basis functions of AU  symmetry.
 There are     5 symmetry adapted cartesian basis functions of BU  symmetry.
 There are     5 symmetry adapted basis functions of AG  symmetry.
 There are     0 symmetry adapted basis functions of BG  symmetry.
 There are     0 symmetry adapted basis functions of AU  symmetry.
 There are     5 symmetry adapted basis functions of BU  symmetry.
    10 basis functions,   100 primitive gaussians,    10 cartesian basis functions
     5 alpha electrons        5 beta electrons
       nuclear repulsion energy        13.7116014546 Hartrees.
 NAtoms=   10 NActive=   10 NUniq=    5 SFac= 4.00D+00 NAtFMM=   60 NAOKFM=F Big=F
 Integral buffers will be    131072 words long.
 Regular integral format.
 Two-electron integral symmetry is turned on.
 One-electron integrals computed using PRISM.
 NBasis=    10 RedAO= T EigKep=  1.26D-01  NBF=     5     0     0     5
 NBsUse=    10 1.00D-06 EigRej= -1.00D+00 NBFU=     5     0     0     5
 ExpMin= 3.16D-02 ExpMax= 1.00D+03 ExpMxC= 1.00D+01 IAcc=3 IRadAn=         5 AccDes= 0.00D+00
 Harris functional with IExCor=  205 and IRadAn=       5 diagonalized for initial guess.
 HarFok:  IExCor=  205 AccDes= 0.00D+00 IRadAn=         5 IDoV= 1 UseB2=F ITyADJ=14
 ICtDFT=  3500011 ScaDFX=  1.000000  1.000000  1.000000  1.000000
 FoFCou: FMM=F IPFlag=           0 FMFlag=      100000 FMFlg1=           0
         NFxFlg=           0 DoJE=T BraDBF=F KetDBF=T FulRan=T
         wScrn=  0.000000 ICntrl=     500 IOpCl=  0 I1Cent=   200000004 NGrid=           0
         NMat0=    1 NMatS0=      1 NMatT0=    0 NMatD0=    1 NMtDS0=    0 NMtDT0=    0
 Petite list used in FoFCou.
 Initial guess orbital symmetries:
       Occupied  (AG) (BU) (AG) (BU) (AG)
       Virtual   (BU) (BU) (AG) (AG) (BU)
 The electronic state of the initial guess is 1-AG.
 Keep R1 ints in memory in symmetry-blocked form, NReq=879371.
 Requested convergence on RMS density matrix=1.00D-08 within 128 cycles.
 Requested convergence on MAX density matrix=1.00D-06.
 Requested convergence on             energy=1.00D-06.
 No special actions if energy rises.
 SCF Done:  E(RHF) =  -4.87747714061     A.U. after   10 cycles
            NFock= 10  Conv=0.60D-08     -V/T= 1.9559
 Range of M.O.s used for correlation:     1    10
 NBasis=    10 NAE=     5 NBE=     5 NFC=     0 NFV=     0
 NROrb=     10 NOA=     5 NOB=     5 NVA=     5 NVB=     5
 Semi-Direct transformation.
 ModeAB=           4 MOrb=             5 LenV=     134107148
 LASXX=         1030 LTotXX=        1030 LenRXX=        2480
 LTotAB=        1450 MaxLAS=        1500 LenRXY=           0
 NonZer=        3510 LenScr=      655360 LnRSAI=        1500
 LnScr1=      655360 LExtra=           0 Total=      1314700
 MaxDsk=          -1 SrtSym=           T ITran=            3
 JobTyp=0 Pass  1:  I=   1 to   5.
 (rs|ai) integrals will be sorted in core.
 Spin components of T(2) and E(2):
     alpha-alpha T2 =       0.6917089297D-02 E2=     -0.9066760493D-02
     alpha-beta  T2 =       0.6229217189D-01 E2=     -0.8742458161D-01
     beta-beta   T2 =       0.6917089297D-02 E2=     -0.9066760493D-02
 ANorm=    0.1037365100D+01
 E2 =    -0.1055581026D+00 EUMP2 =    -0.49830352432084D+01
 Second order stability test of a single determinant RHF wave function:
 Stabil:  MDV=134217728
 ***********************************************************************
 Matrix         Lowest Root    Major Pairs
 ***********************************************************************
 Internal RHF     0.0608961    Stable
 RRHF --> CRHF    0.0024282    Stable
 RRHF --> RUHF   -0.1376161    5A=6B
 Not stable.
 ***********************************************************************

 **********************************************************************

            Population analysis using the SCF density.

 **********************************************************************

 Orbital symmetries:
       Occupied  (AG) (BU) (AG) (BU) (AG)
       Virtual   (BU) (BU) (AG) (AG) (BU)
 The electronic state is 1-AG.
 Alpha  occ. eigenvalues --   -0.87534  -0.74392  -0.52731  -0.46340  -0.30689
 Alpha virt. eigenvalues --   -0.01885   0.16030   0.35470   0.51940   0.87241
          Condensed to atoms (all electrons):
               1          2          3          4          5          6
     1  H    0.734505  -0.056353   0.437746  -0.145109  -0.005357  -0.044091
     2  H   -0.056353   0.882910  -0.178496   0.462990  -0.080727  -0.024042
     3  H    0.437746  -0.178496   1.029614  -0.372396   0.230219  -0.082464
     4  H   -0.145109   0.462990  -0.372396   1.052696  -0.140004   0.208164
     5  H   -0.005357  -0.080727   0.230219  -0.140004   0.853516   0.097434
     6  H   -0.044091  -0.024042  -0.082464   0.208164   0.097434   0.853516
     7  H   -0.011258   0.007630  -0.043060   0.015508   0.208164  -0.140004
     8  H    0.005346  -0.012740   0.017781  -0.043060  -0.082464   0.230219
     9  H   -0.000639   0.003583  -0.012740   0.007630  -0.024042  -0.080727
    10  H    0.001731  -0.000639   0.005346  -0.011258  -0.044091  -0.005357
               7          8          9         10
     1  H   -0.011258   0.005346  -0.000639   0.001731
     2  H    0.007630  -0.012740   0.003583  -0.000639
     3  H   -0.043060   0.017781  -0.012740   0.005346
     4  H    0.015508  -0.043060   0.007630  -0.011258
     5  H    0.208164  -0.082464  -0.024042  -0.044091
     6  H   -0.140004   0.230219  -0.080727  -0.005357
     7  H    1.052696  -0.372396   0.462990  -0.145109
     8  H   -0.372396   1.029614  -0.178496   0.437746
     9  H    0.462990  -0.178496   0.882910  -0.056353
    10  H   -0.145109   0.437746  -0.056353   0.734505
 Mulliken charges:
               1
     1  H    0.083479
     2  H   -0.004118
     3  H   -0.031551
     4  H   -0.035161
     5  H   -0.012648
     6  H   -0.012648
     7  H   -0.035161
     8  H   -0.031551
     9  H   -0.004118
    10  H    0.083479
 Sum of Mulliken charges =   0.00000
 Mulliken charges with hydrogens summed into heavy atoms:
               1
 Electronic spatial extent (au):  <R**2>=            123.5761
 Charge=             -0.0000 electrons
 Dipole moment (field-independent basis, Debye):
    X=             -0.0000    Y=              0.0000    Z=             -0.0000  Tot=              0.0000
 Quadrupole moment (field-independent basis, Debye-Ang):
   XX=            -10.2192   YY=            -16.9889   ZZ=            -12.9576
   XY=              2.0710   XZ=             -0.0000   YZ=             -0.0000
 Traceless Quadrupole moment (field-independent basis, Debye-Ang):
   XX=              3.1694   YY=             -3.6004   ZZ=              0.4310
   XY=              2.0710   XZ=             -0.0000   YZ=             -0.0000
 Octapole moment (field-independent basis, Debye-Ang**2):
  XXX=             -0.0000  YYY=             -0.0000  ZZZ=              0.0000  XYY=              0.0000
  XXY=              0.0000  XXZ=              0.0000  XZZ=              0.0000  YZZ=             -0.0000
  YYZ=              0.0000  XYZ=             -0.0000
 Hexadecapole moment (field-independent basis, Debye-Ang**3):
 XXXX=           -161.2434 YYYY=            -53.8841 ZZZZ=            -15.6519 XXXY=              1.0827
 XXXZ=              0.0000 YYYX=            -13.2310 YYYZ=              0.0000 ZZZX=              0.0000
 ZZZY=              0.0000 XXYY=            -45.1800 XXZZ=            -34.9364 YYZZ=            -11.2589
 XXYZ=             -0.0000 YYXZ=              0.0000 ZZXY=             -3.7661
 N-N= 1.371160145463D+01 E-N=-3.644678607409D+01  KE= 5.102365252350D+00
 Symmetry AG   KE= 3.159565620993D+00
 Symmetry BG   KE= 0.000000000000D+00
 Symmetry AU   KE= 0.000000000000D+00
 Symmetry BU   KE= 1.942799631357D+00

 Test job not archived.
 1\1\GINC-SULU\Stability\RHF\Gen\H10\LCJ1\09-Feb-2017\0\\#rhf/gen scf(s
 ymm,tight,novaracc,noincfock,fulldiag) stable(crhf) geom=nocrowd test\
 \hf stability analysis of h10 triangular lattice, y= 0.815682105782605
 58\\0,1\H\H,1,1.0799705165\H,1,1.0799705165,2,81.9\H,2,1.0799705165,1,
 98.1,3,0.,0\H,3,1.0799705165,1,180.,2,0.,0\H,4,1.0799705165,2,180.,1,0
 .,0\H,5,1.0799705165,3,180.,2,0.,0\H,6,1.0799705165,4,180.,1,0.,0\H,7,
 1.0799705165,5,180.,2,0.,0\H,8,1.0799705165,6,180.,1,0.,0\\Version=ES6
 4L-G09RevE.01\State=1-AG\HF=-4.8774771\MP2=-4.9830352\RMSD=5.993e-09\D
 ipole=0.,0.,0.\Quadrupole=2.3563777,0.3204126,-2.6767904,0.,1.5397263,
 0.\PG=C02H [SGH(H10)]\\@


 10 WHATSOEVER THY HAND FINDETH TO DO, DO IT WITH THY  
 MIGHT. FOR THERE IS NO WORK, NOR DEVICE, NOR KNOWLEDGE, NOR  
 WISDOM, IN THE GRAVE, WHITHER THOU GOEST.                    
 11 I RETURNED AND SAW UNDER THE SUN, THAT THE RACE IS NOT TO 
 THE SWIFT, NOR THE BATTLE TO THE STRONG, NEITHER YET BREAD TO
 THE WISE, NOR YET RICHES TO MEN OF UNDERSTANDING, NOR YET    
 FAVOR TO MEN OF SKILL. BUT TIME AND CHANCE HAPPEN TO THEM ALL.
 12 FOR MAN ALSO KNOWETH NOT HIS TIME. AS THE FISHES   
 THAT ARE TAKEN IN AN EVIL NET, AND AS THE BIRDS THAT ARE     
 CAUGHT IN THE SNARE. SO ARE THE SONS OF MEN SNARED IN AN EVIL
 TIME, WHEN IT FALLETH SUDDENLY UPON THEM.
                                         ECCLESIASTES 9
 Job cpu time:       0 days  0 hours  0 minutes  1.0 seconds.
 File lengths (MBytes):  RWF=     84 Int=      0 D2E=      0 Chk=      2 Scr=      2
 Normal termination of Gaussian 09 at Thu Feb  9 15:26:31 2017.
