 Entering Gaussian System, Link 0=g09
 AtFile(1): H.gbs
            H     0
            S   10   1.00
               1000.000000000000            0.000068713567
                316.227766000000            0.000169141320
                100.000000000000            0.000823394812
                 31.622776600000            0.003425569236
                 10.000000000000            0.013951996000
                  3.162277660000            0.056909313560
                  1.000000000000            0.198286399900
                  0.316227766000            0.496922426700
                  0.100000000000            0.369846276400
                  0.031622776600            0.003752720039
            ****
 Initial command:
 /projects/guscus/apps/gau/g09-e1/g09/l1.exe "/users/lcj1/gaussian/h10/rhfstability/2rows/zmatrix/constarea/fwd/Gau-12192.inp" -scrdir="/users/lcj1/gaussian/h10/rhfstability/2rows/zmatrix/constarea/fwd/"
 Entering Link 1 = /projects/guscus/apps/gau/g09-e1/g09/l1.exe PID=     12193.
  
 Copyright (c) 1988,1990,1992,1993,1995,1998,2003,2009,2015,
            Gaussian, Inc.  All Rights Reserved.
  
 This is part of the Gaussian(R) 09 program.  It is based on
 the Gaussian(R) 03 system (copyright 2003, Gaussian, Inc.),
 the Gaussian(R) 98 system (copyright 1998, Gaussian, Inc.),
 the Gaussian(R) 94 system (copyright 1995, Gaussian, Inc.),
 the Gaussian 92(TM) system (copyright 1992, Gaussian, Inc.),
 the Gaussian 90(TM) system (copyright 1990, Gaussian, Inc.),
 the Gaussian 88(TM) system (copyright 1988, Gaussian, Inc.),
 the Gaussian 86(TM) system (copyright 1986, Carnegie Mellon
 University), and the Gaussian 82(TM) system (copyright 1983,
 Carnegie Mellon University). Gaussian is a federally registered
 trademark of Gaussian, Inc.
  
 This software contains proprietary and confidential information,
 including trade secrets, belonging to Gaussian, Inc.
  
 This software is provided under written license and may be
 used, copied, transmitted, or stored only in accord with that
 written license.
  
 The following legend is applicable only to US Government
 contracts under FAR:
  
                    RESTRICTED RIGHTS LEGEND
  
 Use, reproduction and disclosure by the US Government is
 subject to restrictions as set forth in subparagraphs (a)
 and (c) of the Commercial Computer Software - Restricted
 Rights clause in FAR 52.227-19.
  
 Gaussian, Inc.
 340 Quinnipiac St., Bldg. 40, Wallingford CT 06492
  
  
 ---------------------------------------------------------------
 Warning -- This program may not be used in any manner that
 competes with the business of Gaussian, Inc. or will provide
 assistance to any competitor of Gaussian, Inc.  The licensee
 of this program is prohibited from giving any competitor of
 Gaussian, Inc. access to this program.  By using this program,
 the user acknowledges that Gaussian, Inc. is engaged in the
 business of creating and licensing software in the field of
 computational chemistry and represents and warrants to the
 licensee that it is not a competitor of Gaussian, Inc. and that
 it will not use this program in any manner prohibited above.
 ---------------------------------------------------------------
  

 Cite this work as:
 Gaussian 09, Revision E.01,
 M. J. Frisch, G. W. Trucks, H. B. Schlegel, G. E. Scuseria, 
 M. A. Robb, J. R. Cheeseman, G. Scalmani, V. Barone, B. Mennucci, 
 G. A. Petersson, H. Nakatsuji, M. Caricato, X. Li, H. P. Hratchian, 
 A. F. Izmaylov, J. Bloino, G. Zheng, J. L. Sonnenberg, M. Hada, 
 M. Ehara, K. Toyota, R. Fukuda, J. Hasegawa, M. Ishida, T. Nakajima, 
 Y. Honda, O. Kitao, H. Nakai, T. Vreven, J. A. Montgomery, Jr., 
 J. E. Peralta, F. Ogliaro, M. Bearpark, J. J. Heyd, E. Brothers, 
 K. N. Kudin, V. N. Staroverov, T. Keith, R. Kobayashi, J. Normand, 
 K. Raghavachari, A. Rendell, J. C. Burant, S. S. Iyengar, J. Tomasi, 
 M. Cossi, N. Rega, J. M. Millam, M. Klene, J. E. Knox, J. B. Cross, 
 V. Bakken, C. Adamo, J. Jaramillo, R. Gomperts, R. E. Stratmann, 
 O. Yazyev, A. J. Austin, R. Cammi, C. Pomelli, J. W. Ochterski, 
 R. L. Martin, K. Morokuma, V. G. Zakrzewski, G. A. Voth, 
 P. Salvador, J. J. Dannenberg, S. Dapprich, A. D. Daniels, 
 O. Farkas, J. B. Foresman, J. V. Ortiz, J. Cioslowski, 
 and D. J. Fox, Gaussian, Inc., Wallingford CT, 2013.
 
 ******************************************
 Gaussian 09:  ES64L-G09RevE.01 30-Nov-2015
                 9-Feb-2017 
 ******************************************
 %chk=h10.chk
 ----------------------------------------------------------------------
 #rhf/gen scf(symm,tight,novaracc,noincfock,fulldiag) stable(crhf) geom
 =nocrowd test
 ----------------------------------------------------------------------
 1/38=1/1;
 2/12=1,17=6,18=5,40=1/2;
 3/5=7,16=1,25=1,30=1,116=1/1,2,3;
 4/9=4/1;
 5/5=100002,15=2,16=1,32=2,38=1/2;
 8/6=1,10=90,11=11/1,4;
 9/8=4,13=1/2;
 6/7=2,8=2,9=2,10=2,28=1/1;
 99/5=1,9=1/99;
 ----------------------------------------------------------------------
 hf stability analysis of h10 triangular lattice, y= 2.2423922311771953
 ----------------------------------------------------------------------
 Symbolic Z-matrix:
 Charge =  0 Multiplicity = 1
 H
 H                    1     2.25713 
 H                    1     2.25713  2     13.1 
 H                    2     2.25713  1     166.9    3     0.       0
 H                    3     2.25713  1     180.     2     0.       0
 H                    4     2.25713  2     180.     1     0.       0
 H                    5     2.25713  3     180.     2     0.       0
 H                    6     2.25713  4     180.     1     0.       0
 H                    7     2.25713  5     180.     2     0.       0
 H                    8     2.25713  6     180.     1     0.       0
 
                          Input orientation:                          
 ---------------------------------------------------------------------
 Center     Atomic      Atomic             Coordinates (Angstroms)
 Number     Number       Type             X           Y           Z
 ---------------------------------------------------------------------
      1          1           0        0.000000    0.000000    0.000000
      2          1           0        0.000000    0.000000    2.257125
      3          1           0        0.511580    0.000000    2.198386
      4          1           0        0.511580    0.000000    4.455511
      5          1           0        1.023161    0.000000    4.396771
      6          1           0        1.023161    0.000000    6.653897
      7          1           0        1.534741    0.000000    6.595157
      8          1           0        1.534741    0.000000    8.852282
      9          1           0        2.046321    0.000000    8.793543
     10          1           0        2.046321    0.000000   11.050668
 ---------------------------------------------------------------------
                    Distance matrix (angstroms):
                    1          2          3          4          5
     1  H    0.000000
     2  H    2.257125   0.000000
     3  H    2.257125   0.514942   0.000000
     4  H    4.484784   2.257125   2.257125   0.000000
     5  H    4.514250   2.371696   2.257125   0.514942   0.000000
     6  H    6.732102   4.514250   4.484784   2.257125   2.257125
     7  H    6.771376   4.601516   4.514250   2.371696   2.257125
     8  H    8.984338   6.771376   6.732102   4.514250   4.484784
     9  H    9.028501   6.849247   6.771376   4.601516   4.514250
    10  H   11.238536   9.028501   8.984338   6.771376   6.732102
                    6          7          8          9         10
     6  H    0.000000
     7  H    0.514942   0.000000
     8  H    2.257125   2.257125   0.000000
     9  H    2.371696   2.257125   0.514942   0.000000
    10  H    4.514250   4.484784   2.257125   2.257125   0.000000
 Stoichiometry    H10
 Framework group  C2H[SGH(H10)]
 Deg. of freedom     9
 Full point group                 C2H     NOp   4
 Largest Abelian subgroup         C2H     NOp   4
 Largest concise Abelian subgroup C2      NOp   2
                         Standard orientation:                         
 ---------------------------------------------------------------------
 Center     Atomic      Atomic             Coordinates (Angstroms)
 Number     Number       Type             X           Y           Z
 ---------------------------------------------------------------------
      1          1           0        1.023161    5.525334    0.000000
      2          1           0        1.023161    3.268209    0.000000
      3          1           0        0.511580    3.326948    0.000000
      4          1           0        0.511580    1.069823    0.000000
      5          1           0        0.000000    1.128563    0.000000
      6          1           0       -0.000000   -1.128563    0.000000
      7          1           0       -0.511580   -1.069823    0.000000
      8          1           0       -0.511580   -3.326948    0.000000
      9          1           0       -1.023161   -3.268209    0.000000
     10          1           0       -1.023161   -5.525334    0.000000
 ---------------------------------------------------------------------
 Rotational constants (GHZ):    857.8204482      4.3970223      4.3745989
 General basis read from cards:  (5D, 7F)
 There are     5 symmetry adapted cartesian basis functions of AG  symmetry.
 There are     0 symmetry adapted cartesian basis functions of BG  symmetry.
 There are     0 symmetry adapted cartesian basis functions of AU  symmetry.
 There are     5 symmetry adapted cartesian basis functions of BU  symmetry.
 There are     5 symmetry adapted basis functions of AG  symmetry.
 There are     0 symmetry adapted basis functions of BG  symmetry.
 There are     0 symmetry adapted basis functions of AU  symmetry.
 There are     5 symmetry adapted basis functions of BU  symmetry.
    10 basis functions,   100 primitive gaussians,    10 cartesian basis functions
     5 alpha electrons        5 beta electrons
       nuclear repulsion energy        10.1408639502 Hartrees.
 NAtoms=   10 NActive=   10 NUniq=    5 SFac= 4.00D+00 NAtFMM=   60 NAOKFM=F Big=F
 Integral buffers will be    131072 words long.
 Regular integral format.
 Two-electron integral symmetry is turned on.
 One-electron integrals computed using PRISM.
 NBasis=    10 RedAO= T EigKep=  1.18D-01  NBF=     5     0     0     5
 NBsUse=    10 1.00D-06 EigRej= -1.00D+00 NBFU=     5     0     0     5
 ExpMin= 3.16D-02 ExpMax= 1.00D+03 ExpMxC= 1.00D+01 IAcc=3 IRadAn=         5 AccDes= 0.00D+00
 Harris functional with IExCor=  205 and IRadAn=       5 diagonalized for initial guess.
 HarFok:  IExCor=  205 AccDes= 0.00D+00 IRadAn=         5 IDoV= 1 UseB2=F ITyADJ=14
 ICtDFT=  3500011 ScaDFX=  1.000000  1.000000  1.000000  1.000000
 FoFCou: FMM=F IPFlag=           0 FMFlag=      100000 FMFlg1=           0
         NFxFlg=           0 DoJE=T BraDBF=F KetDBF=T FulRan=T
         wScrn=  0.000000 ICntrl=     500 IOpCl=  0 I1Cent=   200000004 NGrid=           0
         NMat0=    1 NMatS0=      1 NMatT0=    0 NMatD0=    1 NMtDS0=    0 NMtDT0=    0
 Petite list used in FoFCou.
 Initial guess orbital symmetries:
       Occupied  (AG) (BU) (AG) (BU) (AG)
       Virtual   (BU) (BU) (AG) (BU) (AG)
 The electronic state of the initial guess is 1-AG.
 Keep R1 ints in memory in symmetry-blocked form, NReq=871167.
 Requested convergence on RMS density matrix=1.00D-08 within 128 cycles.
 Requested convergence on MAX density matrix=1.00D-06.
 Requested convergence on             energy=1.00D-06.
 No special actions if energy rises.
 SCF Done:  E(RHF) =  -4.59737589901     A.U. after    5 cycles
            NFock=  5  Conv=0.61D-08     -V/T= 1.9758
 Range of M.O.s used for correlation:     1    10
 NBasis=    10 NAE=     5 NBE=     5 NFC=     0 NFV=     0
 NROrb=     10 NOA=     5 NOB=     5 NVA=     5 NVB=     5

 **** Warning!!: The smallest alpha delta epsilon is  0.47183714D-01

 Semi-Direct transformation.
 ModeAB=           4 MOrb=             5 LenV=     134116332
 LASXX=         1030 LTotXX=        1030 LenRXX=        2480
 LTotAB=        1450 MaxLAS=        1500 LenRXY=           0
 NonZer=        3510 LenScr=      655360 LnRSAI=        1500
 LnScr1=      655360 LExtra=           0 Total=      1314700
 MaxDsk=          -1 SrtSym=           T ITran=            3
 JobTyp=0 Pass  1:  I=   1 to   5.
 (rs|ai) integrals will be sorted in core.
 Spin components of T(2) and E(2):
     alpha-alpha T2 =       0.4620449241D-04 E2=     -0.1188984100D-03
     alpha-beta  T2 =       0.9531868471D+01 E2=     -0.9277205947D+00
     beta-beta   T2 =       0.4620449241D-04 E2=     -0.1188984100D-03
 ANorm=    0.3245298273D+01
 E2 =    -0.9279583915D+00 EUMP2 =    -0.55253342905059D+01
 Second order stability test of a single determinant RHF wave function:
 Stabil:  MDV=134217728
 ***********************************************************************
 Matrix         Lowest Root    Major Pairs
 ***********************************************************************
 Internal RHF     0.3985445    Stable
 RRHF --> CRHF    0.000051     Stable
 RRHF --> RUHF   -0.5828803    5A=6B
 Not stable.
 ***********************************************************************

 **********************************************************************

            Population analysis using the SCF density.

 **********************************************************************

 Orbital symmetries:
       Occupied  (AG) (BU) (AG) (BU) (AG)
       Virtual   (BU) (BU) (AG) (BU) (AG)
 The electronic state is 1-AG.
 Alpha  occ. eigenvalues --   -0.73459  -0.71864  -0.69584  -0.67407  -0.20404
 Alpha virt. eigenvalues --   -0.15685   0.50514   0.55977   0.63638   0.70680
          Condensed to atoms (all electrons):
               1          2          3          4          5          6
     1  H    1.028871  -0.014811  -0.014759   0.000038   0.000064   0.000002
     2  H   -0.014811   0.557712   0.484382  -0.015132  -0.012628   0.000062
     3  H   -0.014759   0.484382   0.562331  -0.015808  -0.015252   0.000069
     4  H    0.000038  -0.015132  -0.015808   0.567968   0.491122  -0.015376
     5  H    0.000064  -0.012628  -0.015252   0.491122   0.567705  -0.015997
     6  H    0.000002   0.000062   0.000069  -0.015376  -0.015997   0.567705
     7  H    0.000001   0.000053   0.000065  -0.012777  -0.015376   0.491122
     8  H   -0.000000   0.000001   0.000001   0.000065   0.000069  -0.015252
     9  H   -0.000000   0.000001   0.000001   0.000053   0.000062  -0.012628
    10  H    0.000000  -0.000000  -0.000000   0.000001   0.000002   0.000064
               7          8          9         10
     1  H    0.000001  -0.000000  -0.000000   0.000000
     2  H    0.000053   0.000001   0.000001  -0.000000
     3  H    0.000065   0.000001   0.000001  -0.000000
     4  H   -0.012777   0.000065   0.000053   0.000001
     5  H   -0.015376   0.000069   0.000062   0.000002
     6  H    0.491122  -0.015252  -0.012628   0.000064
     7  H    0.567968  -0.015808  -0.015132   0.000038
     8  H   -0.015808   0.562331   0.484382  -0.014759
     9  H   -0.015132   0.484382   0.557712  -0.014811
    10  H    0.000038  -0.014759  -0.014811   1.028871
 Mulliken charges:
               1
     1  H    0.000594
     2  H    0.000361
     3  H   -0.001030
     4  H   -0.000153
     5  H    0.000228
     6  H    0.000228
     7  H   -0.000153
     8  H   -0.001030
     9  H    0.000361
    10  H    0.000594
 Sum of Mulliken charges =   0.00000
 Mulliken charges with hydrogens summed into heavy atoms:
               1
 Electronic spatial extent (au):  <R**2>=            440.1940
 Charge=              0.0000 electrons
 Dipole moment (field-independent basis, Debye):
    X=             -0.0000    Y=             -0.0000    Z=              0.0000  Tot=              0.0000
 Quadrupole moment (field-independent basis, Debye-Ang):
   XX=            -12.5678   YY=            -15.5045   ZZ=            -13.4181
   XY=             -0.5052   XZ=             -0.0000   YZ=              0.0000
 Traceless Quadrupole moment (field-independent basis, Debye-Ang):
   XX=              1.2624   YY=             -1.6744   ZZ=              0.4120
   XY=             -0.5052   XZ=             -0.0000   YZ=              0.0000
 Octapole moment (field-independent basis, Debye-Ang**2):
  XXX=              0.0000  YYY=              0.0000  ZZZ=             -0.0000  XYY=             -0.0000
  XXY=             -0.0000  XXZ=             -0.0000  XZZ=              0.0000  YZZ=              0.0000
  YYZ=             -0.0000  XYZ=              0.0000
 Hexadecapole moment (field-independent basis, Debye-Ang**3):
 XXXX=            -55.5400 YYYY=           -995.9046 ZZZZ=            -16.7109 XXXY=            -87.7867
 XXXZ=              0.0000 YYYX=           -110.1595 YYYZ=              0.0000 ZZZX=              0.0000
 ZZZY=              0.0000 XXYY=           -157.7335 XXZZ=            -12.3371 YYZZ=           -152.8309
 XXYZ=              0.0000 YYXZ=              0.0000 ZZXY=            -30.3316
 N-N= 1.014086395016D+01 E-N=-2.813352336601D+01  KE= 4.711425372368D+00
 Symmetry AG   KE= 2.714508615355D+00
 Symmetry BG   KE= 0.000000000000D+00
 Symmetry AU   KE= 0.000000000000D+00
 Symmetry BU   KE= 1.996916757014D+00

 Test job not archived.
 1\1\GINC-SULU\Stability\RHF\Gen\H10\LCJ1\09-Feb-2017\0\\#rhf/gen scf(s
 ymm,tight,novaracc,noincfock,fulldiag) stable(crhf) geom=nocrowd test\
 \hf stability analysis of h10 triangular lattice, y= 2.242392231177195
 3\\0,1\H\H,1,2.2571251789\H,1,2.2571251789,2,13.1\H,2,2.2571251789,1,1
 66.9,3,0.,0\H,3,2.2571251789,1,180.,2,0.,0\H,4,2.2571251789,2,180.,1,0
 .,0\H,5,2.2571251789,3,180.,2,0.,0\H,6,2.2571251789,4,180.,1,0.,0\H,7,
 2.2571251789,5,180.,2,0.,0\H,8,2.2571251789,6,180.,1,0.,0\\Version=ES6
 4L-G09RevE.01\State=1-AG\HF=-4.5973759\MP2=-5.5253343\RMSD=6.051e-09\D
 ipole=0.,0.,0.\Quadrupole=0.9385366,0.3063258,-1.2448624,0.,-0.3755822
 ,0.\PG=C02H [SGH(H10)]\\@


 IF IT'S NOT TRUE, IT'S WELL INVENTED -- DANTE
 Job cpu time:       0 days  0 hours  0 minutes  0.9 seconds.
 File lengths (MBytes):  RWF=     84 Int=      0 D2E=      0 Chk=      2 Scr=      2
 Normal termination of Gaussian 09 at Thu Feb  9 15:58:48 2017.
