 Entering Gaussian System, Link 0=g09
 AtFile(1): H.gbs
            H     0
            S   10   1.00
               1000.000000000000            0.000068713567
                316.227766000000            0.000169141320
                100.000000000000            0.000823394812
                 31.622776600000            0.003425569236
                 10.000000000000            0.013951996000
                  3.162277660000            0.056909313560
                  1.000000000000            0.198286399900
                  0.316227766000            0.496922426700
                  0.100000000000            0.369846276400
                  0.031622776600            0.003752720039
            ****
 Initial command:
 /projects/guscus/apps/gau/g09-e1/g09/l1.exe "/users/lcj1/gaussian/h10/rhfstability/2rows/zmatrix/constarea/fwd/Gau-19116.inp" -scrdir="/users/lcj1/gaussian/h10/rhfstability/2rows/zmatrix/constarea/fwd/"
 Entering Link 1 = /projects/guscus/apps/gau/g09-e1/g09/l1.exe PID=     19117.
  
 Copyright (c) 1988,1990,1992,1993,1995,1998,2003,2009,2015,
            Gaussian, Inc.  All Rights Reserved.
  
 This is part of the Gaussian(R) 09 program.  It is based on
 the Gaussian(R) 03 system (copyright 2003, Gaussian, Inc.),
 the Gaussian(R) 98 system (copyright 1998, Gaussian, Inc.),
 the Gaussian(R) 94 system (copyright 1995, Gaussian, Inc.),
 the Gaussian 92(TM) system (copyright 1992, Gaussian, Inc.),
 the Gaussian 90(TM) system (copyright 1990, Gaussian, Inc.),
 the Gaussian 88(TM) system (copyright 1988, Gaussian, Inc.),
 the Gaussian 86(TM) system (copyright 1986, Carnegie Mellon
 University), and the Gaussian 82(TM) system (copyright 1983,
 Carnegie Mellon University). Gaussian is a federally registered
 trademark of Gaussian, Inc.
  
 This software contains proprietary and confidential information,
 including trade secrets, belonging to Gaussian, Inc.
  
 This software is provided under written license and may be
 used, copied, transmitted, or stored only in accord with that
 written license.
  
 The following legend is applicable only to US Government
 contracts under FAR:
  
                    RESTRICTED RIGHTS LEGEND
  
 Use, reproduction and disclosure by the US Government is
 subject to restrictions as set forth in subparagraphs (a)
 and (c) of the Commercial Computer Software - Restricted
 Rights clause in FAR 52.227-19.
  
 Gaussian, Inc.
 340 Quinnipiac St., Bldg. 40, Wallingford CT 06492
  
  
 ---------------------------------------------------------------
 Warning -- This program may not be used in any manner that
 competes with the business of Gaussian, Inc. or will provide
 assistance to any competitor of Gaussian, Inc.  The licensee
 of this program is prohibited from giving any competitor of
 Gaussian, Inc. access to this program.  By using this program,
 the user acknowledges that Gaussian, Inc. is engaged in the
 business of creating and licensing software in the field of
 computational chemistry and represents and warrants to the
 licensee that it is not a competitor of Gaussian, Inc. and that
 it will not use this program in any manner prohibited above.
 ---------------------------------------------------------------
  

 Cite this work as:
 Gaussian 09, Revision E.01,
 M. J. Frisch, G. W. Trucks, H. B. Schlegel, G. E. Scuseria, 
 M. A. Robb, J. R. Cheeseman, G. Scalmani, V. Barone, B. Mennucci, 
 G. A. Petersson, H. Nakatsuji, M. Caricato, X. Li, H. P. Hratchian, 
 A. F. Izmaylov, J. Bloino, G. Zheng, J. L. Sonnenberg, M. Hada, 
 M. Ehara, K. Toyota, R. Fukuda, J. Hasegawa, M. Ishida, T. Nakajima, 
 Y. Honda, O. Kitao, H. Nakai, T. Vreven, J. A. Montgomery, Jr., 
 J. E. Peralta, F. Ogliaro, M. Bearpark, J. J. Heyd, E. Brothers, 
 K. N. Kudin, V. N. Staroverov, T. Keith, R. Kobayashi, J. Normand, 
 K. Raghavachari, A. Rendell, J. C. Burant, S. S. Iyengar, J. Tomasi, 
 M. Cossi, N. Rega, J. M. Millam, M. Klene, J. E. Knox, J. B. Cross, 
 V. Bakken, C. Adamo, J. Jaramillo, R. Gomperts, R. E. Stratmann, 
 O. Yazyev, A. J. Austin, R. Cammi, C. Pomelli, J. W. Ochterski, 
 R. L. Martin, K. Morokuma, V. G. Zakrzewski, G. A. Voth, 
 P. Salvador, J. J. Dannenberg, S. Dapprich, A. D. Daniels, 
 O. Farkas, J. B. Foresman, J. V. Ortiz, J. Cioslowski, 
 and D. J. Fox, Gaussian, Inc., Wallingford CT, 2013.
 
 ******************************************
 Gaussian 09:  ES64L-G09RevE.01 30-Nov-2015
                 9-Feb-2017 
 ******************************************
 %chk=h10.chk
 ----------------------------------------------------------------------
 #rhf/gen scf(symm,tight,novaracc,noincfock,fulldiag) stable(crhf) geom
 =nocrowd test
 ----------------------------------------------------------------------
 1/38=1/1;
 2/12=1,17=6,18=5,40=1/2;
 3/5=7,16=1,25=1,30=1,116=1/1,2,3;
 4/9=4/1;
 5/5=100002,15=2,16=1,32=2,38=1/2;
 8/6=1,10=90,11=11/1,4;
 9/8=4,13=1/2;
 6/7=2,8=2,9=2,10=2,28=1/1;
 99/5=1,9=1/99;
 ----------------------------------------------------------------------
 hf stability analysis of h10 triangular lattice, y= 1.0322613290879032
 ----------------------------------------------------------------------
 Symbolic Z-matrix:
 Charge =  0 Multiplicity = 1
 H
 H                    1     1.17405 
 H                    1     1.17405  2     56.9 
 H                    2     1.17405  1     123.1    3     0.       0
 H                    3     1.17405  1     180.     2     0.       0
 H                    4     1.17405  2     180.     1     0.       0
 H                    5     1.17405  3     180.     2     0.       0
 H                    6     1.17405  4     180.     1     0.       0
 H                    7     1.17405  5     180.     2     0.       0
 H                    8     1.17405  6     180.     1     0.       0
 
                          Input orientation:                          
 ---------------------------------------------------------------------
 Center     Atomic      Atomic             Coordinates (Angstroms)
 Number     Number       Type             X           Y           Z
 ---------------------------------------------------------------------
      1          1           0        0.000000    0.000000    0.000000
      2          1           0        0.000000    0.000000    1.174047
      3          1           0        0.983521    0.000000    0.641150
      4          1           0        0.983521    0.000000    1.815197
      5          1           0        1.967043    0.000000    1.282299
      6          1           0        1.967043    0.000000    2.456346
      7          1           0        2.950564    0.000000    1.923449
      8          1           0        2.950564    0.000000    3.097496
      9          1           0        3.934085    0.000000    2.564598
     10          1           0        3.934085    0.000000    3.738645
 ---------------------------------------------------------------------
                    Distance matrix (angstroms):
                    1          2          3          4          5
     1  H    0.000000
     2  H    1.174047   0.000000
     3  H    1.174047   1.118613   0.000000
     4  H    2.064523   1.174047   1.174047   0.000000
     5  H    2.348095   1.970019   1.174047   1.118613   0.000000
     6  H    3.146886   2.348095   2.064523   1.174047   1.174047
     7  H    3.522142   3.044246   2.348095   1.970019   1.174047
     8  H    4.277886   3.522142   3.146886   2.348095   2.064523
     9  H    4.696189   4.172608   3.522142   3.044246   2.348095
    10  H    5.427200   4.696189   4.277886   3.522142   3.146886
                    6          7          8          9         10
     6  H    0.000000
     7  H    1.118613   0.000000
     8  H    1.174047   1.174047   0.000000
     9  H    1.970019   1.174047   1.118613   0.000000
    10  H    2.348095   2.064523   1.174047   1.174047   0.000000
 Stoichiometry    H10
 Framework group  C2H[SGH(H10)]
 Deg. of freedom     9
 Full point group                 C2H     NOp   4
 Largest Abelian subgroup         C2H     NOp   4
 Largest concise Abelian subgroup C2      NOp   2
                         Standard orientation:                         
 ---------------------------------------------------------------------
 Center     Atomic      Atomic             Coordinates (Angstroms)
 Number     Number       Type             X           Y           Z
 ---------------------------------------------------------------------
      1          1           0        1.967043    1.869323   -0.000000
      2          1           0        1.967043    0.695275   -0.000000
      3          1           0        0.983521    1.228173   -0.000000
      4          1           0        0.983521    0.054126    0.000000
      5          1           0       -0.000000    0.587024   -0.000000
      6          1           0       -0.000000   -0.587024   -0.000000
      7          1           0       -0.983521   -0.054126    0.000000
      8          1           0       -0.983521   -1.228173   -0.000000
      9          1           0       -1.967043   -0.695275    0.000000
     10          1           0       -1.967043   -1.869323    0.000000
 ---------------------------------------------------------------------
 Rotational constants (GHZ):    215.8013260     17.4783818     16.1688216
 General basis read from cards:  (5D, 7F)
 There are     5 symmetry adapted cartesian basis functions of AG  symmetry.
 There are     0 symmetry adapted cartesian basis functions of BG  symmetry.
 There are     0 symmetry adapted cartesian basis functions of AU  symmetry.
 There are     5 symmetry adapted cartesian basis functions of BU  symmetry.
 There are     5 symmetry adapted basis functions of AG  symmetry.
 There are     0 symmetry adapted basis functions of BG  symmetry.
 There are     0 symmetry adapted basis functions of AU  symmetry.
 There are     5 symmetry adapted basis functions of BU  symmetry.
    10 basis functions,   100 primitive gaussians,    10 cartesian basis functions
     5 alpha electrons        5 beta electrons
       nuclear repulsion energy        13.0852491680 Hartrees.
 NAtoms=   10 NActive=   10 NUniq=    5 SFac= 4.00D+00 NAtFMM=   60 NAOKFM=F Big=F
 Integral buffers will be    131072 words long.
 Regular integral format.
 Two-electron integral symmetry is turned on.
 One-electron integrals computed using PRISM.
 NBasis=    10 RedAO= T EigKep=  1.96D-01  NBF=     5     0     0     5
 NBsUse=    10 1.00D-06 EigRej= -1.00D+00 NBFU=     5     0     0     5
 ExpMin= 3.16D-02 ExpMax= 1.00D+03 ExpMxC= 1.00D+01 IAcc=3 IRadAn=         5 AccDes= 0.00D+00
 Harris functional with IExCor=  205 and IRadAn=       5 diagonalized for initial guess.
 HarFok:  IExCor=  205 AccDes= 0.00D+00 IRadAn=         5 IDoV= 1 UseB2=F ITyADJ=14
 ICtDFT=  3500011 ScaDFX=  1.000000  1.000000  1.000000  1.000000
 FoFCou: FMM=F IPFlag=           0 FMFlag=      100000 FMFlg1=           0
         NFxFlg=           0 DoJE=T BraDBF=F KetDBF=T FulRan=T
         wScrn=  0.000000 ICntrl=     500 IOpCl=  0 I1Cent=   200000004 NGrid=           0
         NMat0=    1 NMatS0=      1 NMatT0=    0 NMatD0=    1 NMtDS0=    0 NMtDT0=    0
 Petite list used in FoFCou.
 Initial guess orbital symmetries:
       Occupied  (AG) (BU) (AG) (BU) (BU)
       Virtual   (AG) (AG) (BU) (BU) (AG)
 The electronic state of the initial guess is 1-AG.
 Keep R1 ints in memory in symmetry-blocked form, NReq=878867.
 Requested convergence on RMS density matrix=1.00D-08 within 128 cycles.
 Requested convergence on MAX density matrix=1.00D-06.
 Requested convergence on             energy=1.00D-06.
 No special actions if energy rises.
 SCF Done:  E(RHF) =  -4.86426814464     A.U. after   10 cycles
            NFock= 10  Conv=0.12D-08     -V/T= 1.9660
 Range of M.O.s used for correlation:     1    10
 NBasis=    10 NAE=     5 NBE=     5 NFC=     0 NFV=     0
 NROrb=     10 NOA=     5 NOB=     5 NVA=     5 NVB=     5
 Semi-Direct transformation.
 ModeAB=           4 MOrb=             5 LenV=     134107694
 LASXX=         1030 LTotXX=        1030 LenRXX=        2480
 LTotAB=        1450 MaxLAS=        1500 LenRXY=           0
 NonZer=        3510 LenScr=      655360 LnRSAI=        1500
 LnScr1=      655360 LExtra=           0 Total=      1314700
 MaxDsk=          -1 SrtSym=           T ITran=            3
 JobTyp=0 Pass  1:  I=   1 to   5.
 (rs|ai) integrals will be sorted in core.
 Spin components of T(2) and E(2):
     alpha-alpha T2 =       0.6379242433D-02 E2=     -0.7589738864D-02
     alpha-beta  T2 =       0.8129347147D-01 E2=     -0.9905862987D-01
     beta-beta   T2 =       0.6379242433D-02 E2=     -0.7589738864D-02
 ANorm=    0.1045969386D+01
 E2 =    -0.1142381076D+00 EUMP2 =    -0.49785062522354D+01
 Second order stability test of a single determinant RHF wave function:
 Stabil:  MDV=134217728
 ***********************************************************************
 Matrix         Lowest Root    Major Pairs
 ***********************************************************************
 Internal RHF     0.0929129    Stable
 RRHF --> CRHF    0.0501697    Stable
 RRHF --> RUHF   -0.0761416    5A=6B 4A=6B 4A=7B 4A=10B 3A=8B 5A=7B
 Not stable.
 ***********************************************************************

 **********************************************************************

            Population analysis using the SCF density.

 **********************************************************************

 Orbital symmetries:
       Occupied  (AG) (BU) (AG) (BU) (BU)
       Virtual   (AG) (AG) (BU) (BU) (AG)
 The electronic state is 1-AG.
 Alpha  occ. eigenvalues --   -0.83538  -0.73925  -0.55215  -0.32636  -0.30835
 Alpha virt. eigenvalues --    0.00713   0.19905   0.24221   0.53241   0.56941
          Condensed to atoms (all electrons):
               1          2          3          4          5          6
     1  H    0.970166   0.281872   0.018142  -0.141056  -0.064850   0.002093
     2  H    0.281872   0.642701  -0.012116   0.041394  -0.128951   0.036726
     3  H    0.018142  -0.012116   0.689158   0.012957   0.312029  -0.126051
     4  H   -0.141056   0.041394   0.012957   1.179814   0.038254   0.178866
     5  H   -0.064850  -0.128951   0.312029   0.038254   1.081583  -0.277679
     6  H    0.002093   0.036726  -0.126051   0.178866  -0.277679   1.081583
     7  H    0.013134  -0.012122   0.004698  -0.194357   0.178866   0.038254
     8  H    0.001903   0.009019  -0.021187   0.004698  -0.126051   0.312029
     9  H   -0.000106  -0.001402   0.009019  -0.012122   0.036726  -0.128951
    10  H   -0.000468  -0.000106   0.001903   0.013134   0.002093  -0.064850
               7          8          9         10
     1  H    0.013134   0.001903  -0.000106  -0.000468
     2  H   -0.012122   0.009019  -0.001402  -0.000106
     3  H    0.004698  -0.021187   0.009019   0.001903
     4  H   -0.194357   0.004698  -0.012122   0.013134
     5  H    0.178866  -0.126051   0.036726   0.002093
     6  H    0.038254   0.312029  -0.128951  -0.064850
     7  H    1.179814   0.012957   0.041394  -0.141056
     8  H    0.012957   0.689158  -0.012116   0.018142
     9  H    0.041394  -0.012116   0.642701   0.281872
    10  H   -0.141056   0.018142   0.281872   0.970166
 Mulliken charges:
               1
     1  H   -0.080830
     2  H    0.142984
     3  H    0.111448
     4  H   -0.121583
     5  H   -0.052019
     6  H   -0.052019
     7  H   -0.121583
     8  H    0.111448
     9  H    0.142984
    10  H   -0.080830
 Sum of Mulliken charges =  -0.00000
 Mulliken charges with hydrogens summed into heavy atoms:
               1
 Electronic spatial extent (au):  <R**2>=            141.5889
 Charge=             -0.0000 electrons
 Dipole moment (field-independent basis, Debye):
    X=             -0.0000    Y=             -0.0000    Z=              0.0000  Tot=              0.0000
 Quadrupole moment (field-independent basis, Debye-Ang):
   XX=            -13.1467   YY=            -15.3073   ZZ=            -13.0228
   XY=             -0.4391   XZ=              0.0000   YZ=              0.0000
 Traceless Quadrupole moment (field-independent basis, Debye-Ang):
   XX=              0.6789   YY=             -1.4818   ZZ=              0.8028
   XY=             -0.4391   XZ=              0.0000   YZ=              0.0000
 Octapole moment (field-independent basis, Debye-Ang**2):
  XXX=             -0.0000  YYY=             -0.0000  ZZZ=              0.0000  XYY=             -0.0000
  XXY=             -0.0000  XXZ=              0.0000  XZZ=             -0.0000  YZZ=             -0.0000
  YYZ=              0.0000  XYZ=              0.0000
 Hexadecapole moment (field-independent basis, Debye-Ang**3):
 XXXX=           -183.8520 YYYY=           -120.0217 ZZZZ=            -15.7824 XXXY=            -66.8444
 XXXZ=              0.0000 YYYX=            -59.9675 YYYZ=              0.0000 ZZZX=              0.0000
 ZZZY=              0.0000 XXYY=            -61.1519 XXZZ=            -31.6838 YYZZ=            -21.7905
 XXYZ=              0.0000 YYXZ=              0.0000 ZZXY=            -17.1670
 N-N= 1.308524916797D+01 E-N=-3.541173749409D+01  KE= 5.035664344837D+00
 Symmetry AG   KE= 1.462955514536D+00
 Symmetry BG   KE= 0.000000000000D+00
 Symmetry AU   KE= 0.000000000000D+00
 Symmetry BU   KE= 3.572708830301D+00

 Test job not archived.
 1\1\GINC-SULU\Stability\RHF\Gen\H10\LCJ1\09-Feb-2017\0\\#rhf/gen scf(s
 ymm,tight,novaracc,noincfock,fulldiag) stable(crhf) geom=nocrowd test\
 \hf stability analysis of h10 triangular lattice, y= 1.032261329087903
 2\\0,1\H\H,1,1.1740472706\H,1,1.1740472706,2,56.9\H,2,1.1740472706,1,1
 23.1,3,0.,0\H,3,1.1740472706,1,180.,2,0.,0\H,4,1.1740472706,2,180.,1,0
 .,0\H,5,1.1740472706,3,180.,2,0.,0\H,6,1.1740472706,4,180.,1,0.,0\H,7,
 1.1740472706,5,180.,2,0.,0\H,8,1.1740472706,6,180.,1,0.,0\\Version=ES6
 4L-G09RevE.01\State=1-AG\HF=-4.8642681\MP2=-4.9785063\RMSD=1.204e-09\D
 ipole=0.,0.,0.\Quadrupole=0.5047579,0.5968876,-1.1016456,0.,-0.3264334
 ,0.\PG=C02H [SGH(H10)]\\@


 I FIND THAT THE THREE TRULY GREAT TIMES FOR THINKING THOUGHTS
 ARE WHEN I AM STANDING IN THE SHOWER, SITTING ON THE JOHN, OR WALKING.

                                    -- COLIN FLETCHER
 Job cpu time:       0 days  0 hours  0 minutes  1.0 seconds.
 File lengths (MBytes):  RWF=     84 Int=      0 D2E=      0 Chk=      2 Scr=      2
 Normal termination of Gaussian 09 at Thu Feb  9 15:37:42 2017.
