 Entering Gaussian System, Link 0=g09
 AtFile(1): H.gbs
            H     0
            S   10   1.00
               1000.000000000000            0.000068713567
                316.227766000000            0.000169141320
                100.000000000000            0.000823394812
                 31.622776600000            0.003425569236
                 10.000000000000            0.013951996000
                  3.162277660000            0.056909313560
                  1.000000000000            0.198286399900
                  0.316227766000            0.496922426700
                  0.100000000000            0.369846276400
                  0.031622776600            0.003752720039
            ****
 Initial command:
 /projects/guscus/apps/gau/g09-e1/g09/l1.exe "/users/lcj1/gaussian/h10/rhfstability/2rows/zmatrix/constarea/fwd/Gau-22179.inp" -scrdir="/users/lcj1/gaussian/h10/rhfstability/2rows/zmatrix/constarea/fwd/"
 Entering Link 1 = /projects/guscus/apps/gau/g09-e1/g09/l1.exe PID=     22180.
  
 Copyright (c) 1988,1990,1992,1993,1995,1998,2003,2009,2015,
            Gaussian, Inc.  All Rights Reserved.
  
 This is part of the Gaussian(R) 09 program.  It is based on
 the Gaussian(R) 03 system (copyright 2003, Gaussian, Inc.),
 the Gaussian(R) 98 system (copyright 1998, Gaussian, Inc.),
 the Gaussian(R) 94 system (copyright 1995, Gaussian, Inc.),
 the Gaussian 92(TM) system (copyright 1992, Gaussian, Inc.),
 the Gaussian 90(TM) system (copyright 1990, Gaussian, Inc.),
 the Gaussian 88(TM) system (copyright 1988, Gaussian, Inc.),
 the Gaussian 86(TM) system (copyright 1986, Carnegie Mellon
 University), and the Gaussian 82(TM) system (copyright 1983,
 Carnegie Mellon University). Gaussian is a federally registered
 trademark of Gaussian, Inc.
  
 This software contains proprietary and confidential information,
 including trade secrets, belonging to Gaussian, Inc.
  
 This software is provided under written license and may be
 used, copied, transmitted, or stored only in accord with that
 written license.
  
 The following legend is applicable only to US Government
 contracts under FAR:
  
                    RESTRICTED RIGHTS LEGEND
  
 Use, reproduction and disclosure by the US Government is
 subject to restrictions as set forth in subparagraphs (a)
 and (c) of the Commercial Computer Software - Restricted
 Rights clause in FAR 52.227-19.
  
 Gaussian, Inc.
 340 Quinnipiac St., Bldg. 40, Wallingford CT 06492
  
  
 ---------------------------------------------------------------
 Warning -- This program may not be used in any manner that
 competes with the business of Gaussian, Inc. or will provide
 assistance to any competitor of Gaussian, Inc.  The licensee
 of this program is prohibited from giving any competitor of
 Gaussian, Inc. access to this program.  By using this program,
 the user acknowledges that Gaussian, Inc. is engaged in the
 business of creating and licensing software in the field of
 computational chemistry and represents and warrants to the
 licensee that it is not a competitor of Gaussian, Inc. and that
 it will not use this program in any manner prohibited above.
 ---------------------------------------------------------------
  

 Cite this work as:
 Gaussian 09, Revision E.01,
 M. J. Frisch, G. W. Trucks, H. B. Schlegel, G. E. Scuseria, 
 M. A. Robb, J. R. Cheeseman, G. Scalmani, V. Barone, B. Mennucci, 
 G. A. Petersson, H. Nakatsuji, M. Caricato, X. Li, H. P. Hratchian, 
 A. F. Izmaylov, J. Bloino, G. Zheng, J. L. Sonnenberg, M. Hada, 
 M. Ehara, K. Toyota, R. Fukuda, J. Hasegawa, M. Ishida, T. Nakajima, 
 Y. Honda, O. Kitao, H. Nakai, T. Vreven, J. A. Montgomery, Jr., 
 J. E. Peralta, F. Ogliaro, M. Bearpark, J. J. Heyd, E. Brothers, 
 K. N. Kudin, V. N. Staroverov, T. Keith, R. Kobayashi, J. Normand, 
 K. Raghavachari, A. Rendell, J. C. Burant, S. S. Iyengar, J. Tomasi, 
 M. Cossi, N. Rega, J. M. Millam, M. Klene, J. E. Knox, J. B. Cross, 
 V. Bakken, C. Adamo, J. Jaramillo, R. Gomperts, R. E. Stratmann, 
 O. Yazyev, A. J. Austin, R. Cammi, C. Pomelli, J. W. Ochterski, 
 R. L. Martin, K. Morokuma, V. G. Zakrzewski, G. A. Voth, 
 P. Salvador, J. J. Dannenberg, S. Dapprich, A. D. Daniels, 
 O. Farkas, J. B. Foresman, J. V. Ortiz, J. Cioslowski, 
 and D. J. Fox, Gaussian, Inc., Wallingford CT, 2013.
 
 ******************************************
 Gaussian 09:  ES64L-G09RevE.01 30-Nov-2015
                 9-Feb-2017 
 ******************************************
 %chk=h10.chk
 ----------------------------------------------------------------------
 #rhf/gen scf(symm,tight,novaracc,noincfock,fulldiag) stable(crhf) geom
 =nocrowd test
 ----------------------------------------------------------------------
 1/38=1/1;
 2/12=1,17=6,18=5,40=1/2;
 3/5=7,16=1,25=1,30=1,116=1/1,2,3;
 4/9=4/1;
 5/5=100002,15=2,16=1,32=2,38=1/2;
 8/6=1,10=90,11=11/1,4;
 9/8=4,13=1/2;
 6/7=2,8=2,9=2,10=2,28=1/1;
 99/5=1,9=1/99;
 ----------------------------------------------------------------------
 hf stability analysis of h10 triangular lattice, y= 1.4653340713215299
 ----------------------------------------------------------------------
 Symbolic Z-matrix:
 Charge =  0 Multiplicity = 1
 H
 H                    1     1.51738 
 H                    1     1.51738  2     30.1 
 H                    2     1.51738  1     149.9    3     0.       0
 H                    3     1.51738  1     180.     2     0.       0
 H                    4     1.51738  2     180.     1     0.       0
 H                    5     1.51738  3     180.     2     0.       0
 H                    6     1.51738  4     180.     1     0.       0
 H                    7     1.51738  5     180.     2     0.       0
 H                    8     1.51738  6     180.     1     0.       0
 
                          Input orientation:                          
 ---------------------------------------------------------------------
 Center     Atomic      Atomic             Coordinates (Angstroms)
 Number     Number       Type             X           Y           Z
 ---------------------------------------------------------------------
      1          1           0        0.000000    0.000000    0.000000
      2          1           0        0.000000    0.000000    1.517381
      3          1           0        0.760983    0.000000    1.312764
      4          1           0        0.760983    0.000000    2.830145
      5          1           0        1.521966    0.000000    2.625528
      6          1           0        1.521966    0.000000    4.142909
      7          1           0        2.282948    0.000000    3.938293
      8          1           0        2.282948    0.000000    5.455673
      9          1           0        3.043931    0.000000    5.251057
     10          1           0        3.043931    0.000000    6.768438
 ---------------------------------------------------------------------
                    Distance matrix (angstroms):
                    1          2          3          4          5
     1  H    0.000000
     2  H    1.517381   0.000000
     3  H    1.517381   0.788012   0.000000
     4  H    2.930668   1.517381   1.517381   0.000000
     5  H    3.034762   1.882650   1.517381   0.788012   0.000000
     6  H    4.413624   3.034762   2.930668   1.517381   1.517381
     7  H    4.552142   3.327562   3.034762   1.882650   1.517381
     8  H    5.914070   4.552142   4.413624   3.034762   2.930668
     9  H    6.069523   4.817245   4.552142   3.327562   3.034762
    10  H    7.421406   6.069523   5.914070   4.552142   4.413624
                    6          7          8          9         10
     6  H    0.000000
     7  H    0.788012   0.000000
     8  H    1.517381   1.517381   0.000000
     9  H    1.882650   1.517381   0.788012   0.000000
    10  H    3.034762   2.930668   1.517381   1.517381   0.000000
 Stoichiometry    H10
 Framework group  C2H[SGH(H10)]
 Deg. of freedom     9
 Full point group                 C2H     NOp   4
 Largest Abelian subgroup         C2H     NOp   4
 Largest concise Abelian subgroup C2      NOp   2
                         Standard orientation:                         
 ---------------------------------------------------------------------
 Center     Atomic      Atomic             Coordinates (Angstroms)
 Number     Number       Type             X           Y           Z
 ---------------------------------------------------------------------
      1          1           0        1.521966    3.384219    0.000000
      2          1           0        1.521966    1.866838    0.000000
      3          1           0        0.760983    2.071455    0.000000
      4          1           0        0.760983    0.554074    0.000000
      5          1           0       -0.000000    0.758690    0.000000
      6          1           0       -0.000000   -0.758690   -0.000000
      7          1           0       -0.760983   -0.554074    0.000000
      8          1           0       -0.760983   -2.071455   -0.000000
      9          1           0       -1.521966   -1.866838    0.000000
     10          1           0       -1.521966   -3.384219   -0.000000
 ---------------------------------------------------------------------
 Rotational constants (GHZ):    379.7352891      9.9328596      9.6796655
 General basis read from cards:  (5D, 7F)
 There are     5 symmetry adapted cartesian basis functions of AG  symmetry.
 There are     0 symmetry adapted cartesian basis functions of BG  symmetry.
 There are     0 symmetry adapted cartesian basis functions of AU  symmetry.
 There are     5 symmetry adapted cartesian basis functions of BU  symmetry.
 There are     5 symmetry adapted basis functions of AG  symmetry.
 There are     0 symmetry adapted basis functions of BG  symmetry.
 There are     0 symmetry adapted basis functions of AU  symmetry.
 There are     5 symmetry adapted basis functions of BU  symmetry.
    10 basis functions,   100 primitive gaussians,    10 cartesian basis functions
     5 alpha electrons        5 beta electrons
       nuclear repulsion energy        11.5087639727 Hartrees.
 NAtoms=   10 NActive=   10 NUniq=    5 SFac= 4.00D+00 NAtFMM=   60 NAOKFM=F Big=F
 Integral buffers will be    131072 words long.
 Regular integral format.
 Two-electron integral symmetry is turned on.
 One-electron integrals computed using PRISM.
 NBasis=    10 RedAO= T EigKep=  1.73D-01  NBF=     5     0     0     5
 NBsUse=    10 1.00D-06 EigRej= -1.00D+00 NBFU=     5     0     0     5
 ExpMin= 3.16D-02 ExpMax= 1.00D+03 ExpMxC= 1.00D+01 IAcc=3 IRadAn=         5 AccDes= 0.00D+00
 Harris functional with IExCor=  205 and IRadAn=       5 diagonalized for initial guess.
 HarFok:  IExCor=  205 AccDes= 0.00D+00 IRadAn=         5 IDoV= 1 UseB2=F ITyADJ=14
 ICtDFT=  3500011 ScaDFX=  1.000000  1.000000  1.000000  1.000000
 FoFCou: FMM=F IPFlag=           0 FMFlag=      100000 FMFlg1=           0
         NFxFlg=           0 DoJE=T BraDBF=F KetDBF=T FulRan=T
         wScrn=  0.000000 ICntrl=     500 IOpCl=  0 I1Cent=   200000004 NGrid=           0
         NMat0=    1 NMatS0=      1 NMatT0=    0 NMatD0=    1 NMtDS0=    0 NMtDT0=    0
 Petite list used in FoFCou.
 Initial guess orbital symmetries:
       Occupied  (AG) (BU) (AG) (BU) (AG)
       Virtual   (BU) (BU) (AG) (BU) (AG)
 The electronic state of the initial guess is 1-AG.
 Keep R1 ints in memory in symmetry-blocked form, NReq=874947.
 Requested convergence on RMS density matrix=1.00D-08 within 128 cycles.
 Requested convergence on MAX density matrix=1.00D-06.
 Requested convergence on             energy=1.00D-06.
 No special actions if energy rises.
 SCF Done:  E(RHF) =  -4.86459326629     A.U. after    9 cycles
            NFock=  9  Conv=0.43D-08     -V/T= 1.9390
 Range of M.O.s used for correlation:     1    10
 NBasis=    10 NAE=     5 NBE=     5 NFC=     0 NFV=     0
 NROrb=     10 NOA=     5 NOB=     5 NVA=     5 NVB=     5

 **** Warning!!: The smallest alpha delta epsilon is  0.95011468D-01

 Semi-Direct transformation.
 ModeAB=           4 MOrb=             5 LenV=     134111194
 LASXX=         1030 LTotXX=        1030 LenRXX=        2480
 LTotAB=        1450 MaxLAS=        1500 LenRXY=           0
 NonZer=        3510 LenScr=      655360 LnRSAI=        1500
 LnScr1=      655360 LExtra=           0 Total=      1314700
 MaxDsk=          -1 SrtSym=           T ITran=            3
 JobTyp=0 Pass  1:  I=   1 to   5.
 (rs|ai) integrals will be sorted in core.
 Spin components of T(2) and E(2):
     alpha-alpha T2 =       0.7154647814D-03 E2=     -0.1215619731D-02
     alpha-beta  T2 =       0.1709154916D+01 E2=     -0.3734777914D+00
     beta-beta   T2 =       0.7154647814D-03 E2=     -0.1215619731D-02
 ANorm=    0.1646385692D+01
 E2 =    -0.3759090308D+00 EUMP2 =    -0.52405022971091D+01
 Second order stability test of a single determinant RHF wave function:
 Stabil:  MDV=134217728
 ***********************************************************************
 Matrix         Lowest Root    Major Pairs
 ***********************************************************************
 Internal RHF     0.1430799    Stable
 RRHF --> CRHF    0.0148878    Stable
 RRHF --> RUHF   -0.4830282    5A=6B
 Not stable.
 ***********************************************************************

 **********************************************************************

            Population analysis using the SCF density.

 **********************************************************************

 Orbital symmetries:
       Occupied  (AG) (BU) (AG) (BU) (AG)
       Virtual   (BU) (BU) (AG) (BU) (AG)
 The electronic state is 1-AG.
 Alpha  occ. eigenvalues --   -0.78808  -0.71771  -0.60823  -0.47086  -0.14043
 Alpha virt. eigenvalues --   -0.04542   0.16798   0.28203   0.44802   0.60699
          Condensed to atoms (all electrons):
               1          2          3          4          5          6
     1  H    1.275992  -0.070686  -0.054362  -0.013714  -0.000839   0.002012
     2  H   -0.070686   0.709035   0.496116  -0.088352  -0.084040  -0.001537
     3  H   -0.054362   0.496116   0.662564  -0.063488  -0.098793  -0.003872
     4  H   -0.013714  -0.088352  -0.063488   0.786246   0.558717  -0.111808
     5  H   -0.000839  -0.084040  -0.098793   0.558717   0.789054  -0.074721
     6  H    0.002012  -0.001537  -0.003872  -0.111808  -0.074721   0.789054
     7  H    0.000693   0.002773   0.001629  -0.090903  -0.111808   0.558717
     8  H   -0.000163   0.000626   0.000758   0.001629  -0.003872  -0.098793
     9  H   -0.000149   0.000406   0.000626   0.002773  -0.001537  -0.084040
    10  H    0.000038  -0.000149  -0.000163   0.000693   0.002012  -0.000839
               7          8          9         10
     1  H    0.000693  -0.000163  -0.000149   0.000038
     2  H    0.002773   0.000626   0.000406  -0.000149
     3  H    0.001629   0.000758   0.000626  -0.000163
     4  H   -0.090903   0.001629   0.002773   0.000693
     5  H   -0.111808  -0.003872  -0.001537   0.002012
     6  H    0.558717  -0.098793  -0.084040  -0.000839
     7  H    0.786246  -0.063488  -0.088352  -0.013714
     8  H   -0.063488   0.662564   0.496116  -0.054362
     9  H   -0.088352   0.496116   0.709035  -0.070686
    10  H   -0.013714  -0.054362  -0.070686   1.275992
 Mulliken charges:
               1
     1  H   -0.138823
     2  H    0.035809
     3  H    0.058983
     4  H    0.018206
     5  H    0.025826
     6  H    0.025826
     7  H    0.018206
     8  H    0.058983
     9  H    0.035809
    10  H   -0.138823
 Sum of Mulliken charges =  -0.00000
 Mulliken charges with hydrogens summed into heavy atoms:
               1
 Electronic spatial extent (au):  <R**2>=            226.6754
 Charge=              0.0000 electrons
 Dipole moment (field-independent basis, Debye):
    X=             -0.0000    Y=              0.0000    Z=             -0.0000  Tot=              0.0000
 Quadrupole moment (field-independent basis, Debye-Ang):
   XX=            -14.2746   YY=            -28.9010   ZZ=            -12.8806
   XY=             -7.7451   XZ=             -0.0000   YZ=             -0.0000
 Traceless Quadrupole moment (field-independent basis, Debye-Ang):
   XX=              4.4108   YY=            -10.2156   ZZ=              5.8048
   XY=             -7.7451   XZ=             -0.0000   YZ=             -0.0000
 Octapole moment (field-independent basis, Debye-Ang**2):
  XXX=              0.0000  YYY=              0.0000  ZZZ=             -0.0000  XYY=              0.0000
  XXY=             -0.0000  XXZ=             -0.0000  XZZ=              0.0000  YZZ=              0.0000
  YYZ=             -0.0000  XYZ=             -0.0000
 Hexadecapole moment (field-independent basis, Debye-Ang**3):
 XXXX=           -110.1004 YYYY=           -593.5552 ZZZZ=            -15.5525 XXXY=           -100.4813
 XXXZ=             -0.0000 YYYX=           -192.8296 YYYZ=             -0.0000 ZZZX=             -0.0000
 ZZZY=             -0.0000 XXYY=           -123.0143 XXZZ=            -20.7071 YYZZ=            -62.4415
 XXYZ=             -0.0000 YYXZ=             -0.0000 ZZXY=            -28.4101
 N-N= 1.150876397271D+01 E-N=-3.247662303560D+01  KE= 5.180533530303D+00
 Symmetry AG   KE= 2.958361977270D+00
 Symmetry BG   KE= 0.000000000000D+00
 Symmetry AU   KE= 0.000000000000D+00
 Symmetry BU   KE= 2.222171553034D+00

 Test job not archived.
 1\1\GINC-SULU\Stability\RHF\Gen\H10\LCJ1\09-Feb-2017\0\\#rhf/gen scf(s
 ymm,tight,novaracc,noincfock,fulldiag) stable(crhf) geom=nocrowd test\
 \hf stability analysis of h10 triangular lattice, y= 1.465334071321529
 9\\0,1\H\H,1,1.5173808321\H,1,1.5173808321,2,30.1\H,2,1.5173808321,1,1
 49.9,3,0.,0\H,3,1.5173808321,1,180.,2,0.,0\H,4,1.5173808321,2,180.,1,0
 .,0\H,5,1.5173808321,3,180.,2,0.,0\H,6,1.5173808321,4,180.,1,0.,0\H,7,
 1.5173808321,5,180.,2,0.,0\H,8,1.5173808321,6,180.,1,0.,0\\Version=ES6
 4L-G09RevE.01\State=1-AG\HF=-4.8645933\MP2=-5.2405023\RMSD=4.289e-09\D
 ipole=0.,0.,0.\Quadrupole=3.2793316,4.3156922,-7.5950238,0.,-5.7582713
 ,0.\PG=C02H [SGH(H10)]\\@


 WOMEN HOLD UP HALF THE SKY. -- MAO TSE TUNG
 Job cpu time:       0 days  0 hours  0 minutes  1.0 seconds.
 File lengths (MBytes):  RWF=     84 Int=      0 D2E=      0 Chk=      2 Scr=      2
 Normal termination of Gaussian 09 at Thu Feb  9 15:50:41 2017.
