 Entering Gaussian System, Link 0=g09
 AtFile(1): H.gbs
            H     0
            S   10   1.00
               1000.000000000000            0.000068713567
                316.227766000000            0.000169141320
                100.000000000000            0.000823394812
                 31.622776600000            0.003425569236
                 10.000000000000            0.013951996000
                  3.162277660000            0.056909313560
                  1.000000000000            0.198286399900
                  0.316227766000            0.496922426700
                  0.100000000000            0.369846276400
                  0.031622776600            0.003752720039
            ****
 Initial command:
 /projects/guscus/apps/gau/g09-e1/g09/l1.exe "/users/lcj1/gaussian/h10/rhfstability/2rows/zmatrix/constarea/fwd/Gau-13164.inp" -scrdir="/users/lcj1/gaussian/h10/rhfstability/2rows/zmatrix/constarea/fwd/"
 Entering Link 1 = /projects/guscus/apps/gau/g09-e1/g09/l1.exe PID=     13167.
  
 Copyright (c) 1988,1990,1992,1993,1995,1998,2003,2009,2015,
            Gaussian, Inc.  All Rights Reserved.
  
 This is part of the Gaussian(R) 09 program.  It is based on
 the Gaussian(R) 03 system (copyright 2003, Gaussian, Inc.),
 the Gaussian(R) 98 system (copyright 1998, Gaussian, Inc.),
 the Gaussian(R) 94 system (copyright 1995, Gaussian, Inc.),
 the Gaussian 92(TM) system (copyright 1992, Gaussian, Inc.),
 the Gaussian 90(TM) system (copyright 1990, Gaussian, Inc.),
 the Gaussian 88(TM) system (copyright 1988, Gaussian, Inc.),
 the Gaussian 86(TM) system (copyright 1986, Carnegie Mellon
 University), and the Gaussian 82(TM) system (copyright 1983,
 Carnegie Mellon University). Gaussian is a federally registered
 trademark of Gaussian, Inc.
  
 This software contains proprietary and confidential information,
 including trade secrets, belonging to Gaussian, Inc.
  
 This software is provided under written license and may be
 used, copied, transmitted, or stored only in accord with that
 written license.
  
 The following legend is applicable only to US Government
 contracts under FAR:
  
                    RESTRICTED RIGHTS LEGEND
  
 Use, reproduction and disclosure by the US Government is
 subject to restrictions as set forth in subparagraphs (a)
 and (c) of the Commercial Computer Software - Restricted
 Rights clause in FAR 52.227-19.
  
 Gaussian, Inc.
 340 Quinnipiac St., Bldg. 40, Wallingford CT 06492
  
  
 ---------------------------------------------------------------
 Warning -- This program may not be used in any manner that
 competes with the business of Gaussian, Inc. or will provide
 assistance to any competitor of Gaussian, Inc.  The licensee
 of this program is prohibited from giving any competitor of
 Gaussian, Inc. access to this program.  By using this program,
 the user acknowledges that Gaussian, Inc. is engaged in the
 business of creating and licensing software in the field of
 computational chemistry and represents and warrants to the
 licensee that it is not a competitor of Gaussian, Inc. and that
 it will not use this program in any manner prohibited above.
 ---------------------------------------------------------------
  

 Cite this work as:
 Gaussian 09, Revision E.01,
 M. J. Frisch, G. W. Trucks, H. B. Schlegel, G. E. Scuseria, 
 M. A. Robb, J. R. Cheeseman, G. Scalmani, V. Barone, B. Mennucci, 
 G. A. Petersson, H. Nakatsuji, M. Caricato, X. Li, H. P. Hratchian, 
 A. F. Izmaylov, J. Bloino, G. Zheng, J. L. Sonnenberg, M. Hada, 
 M. Ehara, K. Toyota, R. Fukuda, J. Hasegawa, M. Ishida, T. Nakajima, 
 Y. Honda, O. Kitao, H. Nakai, T. Vreven, J. A. Montgomery, Jr., 
 J. E. Peralta, F. Ogliaro, M. Bearpark, J. J. Heyd, E. Brothers, 
 K. N. Kudin, V. N. Staroverov, T. Keith, R. Kobayashi, J. Normand, 
 K. Raghavachari, A. Rendell, J. C. Burant, S. S. Iyengar, J. Tomasi, 
 M. Cossi, N. Rega, J. M. Millam, M. Klene, J. E. Knox, J. B. Cross, 
 V. Bakken, C. Adamo, J. Jaramillo, R. Gomperts, R. E. Stratmann, 
 O. Yazyev, A. J. Austin, R. Cammi, C. Pomelli, J. W. Ochterski, 
 R. L. Martin, K. Morokuma, V. G. Zakrzewski, G. A. Voth, 
 P. Salvador, J. J. Dannenberg, S. Dapprich, A. D. Daniels, 
 O. Farkas, J. B. Foresman, J. V. Ortiz, J. Cioslowski, 
 and D. J. Fox, Gaussian, Inc., Wallingford CT, 2013.
 
 ******************************************
 Gaussian 09:  ES64L-G09RevE.01 30-Nov-2015
                 9-Feb-2017 
 ******************************************
 %chk=h10.chk
 ----------------------------------------------------------------------
 #rhf/gen scf(symm,tight,novaracc,noincfock,fulldiag) stable(crhf) geom
 =nocrowd test
 ----------------------------------------------------------------------
 1/38=1/1;
 2/12=1,17=6,18=5,40=1/2;
 3/5=7,16=1,25=1,30=1,116=1/1,2,3;
 4/9=4/1;
 5/5=100002,15=2,16=1,32=2,38=1/2;
 8/6=1,10=90,11=11/1,4;
 9/8=4,13=1/2;
 6/7=2,8=2,9=2,10=2,28=1/1;
 99/5=1,9=1/99;
 ----------------------------------------------------------------------
 hf stability analysis of h10 triangular lattice, y= 2.3053419614742690
 ----------------------------------------------------------------------
 Symbolic Z-matrix:
 Charge =  0 Multiplicity = 1
 H
 H                    1     2.31891 
 H                    1     2.31891  2     12.4 
 H                    2     2.31891  1     167.6    3     0.       0
 H                    3     2.31891  1     180.     2     0.       0
 H                    4     2.31891  2     180.     1     0.       0
 H                    5     2.31891  3     180.     2     0.       0
 H                    6     2.31891  4     180.     1     0.       0
 H                    7     2.31891  5     180.     2     0.       0
 H                    8     2.31891  6     180.     1     0.       0
 
                          Input orientation:                          
 ---------------------------------------------------------------------
 Center     Atomic      Atomic             Coordinates (Angstroms)
 Number     Number       Type             X           Y           Z
 ---------------------------------------------------------------------
      1          1           0        0.000000    0.000000    0.000000
      2          1           0        0.000000    0.000000    2.318905
      3          1           0        0.497951    0.000000    2.264811
      4          1           0        0.497951    0.000000    4.583716
      5          1           0        0.995902    0.000000    4.529621
      6          1           0        0.995902    0.000000    6.848526
      7          1           0        1.493853    0.000000    6.794432
      8          1           0        1.493853    0.000000    9.113337
      9          1           0        1.991804    0.000000    9.059242
     10          1           0        1.991804    0.000000   11.378147
 ---------------------------------------------------------------------
                    Distance matrix (angstroms):
                    1          2          3          4          5
     1  H    0.000000
     2  H    2.318905   0.000000
     3  H    2.318905   0.500881   0.000000
     4  H    4.610684   2.318905   2.318905   0.000000
     5  H    4.637811   2.424682   2.318905   0.500881   0.000000
     6  H    6.920559   4.637811   4.610684   2.318905   2.318905
     7  H    6.956716   4.718255   4.637811   2.424682   2.318905
     8  H    9.234961   6.956716   6.920559   4.637811   4.610684
     9  H    9.275621   7.028472   6.956716   4.718255   4.637811
    10  H   11.551170   9.275621   9.234961   6.956716   6.920559
                    6          7          8          9         10
     6  H    0.000000
     7  H    0.500881   0.000000
     8  H    2.318905   2.318905   0.000000
     9  H    2.424682   2.318905   0.500881   0.000000
    10  H    4.637811   4.610684   2.318905   2.318905   0.000000
 Stoichiometry    H10
 Framework group  C2H[SGH(H10)]
 Deg. of freedom     9
 Full point group                 C2H     NOp   4
 Largest Abelian subgroup         C2H     NOp   4
 Largest concise Abelian subgroup C2      NOp   2
                         Standard orientation:                         
 ---------------------------------------------------------------------
 Center     Atomic      Atomic             Coordinates (Angstroms)
 Number     Number       Type             X           Y           Z
 ---------------------------------------------------------------------
      1          1           0        0.995902    5.689074    0.000000
      2          1           0        0.995902    3.370168    0.000000
      3          1           0        0.497951    3.424263    0.000000
      4          1           0        0.497951    1.105358    0.000000
      5          1           0       -0.000000    1.159453    0.000000
      6          1           0       -0.000000   -1.159453    0.000000
      7          1           0       -0.497951   -1.105358    0.000000
      8          1           0       -0.497951   -3.424263    0.000000
      9          1           0       -0.995902   -3.370168    0.000000
     10          1           0       -0.995902   -5.689074    0.000000
 ---------------------------------------------------------------------
 Rotational constants (GHZ):    905.8995131      4.1636577      4.1446084
 General basis read from cards:  (5D, 7F)
 There are     5 symmetry adapted cartesian basis functions of AG  symmetry.
 There are     0 symmetry adapted cartesian basis functions of BG  symmetry.
 There are     0 symmetry adapted cartesian basis functions of AU  symmetry.
 There are     5 symmetry adapted cartesian basis functions of BU  symmetry.
 There are     5 symmetry adapted basis functions of AG  symmetry.
 There are     0 symmetry adapted basis functions of BG  symmetry.
 There are     0 symmetry adapted basis functions of AU  symmetry.
 There are     5 symmetry adapted basis functions of BU  symmetry.
    10 basis functions,   100 primitive gaussians,    10 cartesian basis functions
     5 alpha electrons        5 beta electrons
       nuclear repulsion energy        10.0988000975 Hartrees.
 NAtoms=   10 NActive=   10 NUniq=    5 SFac= 4.00D+00 NAtFMM=   60 NAOKFM=F Big=F
 Integral buffers will be    131072 words long.
 Regular integral format.
 Two-electron integral symmetry is turned on.
 One-electron integrals computed using PRISM.
 NBasis=    10 RedAO= T EigKep=  1.14D-01  NBF=     5     0     0     5
 NBsUse=    10 1.00D-06 EigRej= -1.00D+00 NBFU=     5     0     0     5
 ExpMin= 3.16D-02 ExpMax= 1.00D+03 ExpMxC= 1.00D+01 IAcc=3 IRadAn=         5 AccDes= 0.00D+00
 Harris functional with IExCor=  205 and IRadAn=       5 diagonalized for initial guess.
 HarFok:  IExCor=  205 AccDes= 0.00D+00 IRadAn=         5 IDoV= 1 UseB2=F ITyADJ=14
 ICtDFT=  3500011 ScaDFX=  1.000000  1.000000  1.000000  1.000000
 FoFCou: FMM=F IPFlag=           0 FMFlag=      100000 FMFlg1=           0
         NFxFlg=           0 DoJE=T BraDBF=F KetDBF=T FulRan=T
         wScrn=  0.000000 ICntrl=     500 IOpCl=  0 I1Cent=   200000004 NGrid=           0
         NMat0=    1 NMatS0=      1 NMatT0=    0 NMatD0=    1 NMtDS0=    0 NMtDT0=    0
 Petite list used in FoFCou.
 Initial guess orbital symmetries:
       Occupied  (AG) (BU) (AG) (BU) (AG)
       Virtual   (BU) (BU) (AG) (BU) (AG)
 The electronic state of the initial guess is 1-AG.
 Keep R1 ints in memory in symmetry-blocked form, NReq=870383.
 Requested convergence on RMS density matrix=1.00D-08 within 128 cycles.
 Requested convergence on MAX density matrix=1.00D-06.
 Requested convergence on             energy=1.00D-06.
 No special actions if energy rises.
 SCF Done:  E(RHF) =  -4.53500658870     A.U. after    5 cycles
            NFock=  5  Conv=0.48D-08     -V/T= 1.9653
 Range of M.O.s used for correlation:     1    10
 NBasis=    10 NAE=     5 NBE=     5 NFC=     0 NFV=     0
 NROrb=     10 NOA=     5 NOB=     5 NVA=     5 NVB=     5

 **** Warning!!: The smallest alpha delta epsilon is  0.45870281D-01

 Semi-Direct transformation.
 ModeAB=           4 MOrb=             5 LenV=     134116962
 LASXX=         1030 LTotXX=        1030 LenRXX=        2480
 LTotAB=        1450 MaxLAS=        1500 LenRXY=           0
 NonZer=        3510 LenScr=      655360 LnRSAI=        1500
 LnScr1=      655360 LExtra=           0 Total=      1314700
 MaxDsk=          -1 SrtSym=           T ITran=            3
 JobTyp=0 Pass  1:  I=   1 to   5.
 (rs|ai) integrals will be sorted in core.
 Spin components of T(2) and E(2):
     alpha-alpha T2 =       0.3871648698D-04 E2=     -0.1012923381D-03
     alpha-beta  T2 =       0.1012152009D+02 E2=     -0.9559821325D+00
     beta-beta   T2 =       0.3871648698D-04 E2=     -0.1012923381D-03
 ANorm=    0.3334905925D+01
 E2 =    -0.9561847172D+00 EUMP2 =    -0.54911913058775D+01
 Second order stability test of a single determinant RHF wave function:
 Stabil:  MDV=134217728
 ***********************************************************************
 Matrix         Lowest Root    Major Pairs
 ***********************************************************************
 Internal RHF     0.4076776    Stable
 RRHF --> CRHF    0.0000323    Stable
 RRHF --> RUHF   -0.5838374    5A=6B
 Not stable.
 ***********************************************************************

 **********************************************************************

            Population analysis using the SCF density.

 **********************************************************************

 Orbital symmetries:
       Occupied  (AG) (BU) (AG) (BU) (AG)
       Virtual   (BU) (BU) (AG) (BU) (AG)
 The electronic state is 1-AG.
 Alpha  occ. eigenvalues --   -0.73573  -0.72184  -0.70231  -0.68407  -0.20461
 Alpha virt. eigenvalues --   -0.15874   0.52538   0.57654   0.64766   0.71248
          Condensed to atoms (all electrons):
               1          2          3          4          5          6
     1  H    1.024541  -0.012813  -0.012781   0.000031   0.000047   0.000001
     2  H   -0.012813   0.552735   0.483390  -0.012818  -0.010712   0.000044
     3  H   -0.012781   0.483390   0.556834  -0.013480  -0.012908   0.000049
     4  H    0.000031  -0.012818  -0.013480   0.561224   0.488893  -0.012989
     5  H    0.000047  -0.010712  -0.012908   0.488893   0.561018  -0.013609
     6  H    0.000001   0.000044   0.000049  -0.012989  -0.013609   0.561018
     7  H    0.000001   0.000037   0.000045  -0.010816  -0.012989   0.488893
     8  H   -0.000000   0.000000   0.000000   0.000045   0.000049  -0.012908
     9  H   -0.000000   0.000000   0.000000   0.000037   0.000044  -0.010712
    10  H    0.000000  -0.000000  -0.000000   0.000001   0.000001   0.000047
               7          8          9         10
     1  H    0.000001  -0.000000  -0.000000   0.000000
     2  H    0.000037   0.000000   0.000000  -0.000000
     3  H    0.000045   0.000000   0.000000  -0.000000
     4  H   -0.010816   0.000045   0.000037   0.000001
     5  H   -0.012989   0.000049   0.000044   0.000001
     6  H    0.488893  -0.012908  -0.010712   0.000047
     7  H    0.561224  -0.013480  -0.012818   0.000031
     8  H   -0.013480   0.556834   0.483390  -0.012781
     9  H   -0.012818   0.483390   0.552735  -0.012813
    10  H    0.000031  -0.012781  -0.012813   1.024541
 Mulliken charges:
               1
     1  H    0.000974
     2  H    0.000137
     3  H   -0.001150
     4  H   -0.000127
     5  H    0.000167
     6  H    0.000167
     7  H   -0.000127
     8  H   -0.001150
     9  H    0.000137
    10  H    0.000974
 Sum of Mulliken charges =  -0.00000
 Mulliken charges with hydrogens summed into heavy atoms:
               1
 Electronic spatial extent (au):  <R**2>=            462.7755
 Charge=             -0.0000 electrons
 Dipole moment (field-independent basis, Debye):
    X=              0.0000    Y=             -0.0000    Z=              0.0000  Tot=              0.0000
 Quadrupole moment (field-independent basis, Debye-Ang):
   XX=            -12.6221   YY=            -15.2431   ZZ=            -13.4452
   XY=             -0.4213   XZ=             -0.0000   YZ=              0.0000
 Traceless Quadrupole moment (field-independent basis, Debye-Ang):
   XX=              1.1480   YY=             -1.4730   ZZ=              0.3250
   XY=             -0.4213   XZ=             -0.0000   YZ=              0.0000
 Octapole moment (field-independent basis, Debye-Ang**2):
  XXX=              0.0000  YYY=             -0.0000  ZZZ=             -0.0000  XYY=              0.0000
  XXY=              0.0000  XXZ=             -0.0000  XZZ=              0.0000  YZZ=             -0.0000
  YYZ=             -0.0000  XYZ=             -0.0000
 Hexadecapole moment (field-independent basis, Debye-Ang**3):
 XXXX=            -53.6478 YYYY=          -1043.0623 ZZZZ=            -16.7743 XXXY=            -88.1175
 XXXZ=              0.0000 YYYX=           -108.2003 YYYZ=              0.0000 ZZZX=              0.0000
 ZZZY=              0.0000 XXYY=           -165.7612 XXZZ=            -12.0065 YYZZ=           -161.8759
 XXYZ=              0.0000 YYXZ=              0.0000 ZZXY=            -30.4315
 N-N= 1.009880009752D+01 E-N=-2.786876077069D+01  KE= 4.698263281592D+00
 Symmetry AG   KE= 2.714985353857D+00
 Symmetry BG   KE= 0.000000000000D+00
 Symmetry AU   KE= 0.000000000000D+00
 Symmetry BU   KE= 1.983277927735D+00

 Test job not archived.
 1\1\GINC-SULU\Stability\RHF\Gen\H10\LCJ1\09-Feb-2017\0\\#rhf/gen scf(s
 ymm,tight,novaracc,noincfock,fulldiag) stable(crhf) geom=nocrowd test\
 \hf stability analysis of h10 triangular lattice, y= 2.305341961474269
 0\\0,1\H\H,1,2.318905312\H,1,2.318905312,2,12.4\H,2,2.318905312,1,167.
 6,3,0.,0\H,3,2.318905312,1,180.,2,0.,0\H,4,2.318905312,2,180.,1,0.,0\H
 ,5,2.318905312,3,180.,2,0.,0\H,6,2.318905312,4,180.,1,0.,0\H,7,2.31890
 5312,5,180.,2,0.,0\H,8,2.318905312,6,180.,1,0.,0\\Version=ES64L-G09Rev
 E.01\State=1-AG\HF=-4.5350066\MP2=-5.4911913\RMSD=4.779e-09\Dipole=0.,
 0.,0.\Quadrupole=0.8535354,0.2416092,-1.0951446,0.,-0.3132395,0.\PG=C0
 2H [SGH(H10)]\\@


 BE NOT THE FIRST BY WHOM THE NEW ARE TRIED,
 NOR YET THE THE LAST TO LAY THE OLD ASIDE.

                          -- ALEXANDER POPE
 Job cpu time:       0 days  0 hours  0 minutes  0.9 seconds.
 File lengths (MBytes):  RWF=     84 Int=      0 D2E=      0 Chk=      2 Scr=      2
 Normal termination of Gaussian 09 at Thu Feb  9 15:59:08 2017.
