 Entering Gaussian System, Link 0=g09
 AtFile(1): H.gbs
            H     0
            S   10   1.00
               1000.000000000000            0.000068713567
                316.227766000000            0.000169141320
                100.000000000000            0.000823394812
                 31.622776600000            0.003425569236
                 10.000000000000            0.013951996000
                  3.162277660000            0.056909313560
                  1.000000000000            0.198286399900
                  0.316227766000            0.496922426700
                  0.100000000000            0.369846276400
                  0.031622776600            0.003752720039
            ****
 Initial command:
 /projects/guscus/apps/gau/g09-e1/g09/l1.exe "/users/lcj1/gaussian/h10/rhfstability/2rows/zmatrix/constarea/fwd/Gau-24183.inp" -scrdir="/users/lcj1/gaussian/h10/rhfstability/2rows/zmatrix/constarea/fwd/"
 Entering Link 1 = /projects/guscus/apps/gau/g09-e1/g09/l1.exe PID=     24187.
  
 Copyright (c) 1988,1990,1992,1993,1995,1998,2003,2009,2015,
            Gaussian, Inc.  All Rights Reserved.
  
 This is part of the Gaussian(R) 09 program.  It is based on
 the Gaussian(R) 03 system (copyright 2003, Gaussian, Inc.),
 the Gaussian(R) 98 system (copyright 1998, Gaussian, Inc.),
 the Gaussian(R) 94 system (copyright 1995, Gaussian, Inc.),
 the Gaussian 92(TM) system (copyright 1992, Gaussian, Inc.),
 the Gaussian 90(TM) system (copyright 1990, Gaussian, Inc.),
 the Gaussian 88(TM) system (copyright 1988, Gaussian, Inc.),
 the Gaussian 86(TM) system (copyright 1986, Carnegie Mellon
 University), and the Gaussian 82(TM) system (copyright 1983,
 Carnegie Mellon University). Gaussian is a federally registered
 trademark of Gaussian, Inc.
  
 This software contains proprietary and confidential information,
 including trade secrets, belonging to Gaussian, Inc.
  
 This software is provided under written license and may be
 used, copied, transmitted, or stored only in accord with that
 written license.
  
 The following legend is applicable only to US Government
 contracts under FAR:
  
                    RESTRICTED RIGHTS LEGEND
  
 Use, reproduction and disclosure by the US Government is
 subject to restrictions as set forth in subparagraphs (a)
 and (c) of the Commercial Computer Software - Restricted
 Rights clause in FAR 52.227-19.
  
 Gaussian, Inc.
 340 Quinnipiac St., Bldg. 40, Wallingford CT 06492
  
  
 ---------------------------------------------------------------
 Warning -- This program may not be used in any manner that
 competes with the business of Gaussian, Inc. or will provide
 assistance to any competitor of Gaussian, Inc.  The licensee
 of this program is prohibited from giving any competitor of
 Gaussian, Inc. access to this program.  By using this program,
 the user acknowledges that Gaussian, Inc. is engaged in the
 business of creating and licensing software in the field of
 computational chemistry and represents and warrants to the
 licensee that it is not a competitor of Gaussian, Inc. and that
 it will not use this program in any manner prohibited above.
 ---------------------------------------------------------------
  

 Cite this work as:
 Gaussian 09, Revision E.01,
 M. J. Frisch, G. W. Trucks, H. B. Schlegel, G. E. Scuseria, 
 M. A. Robb, J. R. Cheeseman, G. Scalmani, V. Barone, B. Mennucci, 
 G. A. Petersson, H. Nakatsuji, M. Caricato, X. Li, H. P. Hratchian, 
 A. F. Izmaylov, J. Bloino, G. Zheng, J. L. Sonnenberg, M. Hada, 
 M. Ehara, K. Toyota, R. Fukuda, J. Hasegawa, M. Ishida, T. Nakajima, 
 Y. Honda, O. Kitao, H. Nakai, T. Vreven, J. A. Montgomery, Jr., 
 J. E. Peralta, F. Ogliaro, M. Bearpark, J. J. Heyd, E. Brothers, 
 K. N. Kudin, V. N. Staroverov, T. Keith, R. Kobayashi, J. Normand, 
 K. Raghavachari, A. Rendell, J. C. Burant, S. S. Iyengar, J. Tomasi, 
 M. Cossi, N. Rega, J. M. Millam, M. Klene, J. E. Knox, J. B. Cross, 
 V. Bakken, C. Adamo, J. Jaramillo, R. Gomperts, R. E. Stratmann, 
 O. Yazyev, A. J. Austin, R. Cammi, C. Pomelli, J. W. Ochterski, 
 R. L. Martin, K. Morokuma, V. G. Zakrzewski, G. A. Voth, 
 P. Salvador, J. J. Dannenberg, S. Dapprich, A. D. Daniels, 
 O. Farkas, J. B. Foresman, J. V. Ortiz, J. Cioslowski, 
 and D. J. Fox, Gaussian, Inc., Wallingford CT, 2013.
 
 ******************************************
 Gaussian 09:  ES64L-G09RevE.01 30-Nov-2015
                 9-Feb-2017 
 ******************************************
 %chk=h10.chk
 ----------------------------------------------------------------------
 #rhf/gen scf(symm,tight,novaracc,noincfock,fulldiag) stable(crhf) geom
 =nocrowd test
 ----------------------------------------------------------------------
 1/38=1/1;
 2/12=1,17=6,18=5,40=1/2;
 3/5=7,16=1,25=1,30=1,116=1/1,2,3;
 4/9=4/1;
 5/5=100002,15=2,16=1,32=2,38=1/2;
 8/6=1,10=90,11=11/1,4;
 9/8=4,13=1/2;
 6/7=2,8=2,9=2,10=2,28=1/1;
 99/5=1,9=1/99;
 ----------------------------------------------------------------------
 hf stability analysis of h10 triangular lattice, y= 1.5050035516311675
 ----------------------------------------------------------------------
 Symbolic Z-matrix:
 Charge =  0 Multiplicity = 1
 H
 H                    1     1.55313 
 H                    1     1.55313  2     28.6 
 H                    2     1.55313  1     151.4    3     0.       0
 H                    3     1.55313  1     180.     2     0.       0
 H                    4     1.55313  2     180.     1     0.       0
 H                    5     1.55313  3     180.     2     0.       0
 H                    6     1.55313  4     180.     1     0.       0
 H                    7     1.55313  5     180.     2     0.       0
 H                    8     1.55313  6     180.     1     0.       0
 
                          Input orientation:                          
 ---------------------------------------------------------------------
 Center     Atomic      Atomic             Coordinates (Angstroms)
 Number     Number       Type             X           Y           Z
 ---------------------------------------------------------------------
      1          1           0        0.000000    0.000000    0.000000
      2          1           0        0.000000    0.000000    1.553126
      3          1           0        0.743469    0.000000    1.363618
      4          1           0        0.743469    0.000000    2.916744
      5          1           0        1.486938    0.000000    2.727236
      6          1           0        1.486938    0.000000    4.280362
      7          1           0        2.230406    0.000000    4.090855
      8          1           0        2.230406    0.000000    5.643981
      9          1           0        2.973875    0.000000    5.454473
     10          1           0        2.973875    0.000000    7.007599
 ---------------------------------------------------------------------
                    Distance matrix (angstroms):
                    1          2          3          4          5
     1  H    0.000000
     2  H    1.553126   0.000000
     3  H    1.553126   0.767241   0.000000
     4  H    3.010007   1.553126   1.553126   0.000000
     5  H    3.106252   1.894602   1.553126   0.767241   0.000000
     6  H    4.531279   3.106252   3.010007   1.553126   1.553126
     7  H    4.659378   3.378576   3.106252   1.894602   1.553126
     8  H    6.068709   4.659378   4.531279   3.106252   3.010007
     9  H    6.212504   4.905552   4.659378   3.378576   3.106252
    10  H    7.612514   6.212504   6.068709   4.659378   4.531279
                    6          7          8          9         10
     6  H    0.000000
     7  H    0.767241   0.000000
     8  H    1.553126   1.553126   0.000000
     9  H    1.894602   1.553126   0.767241   0.000000
    10  H    3.106252   3.010007   1.553126   1.553126   0.000000
 Stoichiometry    H10
 Framework group  C2H[SGH(H10)]
 Deg. of freedom     9
 Full point group                 C2H     NOp   4
 Largest Abelian subgroup         C2H     NOp   4
 Largest concise Abelian subgroup C2      NOp   2
                         Standard orientation:                         
 ---------------------------------------------------------------------
 Center     Atomic      Atomic             Coordinates (Angstroms)
 Number     Number       Type             X           Y           Z
 ---------------------------------------------------------------------
      1          1           0        1.486938    3.503799    0.000000
      2          1           0        1.486938    1.950673   -0.000000
      3          1           0        0.743469    2.140181    0.000000
      4          1           0        0.743469    0.587055   -0.000000
      5          1           0       -0.000000    0.776563    0.000000
      6          1           0       -0.000000   -0.776563   -0.000000
      7          1           0       -0.743469   -0.587055   -0.000000
      8          1           0       -0.743469   -2.140181   -0.000000
      9          1           0       -1.486938   -1.950673   -0.000000
     10          1           0       -1.486938   -3.503799   -0.000000
 ---------------------------------------------------------------------
 Rotational constants (GHZ):    398.7849573      9.4583739      9.2392379
 General basis read from cards:  (5D, 7F)
 There are     5 symmetry adapted cartesian basis functions of AG  symmetry.
 There are     0 symmetry adapted cartesian basis functions of BG  symmetry.
 There are     0 symmetry adapted cartesian basis functions of AU  symmetry.
 There are     5 symmetry adapted cartesian basis functions of BU  symmetry.
 There are     5 symmetry adapted basis functions of AG  symmetry.
 There are     0 symmetry adapted basis functions of BG  symmetry.
 There are     0 symmetry adapted basis functions of AU  symmetry.
 There are     5 symmetry adapted basis functions of BU  symmetry.
    10 basis functions,   100 primitive gaussians,    10 cartesian basis functions
     5 alpha electrons        5 beta electrons
       nuclear repulsion energy        11.3915197911 Hartrees.
 NAtoms=   10 NActive=   10 NUniq=    5 SFac= 4.00D+00 NAtFMM=   60 NAOKFM=F Big=F
 Integral buffers will be    131072 words long.
 Regular integral format.
 Two-electron integral symmetry is turned on.
 One-electron integrals computed using PRISM.
 NBasis=    10 RedAO= T EigKep=  1.71D-01  NBF=     5     0     0     5
 NBsUse=    10 1.00D-06 EigRej= -1.00D+00 NBFU=     5     0     0     5
 ExpMin= 3.16D-02 ExpMax= 1.00D+03 ExpMxC= 1.00D+01 IAcc=3 IRadAn=         5 AccDes= 0.00D+00
 Harris functional with IExCor=  205 and IRadAn=       5 diagonalized for initial guess.
 HarFok:  IExCor=  205 AccDes= 0.00D+00 IRadAn=         5 IDoV= 1 UseB2=F ITyADJ=14
 ICtDFT=  3500011 ScaDFX=  1.000000  1.000000  1.000000  1.000000
 FoFCou: FMM=F IPFlag=           0 FMFlag=      100000 FMFlg1=           0
         NFxFlg=           0 DoJE=T BraDBF=F KetDBF=T FulRan=T
         wScrn=  0.000000 ICntrl=     500 IOpCl=  0 I1Cent=   200000004 NGrid=           0
         NMat0=    1 NMatS0=      1 NMatT0=    0 NMatD0=    1 NMtDS0=    0 NMtDT0=    0
 Petite list used in FoFCou.
 Initial guess orbital symmetries:
       Occupied  (AG) (BU) (AG) (BU) (AG)
       Virtual   (BU) (BU) (AG) (BU) (AG)
 The electronic state of the initial guess is 1-AG.
 Keep R1 ints in memory in symmetry-blocked form, NReq=874835.
 Requested convergence on RMS density matrix=1.00D-08 within 128 cycles.
 Requested convergence on MAX density matrix=1.00D-06.
 Requested convergence on             energy=1.00D-06.
 No special actions if energy rises.
 SCF Done:  E(RHF) =  -4.88527580630     A.U. after    9 cycles
            NFock=  9  Conv=0.22D-08     -V/T= 1.9494
 Range of M.O.s used for correlation:     1    10
 NBasis=    10 NAE=     5 NBE=     5 NFC=     0 NFV=     0
 NROrb=     10 NOA=     5 NOB=     5 NVA=     5 NVB=     5

 **** Warning!!: The smallest alpha delta epsilon is  0.87767638D-01

 Semi-Direct transformation.
 ModeAB=           4 MOrb=             5 LenV=     134111418
 LASXX=         1030 LTotXX=        1030 LenRXX=        2480
 LTotAB=        1450 MaxLAS=        1500 LenRXY=           0
 NonZer=        3510 LenScr=      655360 LnRSAI=        1500
 LnScr1=      655360 LExtra=           0 Total=      1314700
 MaxDsk=          -1 SrtSym=           T ITran=            3
 JobTyp=0 Pass  1:  I=   1 to   5.
 (rs|ai) integrals will be sorted in core.
 Spin components of T(2) and E(2):
     alpha-alpha T2 =       0.5911815073D-03 E2=     -0.1044917943D-02
     alpha-beta  T2 =       0.2111662148D+01 E2=     -0.4178488100D+00
     beta-beta   T2 =       0.5911815073D-03 E2=     -0.1044917943D-02
 ANorm=    0.1764325512D+01
 E2 =    -0.4199386459D+00 EUMP2 =    -0.53052144522019D+01
 Second order stability test of a single determinant RHF wave function:
 Stabil:  MDV=134217728
 ***********************************************************************
 Matrix         Lowest Root    Major Pairs
 ***********************************************************************
 Internal RHF     0.1793423    Stable
 RRHF --> CRHF    0.0115087    Stable
 RRHF --> RUHF   -0.5004864    5A=6B
 Not stable.
 ***********************************************************************

 **********************************************************************

            Population analysis using the SCF density.

 **********************************************************************

 Orbital symmetries:
       Occupied  (AG) (BU) (AG) (BU) (AG)
       Virtual   (BU) (BU) (AG) (BU) (AG)
 The electronic state is 1-AG.
 Alpha  occ. eigenvalues --   -0.77851  -0.71361  -0.61143  -0.48388  -0.14854
 Alpha virt. eigenvalues --   -0.06078   0.19205   0.30133   0.46220   0.61804
          Condensed to atoms (all electrons):
               1          2          3          4          5          6
     1  H    1.241019  -0.064348  -0.053472  -0.009764  -0.000726   0.001398
     2  H   -0.064348   0.693859   0.498955  -0.084852  -0.076911  -0.000508
     3  H   -0.053472   0.498955   0.661986  -0.064886  -0.091495  -0.002275
     4  H   -0.009764  -0.084852  -0.064886   0.768562   0.558573  -0.102427
     5  H   -0.000726  -0.076911  -0.091495   0.558573   0.768657  -0.075295
     6  H    0.001398  -0.000508  -0.002275  -0.102427  -0.075295   0.768657
     7  H    0.000531   0.002304   0.001529  -0.083350  -0.102427   0.558573
     8  H   -0.000117   0.000445   0.000549   0.001529  -0.002275  -0.091495
     9  H   -0.000105   0.000287   0.000445   0.002304  -0.000508  -0.076911
    10  H    0.000028  -0.000105  -0.000117   0.000531   0.001398  -0.000726
               7          8          9         10
     1  H    0.000531  -0.000117  -0.000105   0.000028
     2  H    0.002304   0.000445   0.000287  -0.000105
     3  H    0.001529   0.000549   0.000445  -0.000117
     4  H   -0.083350   0.001529   0.002304   0.000531
     5  H   -0.102427  -0.002275  -0.000508   0.001398
     6  H    0.558573  -0.091495  -0.076911  -0.000726
     7  H    0.768562  -0.064886  -0.084852  -0.009764
     8  H   -0.064886   0.661986   0.498955  -0.053472
     9  H   -0.084852   0.498955   0.693859  -0.064348
    10  H   -0.009764  -0.053472  -0.064348   1.241019
 Mulliken charges:
               1
     1  H   -0.114445
     2  H    0.030875
     3  H    0.048780
     4  H    0.013781
     5  H    0.021009
     6  H    0.021009
     7  H    0.013781
     8  H    0.048780
     9  H    0.030875
    10  H   -0.114445
 Sum of Mulliken charges =  -0.00000
 Mulliken charges with hydrogens summed into heavy atoms:
               1
 Electronic spatial extent (au):  <R**2>=            234.1102
 Charge=             -0.0000 electrons
 Dipole moment (field-independent basis, Debye):
    X=              0.0000    Y=             -0.0000    Z=              0.0000  Tot=              0.0000
 Quadrupole moment (field-independent basis, Debye-Ang):
   XX=            -13.7628   YY=            -27.5230   ZZ=            -12.9089
   XY=             -6.6958   XZ=             -0.0000   YZ=             -0.0000
 Traceless Quadrupole moment (field-independent basis, Debye-Ang):
   XX=              4.3021   YY=             -9.4581   ZZ=              5.1560
   XY=             -6.6958   XZ=             -0.0000   YZ=             -0.0000
 Octapole moment (field-independent basis, Debye-Ang**2):
  XXX=              0.0000  YYY=              0.0000  ZZZ=              0.0000  XYY=             -0.0000
  XXY=              0.0000  XXZ=              0.0000  XZZ=              0.0000  YZZ=             -0.0000
  YYZ=              0.0000  XYZ=              0.0000
 Hexadecapole moment (field-independent basis, Debye-Ang**3):
 XXXX=           -103.8004 YYYY=           -610.5504 ZZZZ=            -15.6110 XXXY=            -97.2464
 XXXZ=             -0.0000 YYYX=           -185.4086 YYYZ=             -0.0000 ZZZX=             -0.0000
 ZZZY=             -0.0000 XXYY=           -119.6585 XXZZ=            -19.9094 YYZZ=            -66.0697
 XXYZ=             -0.0000 YYXZ=             -0.0000 ZZXY=            -28.5412
 N-N= 1.139151979114D+01 E-N=-3.222752062634D+01  KE= 5.145867617616D+00
 Symmetry AG   KE= 2.928144900485D+00
 Symmetry BG   KE= 0.000000000000D+00
 Symmetry AU   KE= 0.000000000000D+00
 Symmetry BU   KE= 2.217722717131D+00

 Test job not archived.
 1\1\GINC-SULU\Stability\RHF\Gen\H10\LCJ1\09-Feb-2017\0\\#rhf/gen scf(s
 ymm,tight,novaracc,noincfock,fulldiag) stable(crhf) geom=nocrowd test\
 \hf stability analysis of h10 triangular lattice, y= 1.505003551631167
 5\\0,1\H\H,1,1.553126011\H,1,1.553126011,2,28.6\H,2,1.553126011,1,151.
 4,3,0.,0\H,3,1.553126011,1,180.,2,0.,0\H,4,1.553126011,2,180.,1,0.,0\H
 ,5,1.553126011,3,180.,2,0.,0\H,6,1.553126011,4,180.,1,0.,0\H,7,1.55312
 6011,5,180.,2,0.,0\H,8,1.553126011,6,180.,1,0.,0\\Version=ES64L-G09Rev
 E.01\State=1-AG\HF=-4.8852758\MP2=-5.3052145\RMSD=2.202e-09\Dipole=0.,
 0.,0.\Quadrupole=3.1985055,3.8333422,-7.0318477,0.,-4.9781685,0.\PG=C0
 2H [SGH(H10)]\\@


 LORD, MAN... WERE YE BUT WHYLES WHERE I AM, 
 THE GENTILES YE WAD NE'ER ENVY 'EM.        
 IT'S TRUE, THEY NEEDNA STARVE OR SWEAT,     
 THRO' WINTER'S CAULD OR SIMMER'S HEAT...  
 THEY'VE NAE SAIR WARK TO CRAZE THEIR BANES, 
 AND FILL AULD AGE WITH GRIPS AN' GRANES...  
                                             
 BUT HUMAN BODIES ARE SIC FOOLS              
 FOR A' THEIR COLLEGES AND SCHOOLS,           
 THAT WHEN NAE REAL ILLS PERPLEX THEM,       
 THEY MAK ENOW THEMSELVES TO VEX THEM,       
 AN' AYE THE LESS THEY HAE TO STURT THEM,    
 IN LIKE PROPORTION LESS WILL HURT THEM....  
                                             
                (ROBERT BURNS 'THE TWA DOGS')
 Job cpu time:       0 days  0 hours  0 minutes  1.0 seconds.
 File lengths (MBytes):  RWF=     84 Int=      0 D2E=      0 Chk=      2 Scr=      2
 Normal termination of Gaussian 09 at Thu Feb  9 15:51:25 2017.
