 Entering Gaussian System, Link 0=g09
 AtFile(1): H.gbs
            H     0
            S   10   1.00
               1000.000000000000            0.000068713567
                316.227766000000            0.000169141320
                100.000000000000            0.000823394812
                 31.622776600000            0.003425569236
                 10.000000000000            0.013951996000
                  3.162277660000            0.056909313560
                  1.000000000000            0.198286399900
                  0.316227766000            0.496922426700
                  0.100000000000            0.369846276400
                  0.031622776600            0.003752720039
            ****
 Initial command:
 /projects/guscus/apps/gau/g09-e1/g09/l1.exe "/users/lcj1/gaussian/h10/rhfstability/2rows/zmatrix/constarea/fwd/Gau-6260.inp" -scrdir="/users/lcj1/gaussian/h10/rhfstability/2rows/zmatrix/constarea/fwd/"
 Entering Link 1 = /projects/guscus/apps/gau/g09-e1/g09/l1.exe PID=      6261.
  
 Copyright (c) 1988,1990,1992,1993,1995,1998,2003,2009,2015,
            Gaussian, Inc.  All Rights Reserved.
  
 This is part of the Gaussian(R) 09 program.  It is based on
 the Gaussian(R) 03 system (copyright 2003, Gaussian, Inc.),
 the Gaussian(R) 98 system (copyright 1998, Gaussian, Inc.),
 the Gaussian(R) 94 system (copyright 1995, Gaussian, Inc.),
 the Gaussian 92(TM) system (copyright 1992, Gaussian, Inc.),
 the Gaussian 90(TM) system (copyright 1990, Gaussian, Inc.),
 the Gaussian 88(TM) system (copyright 1988, Gaussian, Inc.),
 the Gaussian 86(TM) system (copyright 1986, Carnegie Mellon
 University), and the Gaussian 82(TM) system (copyright 1983,
 Carnegie Mellon University). Gaussian is a federally registered
 trademark of Gaussian, Inc.
  
 This software contains proprietary and confidential information,
 including trade secrets, belonging to Gaussian, Inc.
  
 This software is provided under written license and may be
 used, copied, transmitted, or stored only in accord with that
 written license.
  
 The following legend is applicable only to US Government
 contracts under FAR:
  
                    RESTRICTED RIGHTS LEGEND
  
 Use, reproduction and disclosure by the US Government is
 subject to restrictions as set forth in subparagraphs (a)
 and (c) of the Commercial Computer Software - Restricted
 Rights clause in FAR 52.227-19.
  
 Gaussian, Inc.
 340 Quinnipiac St., Bldg. 40, Wallingford CT 06492
  
  
 ---------------------------------------------------------------
 Warning -- This program may not be used in any manner that
 competes with the business of Gaussian, Inc. or will provide
 assistance to any competitor of Gaussian, Inc.  The licensee
 of this program is prohibited from giving any competitor of
 Gaussian, Inc. access to this program.  By using this program,
 the user acknowledges that Gaussian, Inc. is engaged in the
 business of creating and licensing software in the field of
 computational chemistry and represents and warrants to the
 licensee that it is not a competitor of Gaussian, Inc. and that
 it will not use this program in any manner prohibited above.
 ---------------------------------------------------------------
  

 Cite this work as:
 Gaussian 09, Revision E.01,
 M. J. Frisch, G. W. Trucks, H. B. Schlegel, G. E. Scuseria, 
 M. A. Robb, J. R. Cheeseman, G. Scalmani, V. Barone, B. Mennucci, 
 G. A. Petersson, H. Nakatsuji, M. Caricato, X. Li, H. P. Hratchian, 
 A. F. Izmaylov, J. Bloino, G. Zheng, J. L. Sonnenberg, M. Hada, 
 M. Ehara, K. Toyota, R. Fukuda, J. Hasegawa, M. Ishida, T. Nakajima, 
 Y. Honda, O. Kitao, H. Nakai, T. Vreven, J. A. Montgomery, Jr., 
 J. E. Peralta, F. Ogliaro, M. Bearpark, J. J. Heyd, E. Brothers, 
 K. N. Kudin, V. N. Staroverov, T. Keith, R. Kobayashi, J. Normand, 
 K. Raghavachari, A. Rendell, J. C. Burant, S. S. Iyengar, J. Tomasi, 
 M. Cossi, N. Rega, J. M. Millam, M. Klene, J. E. Knox, J. B. Cross, 
 V. Bakken, C. Adamo, J. Jaramillo, R. Gomperts, R. E. Stratmann, 
 O. Yazyev, A. J. Austin, R. Cammi, C. Pomelli, J. W. Ochterski, 
 R. L. Martin, K. Morokuma, V. G. Zakrzewski, G. A. Voth, 
 P. Salvador, J. J. Dannenberg, S. Dapprich, A. D. Daniels, 
 O. Farkas, J. B. Foresman, J. V. Ortiz, J. Cioslowski, 
 and D. J. Fox, Gaussian, Inc., Wallingford CT, 2013.
 
 ******************************************
 Gaussian 09:  ES64L-G09RevE.01 30-Nov-2015
                 9-Feb-2017 
 ******************************************
 %chk=h10.chk
 ----------------------------------------------------------------------
 #rhf/gen scf(symm,tight,novaracc,noincfock,fulldiag) stable(crhf) geom
 =nocrowd test
 ----------------------------------------------------------------------
 1/38=1/1;
 2/12=1,17=6,18=5,40=1/2;
 3/5=7,16=1,25=1,30=1,116=1/1,2,3;
 4/9=4/1;
 5/5=100002,15=2,16=1,32=2,38=1/2;
 8/6=1,10=90,11=11/1,4;
 9/8=4,13=1/2;
 6/7=2,8=2,9=2,10=2,28=1/1;
 99/5=1,9=1/99;
 ----------------------------------------------------------------------
 hf stability analysis of h10 triangular lattice, y= 0.9225735451415472
 1
 ----------------------------------------------------------------------
 Symbolic Z-matrix:
 Charge =  0 Multiplicity = 1
 H
 H                    1     1.1148 
 H                    1     1.1148   2     68.3 
 H                    2     1.1148   1     111.7    3     0.       0
 H                    3     1.1148   1     180.     2     0.       0
 H                    4     1.1148   2     180.     1     0.       0
 H                    5     1.1148   3     180.     2     0.       0
 H                    6     1.1148   4     180.     1     0.       0
 H                    7     1.1148   5     180.     2     0.       0
 H                    8     1.1148   6     180.     1     0.       0
 
                          Input orientation:                          
 ---------------------------------------------------------------------
 Center     Atomic      Atomic             Coordinates (Angstroms)
 Number     Number       Type             X           Y           Z
 ---------------------------------------------------------------------
      1          1           0        0.000000    0.000000    0.000000
      2          1           0        0.000000    0.000000    1.114797
      3          1           0        1.035794    0.000000    0.412193
      4          1           0        1.035794    0.000000    1.526990
      5          1           0        2.071589    0.000000    0.824385
      6          1           0        2.071589    0.000000    1.939182
      7          1           0        3.107383    0.000000    1.236578
      8          1           0        3.107383    0.000000    2.351375
      9          1           0        4.143177    0.000000    1.648771
     10          1           0        4.143177    0.000000    2.763568
 ---------------------------------------------------------------------
                    Distance matrix (angstroms):
                    1          2          3          4          5
     1  H    0.000000
     2  H    1.114797   0.000000
     3  H    1.114797   1.251608   0.000000
     4  H    1.845147   1.114797   1.114797   0.000000
     5  H    2.229594   2.091846   1.114797   1.251608   0.000000
     6  H    2.837588   2.229594   1.845147   1.114797   1.114797
     7  H    3.344391   3.109768   2.229594   2.091846   1.114797
     8  H    3.896767   3.344391   2.837588   2.229594   1.845147
     9  H    4.459189   4.177445   3.344391   3.109768   2.229594
    10  H    4.980284   4.459189   3.896767   3.344391   2.837588
                    6          7          8          9         10
     6  H    0.000000
     7  H    1.251608   0.000000
     8  H    1.114797   1.114797   0.000000
     9  H    2.091846   1.114797   1.251608   0.000000
    10  H    2.229594   1.845147   1.114797   1.114797   0.000000
 Stoichiometry    H10
 Framework group  C2H[SGH(H10)]
 Deg. of freedom     9
 Full point group                 C2H     NOp   4
 Largest Abelian subgroup         C2H     NOp   4
 Largest concise Abelian subgroup C2      NOp   2
                         Standard orientation:                         
 ---------------------------------------------------------------------
 Center     Atomic      Atomic             Coordinates (Angstroms)
 Number     Number       Type             X           Y           Z
 ---------------------------------------------------------------------
      1          1           0        2.071589    1.381784    0.000000
      2          1           0        2.071589    0.266987    0.000000
      3          1           0        1.035794    0.969591    0.000000
      4          1           0        1.035794   -0.145206    0.000000
      5          1           0       -0.000000    0.557399    0.000000
      6          1           0       -0.000000   -0.557399    0.000000
      7          1           0       -1.035794    0.145206    0.000000
      8          1           0       -1.035794   -0.969591    0.000000
      9          1           0       -2.071589   -0.266987    0.000000
     10          1           0       -2.071589   -1.381784    0.000000
 ---------------------------------------------------------------------
 Rotational constants (GHZ):    190.5317152     19.7964843     17.9332021
 General basis read from cards:  (5D, 7F)
 There are     5 symmetry adapted cartesian basis functions of AG  symmetry.
 There are     0 symmetry adapted cartesian basis functions of BG  symmetry.
 There are     0 symmetry adapted cartesian basis functions of AU  symmetry.
 There are     5 symmetry adapted cartesian basis functions of BU  symmetry.
 There are     5 symmetry adapted basis functions of AG  symmetry.
 There are     0 symmetry adapted basis functions of BG  symmetry.
 There are     0 symmetry adapted basis functions of AU  symmetry.
 There are     5 symmetry adapted basis functions of BU  symmetry.
    10 basis functions,   100 primitive gaussians,    10 cartesian basis functions
     5 alpha electrons        5 beta electrons
       nuclear repulsion energy        13.4668179360 Hartrees.
 NAtoms=   10 NActive=   10 NUniq=    5 SFac= 4.00D+00 NAtFMM=   60 NAOKFM=F Big=F
 Integral buffers will be    131072 words long.
 Regular integral format.
 Two-electron integral symmetry is turned on.
 One-electron integrals computed using PRISM.
 NBasis=    10 RedAO= T EigKep=  1.56D-01  NBF=     5     0     0     5
 NBsUse=    10 1.00D-06 EigRej= -1.00D+00 NBFU=     5     0     0     5
 ExpMin= 3.16D-02 ExpMax= 1.00D+03 ExpMxC= 1.00D+01 IAcc=3 IRadAn=         5 AccDes= 0.00D+00
 Harris functional with IExCor=  205 and IRadAn=       5 diagonalized for initial guess.
 HarFok:  IExCor=  205 AccDes= 0.00D+00 IRadAn=         5 IDoV= 1 UseB2=F ITyADJ=14
 ICtDFT=  3500011 ScaDFX=  1.000000  1.000000  1.000000  1.000000
 FoFCou: FMM=F IPFlag=           0 FMFlag=      100000 FMFlg1=           0
         NFxFlg=           0 DoJE=T BraDBF=F KetDBF=T FulRan=T
         wScrn=  0.000000 ICntrl=     500 IOpCl=  0 I1Cent=   200000004 NGrid=           0
         NMat0=    1 NMatS0=      1 NMatT0=    0 NMatD0=    1 NMtDS0=    0 NMtDT0=    0
 Petite list used in FoFCou.
 Initial guess orbital symmetries:
       Occupied  (AG) (BU) (AG) (BU) (BU)
       Virtual   (AG) (BU) (AG) (AG) (BU)
 The electronic state of the initial guess is 1-AG.
 Keep R1 ints in memory in symmetry-blocked form, NReq=879469.
 Requested convergence on RMS density matrix=1.00D-08 within 128 cycles.
 Requested convergence on MAX density matrix=1.00D-06.
 Requested convergence on             energy=1.00D-06.
 No special actions if energy rises.
 SCF Done:  E(RHF) =  -4.86345937894     A.U. after   10 cycles
            NFock= 10  Conv=0.72D-08     -V/T= 1.9468
 Range of M.O.s used for correlation:     1    10
 NBasis=    10 NAE=     5 NBE=     5 NFC=     0 NFV=     0
 NROrb=     10 NOA=     5 NOB=     5 NVA=     5 NVB=     5
 Semi-Direct transformation.
 ModeAB=           4 MOrb=             5 LenV=     134107148
 LASXX=         1030 LTotXX=        1030 LenRXX=        2480
 LTotAB=        1450 MaxLAS=        1500 LenRXY=           0
 NonZer=        3510 LenScr=      655360 LnRSAI=        1500
 LnScr1=      655360 LExtra=           0 Total=      1314700
 MaxDsk=          -1 SrtSym=           T ITran=            3
 JobTyp=0 Pass  1:  I=   1 to   5.
 (rs|ai) integrals will be sorted in core.
 Spin components of T(2) and E(2):
     alpha-alpha T2 =       0.6261640775D-02 E2=     -0.7686893907D-02
     alpha-beta  T2 =       0.7601795310D-01 E2=     -0.9726518854D-01
     beta-beta   T2 =       0.6261640775D-02 E2=     -0.7686893907D-02
 ANorm=    0.1043331795D+01
 E2 =    -0.1126389764D+00 EUMP2 =    -0.49760983552927D+01
 Second order stability test of a single determinant RHF wave function:
 Stabil:  MDV=134217728
 ***********************************************************************
 Matrix         Lowest Root    Major Pairs
 ***********************************************************************
 Internal RHF     0.0545121    Stable
 RRHF --> CRHF    0.0032122    Stable
 RRHF --> RUHF   -0.1130694    5A=6B
 Not stable.
 ***********************************************************************

 **********************************************************************

            Population analysis using the SCF density.

 **********************************************************************

 Orbital symmetries:
       Occupied  (AG) (BU) (AG) (BU) (BU)
       Virtual   (AG) (BU) (AG) (AG) (BU)
 The electronic state is 1-AG.
 Alpha  occ. eigenvalues --   -0.85425  -0.74008  -0.54816  -0.37442  -0.29909
 Alpha virt. eigenvalues --   -0.01861   0.22470   0.27186   0.53986   0.71896
          Condensed to atoms (all electrons):
               1          2          3          4          5          6
     1  H    1.017738   0.370225  -0.064642  -0.180781  -0.064080  -0.005716
     2  H    0.370225   0.667870  -0.062872  -0.039203  -0.106621   0.025942
     3  H   -0.064642  -0.062872   0.768136   0.123669   0.341331  -0.149560
     4  H   -0.180781  -0.039203   0.123669   1.187878   0.008782   0.193358
     5  H   -0.064080  -0.106621   0.341331   0.008782   0.974352  -0.200885
     6  H   -0.005716   0.025942  -0.149560   0.193358  -0.200885   0.974352
     7  H    0.019025  -0.002084  -0.017316  -0.181875   0.193358   0.008782
     8  H    0.004701   0.012486  -0.043306  -0.017316  -0.149560   0.341331
     9  H   -0.000540  -0.001117   0.012486  -0.002084   0.025942  -0.106621
    10  H   -0.000994  -0.000540   0.004701   0.019025  -0.005716  -0.064080
               7          8          9         10
     1  H    0.019025   0.004701  -0.000540  -0.000994
     2  H   -0.002084   0.012486  -0.001117  -0.000540
     3  H   -0.017316  -0.043306   0.012486   0.004701
     4  H   -0.181875  -0.017316  -0.002084   0.019025
     5  H    0.193358  -0.149560   0.025942  -0.005716
     6  H    0.008782   0.341331  -0.106621  -0.064080
     7  H    1.187878   0.123669  -0.039203  -0.180781
     8  H    0.123669   0.768136  -0.062872  -0.064642
     9  H   -0.039203  -0.062872   0.667870   0.370225
    10  H   -0.180781  -0.064642   0.370225   1.017738
 Mulliken charges:
               1
     1  H   -0.094935
     2  H    0.135915
     3  H    0.087374
     4  H   -0.111452
     5  H   -0.016901
     6  H   -0.016901
     7  H   -0.111452
     8  H    0.087374
     9  H    0.135915
    10  H   -0.094935
 Sum of Mulliken charges =   0.00000
 Mulliken charges with hydrogens summed into heavy atoms:
               1
 Electronic spatial extent (au):  <R**2>=            131.5955
 Charge=              0.0000 electrons
 Dipole moment (field-independent basis, Debye):
    X=              0.0000    Y=              0.0000    Z=              0.0000  Tot=              0.0000
 Quadrupole moment (field-independent basis, Debye-Ang):
   XX=            -14.7072   YY=            -15.0801   ZZ=            -12.9041
   XY=             -1.7946   XZ=             -0.0000   YZ=             -0.0000
 Traceless Quadrupole moment (field-independent basis, Debye-Ang):
   XX=             -0.4767   YY=             -0.8497   ZZ=              1.3264
   XY=             -1.7946   XZ=             -0.0000   YZ=             -0.0000
 Octapole moment (field-independent basis, Debye-Ang**2):
  XXX=              0.0000  YYY=              0.0000  ZZZ=             -0.0000  XYY=              0.0000
  XXY=              0.0000  XXZ=             -0.0000  XZZ=              0.0000  YZZ=              0.0000
  YYZ=             -0.0000  XYZ=             -0.0000
 Hexadecapole moment (field-independent basis, Debye-Ang**3):
 XXXX=           -220.2432 YYYY=            -72.9143 ZZZZ=            -15.5383 XXXY=            -58.3517
 XXXZ=             -0.0000 YYYX=            -38.7229 YYYZ=             -0.0000 ZZZX=             -0.0000
 ZZZY=             -0.0000 XXYY=            -53.8467 XXZZ=            -34.6852 YYZZ=            -14.6056
 XXYZ=             -0.0000 YYXZ=             -0.0000 ZZXY=            -11.9225
 N-N= 1.346681793597D+01 E-N=-3.616554145635D+01  KE= 5.136982749809D+00
 Symmetry AG   KE= 1.493783894476D+00
 Symmetry BG   KE= 0.000000000000D+00
 Symmetry AU   KE= 0.000000000000D+00
 Symmetry BU   KE= 3.643198855333D+00

 Test job not archived.
 1\1\GINC-SULU\Stability\RHF\Gen\H10\LCJ1\09-Feb-2017\0\\#rhf/gen scf(s
 ymm,tight,novaracc,noincfock,fulldiag) stable(crhf) geom=nocrowd test\
 \hf stability analysis of h10 triangular lattice, y= 0.922573545141547
 21\\0,1\H\H,1,1.1147971413\H,1,1.1147971413,2,68.3\H,2,1.1147971413,1,
 111.7,3,0.,0\H,3,1.1147971413,1,180.,2,0.,0\H,4,1.1147971413,2,180.,1,
 0.,0\H,5,1.1147971413,3,180.,2,0.,0\H,6,1.1147971413,4,180.,1,0.,0\H,7
 ,1.1147971413,5,180.,2,0.,0\H,8,1.1147971413,6,180.,1,0.,0\\Version=ES
 64L-G09RevE.01\State=1-AG\HF=-4.8634594\MP2=-4.9760984\RMSD=7.177e-09\
 Dipole=0.,0.,0.\Quadrupole=-0.3544291,0.9861407,-0.6317117,0.,-1.33423
 55,0.\PG=C02H [SGH(H10)]\\@


 AN AIRPLANE IS A COLLECTION OF SPARE PARTS
 FLYING IN CLOSE FORMATION.
 Job cpu time:       0 days  0 hours  0 minutes  0.9 seconds.
 File lengths (MBytes):  RWF=     84 Int=      0 D2E=      0 Chk=      2 Scr=      2
 Normal termination of Gaussian 09 at Thu Feb  9 15:32:23 2017.
