 Entering Gaussian System, Link 0=g09
 AtFile(1): H.gbs
            H     0
            S   10   1.00
               1000.000000000000            0.000068713567
                316.227766000000            0.000169141320
                100.000000000000            0.000823394812
                 31.622776600000            0.003425569236
                 10.000000000000            0.013951996000
                  3.162277660000            0.056909313560
                  1.000000000000            0.198286399900
                  0.316227766000            0.496922426700
                  0.100000000000            0.369846276400
                  0.031622776600            0.003752720039
            ****
 Initial command:
 /projects/guscus/apps/gau/g09-e1/g09/l1.exe "/users/lcj1/gaussian/h10/rhfstability/2rows/zmatrix/constarea/fwd/Gau-6367.inp" -scrdir="/users/lcj1/gaussian/h10/rhfstability/2rows/zmatrix/constarea/fwd/"
 Entering Link 1 = /projects/guscus/apps/gau/g09-e1/g09/l1.exe PID=      6368.
  
 Copyright (c) 1988,1990,1992,1993,1995,1998,2003,2009,2015,
            Gaussian, Inc.  All Rights Reserved.
  
 This is part of the Gaussian(R) 09 program.  It is based on
 the Gaussian(R) 03 system (copyright 2003, Gaussian, Inc.),
 the Gaussian(R) 98 system (copyright 1998, Gaussian, Inc.),
 the Gaussian(R) 94 system (copyright 1995, Gaussian, Inc.),
 the Gaussian 92(TM) system (copyright 1992, Gaussian, Inc.),
 the Gaussian 90(TM) system (copyright 1990, Gaussian, Inc.),
 the Gaussian 88(TM) system (copyright 1988, Gaussian, Inc.),
 the Gaussian 86(TM) system (copyright 1986, Carnegie Mellon
 University), and the Gaussian 82(TM) system (copyright 1983,
 Carnegie Mellon University). Gaussian is a federally registered
 trademark of Gaussian, Inc.
  
 This software contains proprietary and confidential information,
 including trade secrets, belonging to Gaussian, Inc.
  
 This software is provided under written license and may be
 used, copied, transmitted, or stored only in accord with that
 written license.
  
 The following legend is applicable only to US Government
 contracts under FAR:
  
                    RESTRICTED RIGHTS LEGEND
  
 Use, reproduction and disclosure by the US Government is
 subject to restrictions as set forth in subparagraphs (a)
 and (c) of the Commercial Computer Software - Restricted
 Rights clause in FAR 52.227-19.
  
 Gaussian, Inc.
 340 Quinnipiac St., Bldg. 40, Wallingford CT 06492
  
  
 ---------------------------------------------------------------
 Warning -- This program may not be used in any manner that
 competes with the business of Gaussian, Inc. or will provide
 assistance to any competitor of Gaussian, Inc.  The licensee
 of this program is prohibited from giving any competitor of
 Gaussian, Inc. access to this program.  By using this program,
 the user acknowledges that Gaussian, Inc. is engaged in the
 business of creating and licensing software in the field of
 computational chemistry and represents and warrants to the
 licensee that it is not a competitor of Gaussian, Inc. and that
 it will not use this program in any manner prohibited above.
 ---------------------------------------------------------------
  

 Cite this work as:
 Gaussian 09, Revision E.01,
 M. J. Frisch, G. W. Trucks, H. B. Schlegel, G. E. Scuseria, 
 M. A. Robb, J. R. Cheeseman, G. Scalmani, V. Barone, B. Mennucci, 
 G. A. Petersson, H. Nakatsuji, M. Caricato, X. Li, H. P. Hratchian, 
 A. F. Izmaylov, J. Bloino, G. Zheng, J. L. Sonnenberg, M. Hada, 
 M. Ehara, K. Toyota, R. Fukuda, J. Hasegawa, M. Ishida, T. Nakajima, 
 Y. Honda, O. Kitao, H. Nakai, T. Vreven, J. A. Montgomery, Jr., 
 J. E. Peralta, F. Ogliaro, M. Bearpark, J. J. Heyd, E. Brothers, 
 K. N. Kudin, V. N. Staroverov, T. Keith, R. Kobayashi, J. Normand, 
 K. Raghavachari, A. Rendell, J. C. Burant, S. S. Iyengar, J. Tomasi, 
 M. Cossi, N. Rega, J. M. Millam, M. Klene, J. E. Knox, J. B. Cross, 
 V. Bakken, C. Adamo, J. Jaramillo, R. Gomperts, R. E. Stratmann, 
 O. Yazyev, A. J. Austin, R. Cammi, C. Pomelli, J. W. Ochterski, 
 R. L. Martin, K. Morokuma, V. G. Zakrzewski, G. A. Voth, 
 P. Salvador, J. J. Dannenberg, S. Dapprich, A. D. Daniels, 
 O. Farkas, J. B. Foresman, J. V. Ortiz, J. Cioslowski, 
 and D. J. Fox, Gaussian, Inc., Wallingford CT, 2013.
 
 ******************************************
 Gaussian 09:  ES64L-G09RevE.01 30-Nov-2015
                 9-Feb-2017 
 ******************************************
 %chk=h10.chk
 ----------------------------------------------------------------------
 #rhf/gen scf(symm,tight,novaracc,noincfock,fulldiag) stable(crhf) geom
 =nocrowd test
 ----------------------------------------------------------------------
 1/38=1/1;
 2/12=1,17=6,18=5,40=1/2;
 3/5=7,16=1,25=1,30=1,116=1/1,2,3;
 4/9=4/1;
 5/5=100002,15=2,16=1,32=2,38=1/2;
 8/6=1,10=90,11=11/1,4;
 9/8=4,13=1/2;
 6/7=2,8=2,9=2,10=2,28=1/1;
 99/5=1,9=1/99;
 ----------------------------------------------------------------------
 hf stability analysis of h10 triangular lattice, y= 1.2247999137372361
 ----------------------------------------------------------------------
 Symbolic Z-matrix:
 Charge =  0 Multiplicity = 1
 H
 H                    1     1.31238 
 H                    1     1.31238  2     42.1 
 H                    2     1.31238  1     137.9    3     0.       0
 H                    3     1.31238  1     180.     2     0.       0
 H                    4     1.31238  2     180.     1     0.       0
 H                    5     1.31238  3     180.     2     0.       0
 H                    6     1.31238  4     180.     1     0.       0
 H                    7     1.31238  5     180.     2     0.       0
 H                    8     1.31238  6     180.     1     0.       0
 
                          Input orientation:                          
 ---------------------------------------------------------------------
 Center     Atomic      Atomic             Coordinates (Angstroms)
 Number     Number       Type             X           Y           Z
 ---------------------------------------------------------------------
      1          1           0        0.000000    0.000000    0.000000
      2          1           0        0.000000    0.000000    1.312378
      3          1           0        0.879853    0.000000    0.973753
      4          1           0        0.879853    0.000000    2.286131
      5          1           0        1.759707    0.000000    1.947506
      6          1           0        1.759707    0.000000    3.259885
      7          1           0        2.639560    0.000000    2.921259
      8          1           0        2.639560    0.000000    4.233638
      9          1           0        3.519414    0.000000    3.895012
     10          1           0        3.519414    0.000000    5.207391
 ---------------------------------------------------------------------
                    Distance matrix (angstroms):
                    1          2          3          4          5
     1  H    0.000000
     2  H    1.312378   0.000000
     3  H    1.312378   0.942767   0.000000
     4  H    2.449600   1.312378   1.312378   0.000000
     5  H    2.624757   1.870817   1.312378   0.942767   0.000000
     6  H    3.704513   2.624757   2.449600   1.312378   1.312378
     7  H    3.937135   3.091242   2.624757   1.870817   1.312378
     8  H    4.989085   3.937135   3.704513   2.624757   2.449600
     9  H    5.249514   4.365349   3.937135   3.091242   2.624757
    10  H    6.285156   5.249514   4.989085   3.937135   3.704513
                    6          7          8          9         10
     6  H    0.000000
     7  H    0.942767   0.000000
     8  H    1.312378   1.312378   0.000000
     9  H    1.870817   1.312378   0.942767   0.000000
    10  H    2.624757   2.449600   1.312378   1.312378   0.000000
 Stoichiometry    H10
 Framework group  C2H[SGH(H10)]
 Deg. of freedom     9
 Full point group                 C2H     NOp   4
 Largest Abelian subgroup         C2H     NOp   4
 Largest concise Abelian subgroup C2      NOp   2
                         Standard orientation:                         
 ---------------------------------------------------------------------
 Center     Atomic      Atomic             Coordinates (Angstroms)
 Number     Number       Type             X           Y           Z
 ---------------------------------------------------------------------
      1          1           0        1.759707    2.603695   -0.000000
      2          1           0        1.759707    1.291317   -0.000000
      3          1           0        0.879853    1.629942   -0.000000
      4          1           0        0.879853    0.317564   -0.000000
      5          1           0        0.000000    0.656189   -0.000000
      6          1           0       -0.000000   -0.656189   -0.000000
      7          1           0       -0.879853   -0.317564   -0.000000
      8          1           0       -0.879853   -1.629942   -0.000000
      9          1           0       -1.759707   -1.291317   -0.000000
     10          1           0       -1.759707   -2.603695   -0.000000
 ---------------------------------------------------------------------
 Rotational constants (GHZ):    277.9183527     13.5718195     12.9399138
 General basis read from cards:  (5D, 7F)
 There are     5 symmetry adapted cartesian basis functions of AG  symmetry.
 There are     0 symmetry adapted cartesian basis functions of BG  symmetry.
 There are     0 symmetry adapted cartesian basis functions of AU  symmetry.
 There are     5 symmetry adapted cartesian basis functions of BU  symmetry.
 There are     5 symmetry adapted basis functions of AG  symmetry.
 There are     0 symmetry adapted basis functions of BG  symmetry.
 There are     0 symmetry adapted basis functions of AU  symmetry.
 There are     5 symmetry adapted basis functions of BU  symmetry.
    10 basis functions,   100 primitive gaussians,    10 cartesian basis functions
     5 alpha electrons        5 beta electrons
       nuclear repulsion energy        12.3371094560 Hartrees.
 NAtoms=   10 NActive=   10 NUniq=    5 SFac= 4.00D+00 NAtFMM=   60 NAOKFM=F Big=F
 Integral buffers will be    131072 words long.
 Regular integral format.
 Two-electron integral symmetry is turned on.
 One-electron integrals computed using PRISM.
 NBasis=    10 RedAO= T EigKep=  1.87D-01  NBF=     5     0     0     5
 NBsUse=    10 1.00D-06 EigRej= -1.00D+00 NBFU=     5     0     0     5
 ExpMin= 3.16D-02 ExpMax= 1.00D+03 ExpMxC= 1.00D+01 IAcc=3 IRadAn=         5 AccDes= 0.00D+00
 Harris functional with IExCor=  205 and IRadAn=       5 diagonalized for initial guess.
 HarFok:  IExCor=  205 AccDes= 0.00D+00 IRadAn=         5 IDoV= 1 UseB2=F ITyADJ=14
 ICtDFT=  3500011 ScaDFX=  1.000000  1.000000  1.000000  1.000000
 FoFCou: FMM=F IPFlag=           0 FMFlag=      100000 FMFlg1=           0
         NFxFlg=           0 DoJE=T BraDBF=F KetDBF=T FulRan=T
         wScrn=  0.000000 ICntrl=     500 IOpCl=  0 I1Cent=   200000004 NGrid=           0
         NMat0=    1 NMatS0=      1 NMatT0=    0 NMatD0=    1 NMtDS0=    0 NMtDT0=    0
 Petite list used in FoFCou.
 Initial guess orbital symmetries:
       Occupied  (AG) (BU) (AG) (BU) (BU)
       Virtual   (AG) (AG) (BU) (BU) (AG)
 The electronic state of the initial guess is 1-AG.
 Keep R1 ints in memory in symmetry-blocked form, NReq=877383.
 Requested convergence on RMS density matrix=1.00D-08 within 128 cycles.
 Requested convergence on MAX density matrix=1.00D-06.
 Requested convergence on             energy=1.00D-06.
 No special actions if energy rises.
 SCF Done:  E(RHF) =  -4.76652268020     A.U. after   11 cycles
            NFock= 11  Conv=0.30D-08     -V/T= 1.9573
 Range of M.O.s used for correlation:     1    10
 NBasis=    10 NAE=     5 NBE=     5 NFC=     0 NFV=     0
 NROrb=     10 NOA=     5 NOB=     5 NVA=     5 NVB=     5
 Semi-Direct transformation.
 ModeAB=           4 MOrb=             5 LenV=     134109682
 LASXX=         1030 LTotXX=        1030 LenRXX=        2480
 LTotAB=        1450 MaxLAS=        1500 LenRXY=           0
 NonZer=        3510 LenScr=      655360 LnRSAI=        1500
 LnScr1=      655360 LExtra=           0 Total=      1314700
 MaxDsk=          -1 SrtSym=           T ITran=            3
 JobTyp=0 Pass  1:  I=   1 to   5.
 (rs|ai) integrals will be sorted in core.
 Spin components of T(2) and E(2):
     alpha-alpha T2 =       0.7327539347D-02 E2=     -0.7664890319D-02
     alpha-beta  T2 =       0.1145512315D+00 E2=     -0.1146392434D+00
     beta-beta   T2 =       0.7327539347D-02 E2=     -0.7664890319D-02
 ANorm=    0.1062641195D+01
 E2 =    -0.1299690240D+00 EUMP2 =    -0.48964917042312D+01
 Second order stability test of a single determinant RHF wave function:
 Stabil:  MDV=134217728
 ***********************************************************************
 Matrix         Lowest Root    Major Pairs
 ***********************************************************************
 Internal RHF     0.0327087    Stable
 RRHF --> CRHF    0.0004354    Stable
 RRHF --> RUHF   -0.131269     5A=6B 5A=7B
 Not stable.
 ***********************************************************************

 **********************************************************************

            Population analysis using the SCF density.

 **********************************************************************

 Orbital symmetries:
       Occupied  (AG) (BU) (AG) (BU) (BU)
       Virtual   (AG) (AG) (BU) (BU) (AG)
 The electronic state is 1-AG.
 Alpha  occ. eigenvalues --   -0.78584  -0.72236  -0.55186  -0.34046  -0.19232
 Alpha virt. eigenvalues --    0.01968   0.14641   0.18357   0.39795   0.62905
          Condensed to atoms (all electrons):
               1          2          3          4          5          6
     1  H    0.804864   0.154627   0.118246  -0.082772  -0.038193   0.001314
     2  H    0.154627   0.797933  -0.007206   0.135966  -0.175422   0.047546
     3  H    0.118246  -0.007206   0.678534  -0.098084   0.257434  -0.080253
     4  H   -0.082772   0.135966  -0.098084   1.109848   0.020179   0.183931
     5  H   -0.038193  -0.175422   0.257434   0.020179   1.279652  -0.369471
     6  H    0.001314   0.047546  -0.080253   0.183931  -0.369471   1.279652
     7  H    0.005995  -0.022561   0.019198  -0.183784   0.183931   0.020179
     8  H    0.000144   0.005691  -0.006845   0.019198  -0.080253   0.257434
     9  H    0.000115  -0.002432   0.005691  -0.022561   0.047546  -0.175422
    10  H   -0.000091   0.000115   0.000144   0.005995   0.001314  -0.038193
               7          8          9         10
     1  H    0.005995   0.000144   0.000115  -0.000091
     2  H   -0.022561   0.005691  -0.002432   0.000115
     3  H    0.019198  -0.006845   0.005691   0.000144
     4  H   -0.183784   0.019198  -0.022561   0.005995
     5  H    0.183931  -0.080253   0.047546   0.001314
     6  H    0.020179   0.257434  -0.175422  -0.038193
     7  H    1.109848  -0.098084   0.135966  -0.082772
     8  H   -0.098084   0.678534  -0.007206   0.118246
     9  H    0.135966  -0.007206   0.797933   0.154627
    10  H   -0.082772   0.118246   0.154627   0.804864
 Mulliken charges:
               1
     1  H    0.035750
     2  H    0.065743
     3  H    0.113141
     4  H   -0.087916
     5  H   -0.126719
     6  H   -0.126719
     7  H   -0.087916
     8  H    0.113141
     9  H    0.065743
    10  H    0.035750
 Sum of Mulliken charges =   0.00000
 Mulliken charges with hydrogens summed into heavy atoms:
               1
 Electronic spatial extent (au):  <R**2>=            163.5307
 Charge=              0.0000 electrons
 Dipole moment (field-independent basis, Debye):
    X=             -0.0000    Y=             -0.0000    Z=             -0.0000  Tot=              0.0000
 Quadrupole moment (field-independent basis, Debye-Ang):
   XX=            -11.5696   YY=             -9.0672   ZZ=            -13.1810
   XY=              4.4693   XZ=              0.0000   YZ=              0.0000
 Traceless Quadrupole moment (field-independent basis, Debye-Ang):
   XX=             -0.2970   YY=              2.2054   ZZ=             -1.9084
   XY=              4.4693   XZ=              0.0000   YZ=              0.0000
 Octapole moment (field-independent basis, Debye-Ang**2):
  XXX=             -0.0000  YYY=             -0.0000  ZZZ=              0.0000  XYY=             -0.0000
  XXY=             -0.0000  XXZ=              0.0000  XZZ=              0.0000  YZZ=              0.0000
  YYZ=              0.0000  XYZ=             -0.0000
 Hexadecapole moment (field-independent basis, Debye-Ang**3):
 XXXX=           -138.0422 YYYY=           -171.4147 ZZZZ=            -16.1478 XXXY=            -60.2329
 XXXZ=             -0.0000 YYYX=            -47.9425 YYYZ=             -0.0000 ZZZX=             -0.0000
 ZZZY=             -0.0000 XXYY=            -46.3585 XXZZ=            -26.2794 YYZZ=            -36.2974
 XXYZ=             -0.0000 YYXZ=             -0.0000 ZZXY=            -22.1944
 N-N= 1.233710945599D+01 E-N=-3.400076360538D+01  KE= 4.979178152707D+00
 Symmetry AG   KE= 1.429085273489D+00
 Symmetry BG   KE= 0.000000000000D+00
 Symmetry AU   KE= 0.000000000000D+00
 Symmetry BU   KE= 3.550092879217D+00

 Test job not archived.
 1\1\GINC-SULU\Stability\RHF\Gen\H10\LCJ1\09-Feb-2017\0\\#rhf/gen scf(s
 ymm,tight,novaracc,noincfock,fulldiag) stable(crhf) geom=nocrowd test\
 \hf stability analysis of h10 triangular lattice, y= 1.224799913737236
 1\\0,1\H\H,1,1.3123784051\H,1,1.3123784051,2,42.1\H,2,1.3123784051,1,1
 37.9,3,0.,0\H,3,1.3123784051,1,180.,2,0.,0\H,4,1.3123784051,2,180.,1,0
 .,0\H,5,1.3123784051,3,180.,2,0.,0\H,6,1.3123784051,4,180.,1,0.,0\H,7,
 1.3123784051,5,180.,2,0.,0\H,8,1.3123784051,6,180.,1,0.,0\\Version=ES6
 4L-G09RevE.01\State=1-AG\HF=-4.7665227\MP2=-4.8964917\RMSD=2.965e-09\D
 ipole=0.,0.,0.\Quadrupole=-0.2208123,-1.4188396,1.6396518,0.,3.322786,
 0.\PG=C02H [SGH(H10)]\\@


 NATURE REVEALS EVERY SECRET ONCE.
                    - RALPH WALDO EMERSON
 Job cpu time:       0 days  0 hours  0 minutes  1.0 seconds.
 File lengths (MBytes):  RWF=     84 Int=      0 D2E=      0 Chk=      2 Scr=      2
 Normal termination of Gaussian 09 at Thu Feb  9 15:44:53 2017.
