 Entering Gaussian System, Link 0=g09
 AtFile(1): H.gbs
            H     0
            S   10   1.00
               1000.000000000000            0.000068713567
                316.227766000000            0.000169141320
                100.000000000000            0.000823394812
                 31.622776600000            0.003425569236
                 10.000000000000            0.013951996000
                  3.162277660000            0.056909313560
                  1.000000000000            0.198286399900
                  0.316227766000            0.496922426700
                  0.100000000000            0.369846276400
                  0.031622776600            0.003752720039
            ****
 Initial command:
 /projects/guscus/apps/gau/g09-e1/g09/l1.exe "/users/lcj1/gaussian/h10/rhfstability/2rows/zmatrix/constarea/fwd/Gau-3358.inp" -scrdir="/users/lcj1/gaussian/h10/rhfstability/2rows/zmatrix/constarea/fwd/"
 Entering Link 1 = /projects/guscus/apps/gau/g09-e1/g09/l1.exe PID=      3359.
  
 Copyright (c) 1988,1990,1992,1993,1995,1998,2003,2009,2015,
            Gaussian, Inc.  All Rights Reserved.
  
 This is part of the Gaussian(R) 09 program.  It is based on
 the Gaussian(R) 03 system (copyright 2003, Gaussian, Inc.),
 the Gaussian(R) 98 system (copyright 1998, Gaussian, Inc.),
 the Gaussian(R) 94 system (copyright 1995, Gaussian, Inc.),
 the Gaussian 92(TM) system (copyright 1992, Gaussian, Inc.),
 the Gaussian 90(TM) system (copyright 1990, Gaussian, Inc.),
 the Gaussian 88(TM) system (copyright 1988, Gaussian, Inc.),
 the Gaussian 86(TM) system (copyright 1986, Carnegie Mellon
 University), and the Gaussian 82(TM) system (copyright 1983,
 Carnegie Mellon University). Gaussian is a federally registered
 trademark of Gaussian, Inc.
  
 This software contains proprietary and confidential information,
 including trade secrets, belonging to Gaussian, Inc.
  
 This software is provided under written license and may be
 used, copied, transmitted, or stored only in accord with that
 written license.
  
 The following legend is applicable only to US Government
 contracts under FAR:
  
                    RESTRICTED RIGHTS LEGEND
  
 Use, reproduction and disclosure by the US Government is
 subject to restrictions as set forth in subparagraphs (a)
 and (c) of the Commercial Computer Software - Restricted
 Rights clause in FAR 52.227-19.
  
 Gaussian, Inc.
 340 Quinnipiac St., Bldg. 40, Wallingford CT 06492
  
  
 ---------------------------------------------------------------
 Warning -- This program may not be used in any manner that
 competes with the business of Gaussian, Inc. or will provide
 assistance to any competitor of Gaussian, Inc.  The licensee
 of this program is prohibited from giving any competitor of
 Gaussian, Inc. access to this program.  By using this program,
 the user acknowledges that Gaussian, Inc. is engaged in the
 business of creating and licensing software in the field of
 computational chemistry and represents and warrants to the
 licensee that it is not a competitor of Gaussian, Inc. and that
 it will not use this program in any manner prohibited above.
 ---------------------------------------------------------------
  

 Cite this work as:
 Gaussian 09, Revision E.01,
 M. J. Frisch, G. W. Trucks, H. B. Schlegel, G. E. Scuseria, 
 M. A. Robb, J. R. Cheeseman, G. Scalmani, V. Barone, B. Mennucci, 
 G. A. Petersson, H. Nakatsuji, M. Caricato, X. Li, H. P. Hratchian, 
 A. F. Izmaylov, J. Bloino, G. Zheng, J. L. Sonnenberg, M. Hada, 
 M. Ehara, K. Toyota, R. Fukuda, J. Hasegawa, M. Ishida, T. Nakajima, 
 Y. Honda, O. Kitao, H. Nakai, T. Vreven, J. A. Montgomery, Jr., 
 J. E. Peralta, F. Ogliaro, M. Bearpark, J. J. Heyd, E. Brothers, 
 K. N. Kudin, V. N. Staroverov, T. Keith, R. Kobayashi, J. Normand, 
 K. Raghavachari, A. Rendell, J. C. Burant, S. S. Iyengar, J. Tomasi, 
 M. Cossi, N. Rega, J. M. Millam, M. Klene, J. E. Knox, J. B. Cross, 
 V. Bakken, C. Adamo, J. Jaramillo, R. Gomperts, R. E. Stratmann, 
 O. Yazyev, A. J. Austin, R. Cammi, C. Pomelli, J. W. Ochterski, 
 R. L. Martin, K. Morokuma, V. G. Zakrzewski, G. A. Voth, 
 P. Salvador, J. J. Dannenberg, S. Dapprich, A. D. Daniels, 
 O. Farkas, J. B. Foresman, J. V. Ortiz, J. Cioslowski, 
 and D. J. Fox, Gaussian, Inc., Wallingford CT, 2013.
 
 ******************************************
 Gaussian 09:  ES64L-G09RevE.01 30-Nov-2015
                 9-Feb-2017 
 ******************************************
 %chk=h10.chk
 ----------------------------------------------------------------------
 #rhf/gen scf(symm,tight,novaracc,noincfock,fulldiag) stable(crhf) geom
 =nocrowd test
 ----------------------------------------------------------------------
 1/38=1/1;
 2/12=1,17=6,18=5,40=1/2;
 3/5=7,16=1,25=1,30=1,116=1/1,2,3;
 4/9=4/1;
 5/5=100002,15=2,16=1,32=2,38=1/2;
 8/6=1,10=90,11=11/1,4;
 9/8=4,13=1/2;
 6/7=2,8=2,9=2,10=2,28=1/1;
 99/5=1,9=1/99;
 ----------------------------------------------------------------------
 hf stability analysis of h10 triangular lattice, y= 0.8947155610204194
 9
 ----------------------------------------------------------------------
 Symbolic Z-matrix:
 Charge =  0 Multiplicity = 1
 H
 H                    1     1.10314 
 H                    1     1.10314  2     71.6 
 H                    2     1.10314  1     108.4    3     0.       0
 H                    3     1.10314  1     180.     2     0.       0
 H                    4     1.10314  2     180.     1     0.       0
 H                    5     1.10314  3     180.     2     0.       0
 H                    6     1.10314  4     180.     1     0.       0
 H                    7     1.10314  5     180.     2     0.       0
 H                    8     1.10314  6     180.     1     0.       0
 
                          Input orientation:                          
 ---------------------------------------------------------------------
 Center     Atomic      Atomic             Coordinates (Angstroms)
 Number     Number       Type             X           Y           Z
 ---------------------------------------------------------------------
      1          1           0        0.000000    0.000000    0.000000
      2          1           0        0.000000    0.000000    1.103138
      3          1           0        1.046741    0.000000    0.348205
      4          1           0        1.046741    0.000000    1.451343
      5          1           0        2.093483    0.000000    0.696409
      6          1           0        2.093483    0.000000    1.799547
      7          1           0        3.140224    0.000000    1.044614
      8          1           0        3.140224    0.000000    2.147752
      9          1           0        4.186966    0.000000    1.392818
     10          1           0        4.186966    0.000000    2.495956
 ---------------------------------------------------------------------
                    Distance matrix (angstroms):
                    1          2          3          4          5
     1  H    0.000000
     2  H    1.103138   0.000000
     3  H    1.103138   1.290578   0.000000
     4  H    1.789431   1.103138   1.103138   0.000000
     5  H    2.206277   2.132627   1.103138   1.290578   0.000000
     6  H    2.760623   2.206277   1.789431   1.103138   1.103138
     7  H    3.309415   3.140770   2.206277   2.132627   1.103138
     8  H    3.804451   3.309415   2.760623   2.206277   1.789431
     9  H    4.412553   4.196975   3.309415   3.140770   2.206277
    10  H    4.874472   4.412553   3.804451   3.309415   2.760623
                    6          7          8          9         10
     6  H    0.000000
     7  H    1.290578   0.000000
     8  H    1.103138   1.103138   0.000000
     9  H    2.132627   1.103138   1.290578   0.000000
    10  H    2.206277   1.789431   1.103138   1.103138   0.000000
 Stoichiometry    H10
 Framework group  C2H[SGH(H10)]
 Deg. of freedom     9
 Full point group                 C2H     NOp   4
 Largest Abelian subgroup         C2H     NOp   4
 Largest concise Abelian subgroup C2      NOp   2
                         Standard orientation:                         
 ---------------------------------------------------------------------
 Center     Atomic      Atomic             Coordinates (Angstroms)
 Number     Number       Type             X           Y           Z
 ---------------------------------------------------------------------
      1          1           0        2.093483    1.247978    0.000000
      2          1           0        2.093483    0.144840    0.000000
      3          1           0        1.046741    0.899774    0.000000
      4          1           0        1.046741   -0.203365   -0.000000
      5          1           0       -0.000000    0.551569    0.000000
      6          1           0       -0.000000   -0.551569    0.000000
      7          1           0       -1.046741    0.203365   -0.000000
      8          1           0       -1.046741   -0.899774   -0.000000
      9          1           0       -2.093483   -0.144840   -0.000000
     10          1           0       -2.093483   -1.247978   -0.000000
 ---------------------------------------------------------------------
 Rotational constants (GHZ):    185.6329590     20.3189032     18.3142706
 General basis read from cards:  (5D, 7F)
 There are     5 symmetry adapted cartesian basis functions of AG  symmetry.
 There are     0 symmetry adapted cartesian basis functions of BG  symmetry.
 There are     0 symmetry adapted cartesian basis functions of AU  symmetry.
 There are     5 symmetry adapted cartesian basis functions of BU  symmetry.
 There are     5 symmetry adapted basis functions of AG  symmetry.
 There are     0 symmetry adapted basis functions of BG  symmetry.
 There are     0 symmetry adapted basis functions of AU  symmetry.
 There are     5 symmetry adapted basis functions of BU  symmetry.
    10 basis functions,   100 primitive gaussians,    10 cartesian basis functions
     5 alpha electrons        5 beta electrons
       nuclear repulsion energy        13.5469700388 Hartrees.
 NAtoms=   10 NActive=   10 NUniq=    5 SFac= 4.00D+00 NAtFMM=   60 NAOKFM=F Big=F
 Integral buffers will be    131072 words long.
 Regular integral format.
 Two-electron integral symmetry is turned on.
 One-electron integrals computed using PRISM.
 NBasis=    10 RedAO= T EigKep=  1.46D-01  NBF=     5     0     0     5
 NBsUse=    10 1.00D-06 EigRej= -1.00D+00 NBFU=     5     0     0     5
 ExpMin= 3.16D-02 ExpMax= 1.00D+03 ExpMxC= 1.00D+01 IAcc=3 IRadAn=         5 AccDes= 0.00D+00
 Harris functional with IExCor=  205 and IRadAn=       5 diagonalized for initial guess.
 HarFok:  IExCor=  205 AccDes= 0.00D+00 IRadAn=         5 IDoV= 1 UseB2=F ITyADJ=14
 ICtDFT=  3500011 ScaDFX=  1.000000  1.000000  1.000000  1.000000
 FoFCou: FMM=F IPFlag=           0 FMFlag=      100000 FMFlg1=           0
         NFxFlg=           0 DoJE=T BraDBF=F KetDBF=T FulRan=T
         wScrn=  0.000000 ICntrl=     500 IOpCl=  0 I1Cent=   200000004 NGrid=           0
         NMat0=    1 NMatS0=      1 NMatT0=    0 NMatD0=    1 NMtDS0=    0 NMtDT0=    0
 Petite list used in FoFCou.
 Initial guess orbital symmetries:
       Occupied  (AG) (BU) (AG) (BU) (BU)
       Virtual   (AG) (BU) (AG) (AG) (BU)
 The electronic state of the initial guess is 1-AG.
 Keep R1 ints in memory in symmetry-blocked form, NReq=879385.
 Requested convergence on RMS density matrix=1.00D-08 within 128 cycles.
 Requested convergence on MAX density matrix=1.00D-06.
 Requested convergence on             energy=1.00D-06.
 No special actions if energy rises.
 SCF Done:  E(RHF) =  -4.85875830363     A.U. after   10 cycles
            NFock= 10  Conv=0.37D-08     -V/T= 1.9405
 Range of M.O.s used for correlation:     1    10
 NBasis=    10 NAE=     5 NBE=     5 NFC=     0 NFV=     0
 NROrb=     10 NOA=     5 NOB=     5 NVA=     5 NVB=     5
 Semi-Direct transformation.
 ModeAB=           4 MOrb=             5 LenV=     134107176
 LASXX=         1030 LTotXX=        1030 LenRXX=        2480
 LTotAB=        1450 MaxLAS=        1500 LenRXY=           0
 NonZer=        3510 LenScr=      655360 LnRSAI=        1500
 LnScr1=      655360 LExtra=           0 Total=      1314700
 MaxDsk=          -1 SrtSym=           T ITran=            3
 JobTyp=0 Pass  1:  I=   1 to   5.
 (rs|ai) integrals will be sorted in core.
 Spin components of T(2) and E(2):
     alpha-alpha T2 =       0.6288989087D-02 E2=     -0.7739146774D-02
     alpha-beta  T2 =       0.7590885839D-01 E2=     -0.9767857792D-01
     beta-beta   T2 =       0.6288989087D-02 E2=     -0.7739146774D-02
 ANorm=    0.1043305725D+01
 E2 =    -0.1131568715D+00 EUMP2 =    -0.49719151750889D+01
 Second order stability test of a single determinant RHF wave function:
 Stabil:  MDV=134217728
 ***********************************************************************
 Matrix         Lowest Root    Major Pairs
 ***********************************************************************
 Internal RHF     0.0470243    Stable
 RRHF --> CRHF   -0.00745      5A=6A
 RRHF --> RUHF   -0.1288605    5A=6B
 Not stable.
 ***********************************************************************

 **********************************************************************

            Population analysis using the SCF density.

 **********************************************************************

 Orbital symmetries:
       Occupied  (AG) (BU) (AG) (BU) (BU)
       Virtual   (AG) (BU) (AG) (AG) (BU)
 The electronic state is 1-AG.
 Alpha  occ. eigenvalues --   -0.85743  -0.73931  -0.54697  -0.38466  -0.29549
 Alpha virt. eigenvalues --   -0.02338   0.21999   0.28981   0.53364   0.76953
          Condensed to atoms (all electrons):
               1          2          3          4          5          6
     1  H    1.015464   0.393483  -0.086749  -0.188418  -0.060172  -0.010019
     2  H    0.393483   0.689530  -0.081367  -0.061669  -0.099451   0.021511
     3  H   -0.086749  -0.081367   0.804182   0.153430   0.344644  -0.152078
     4  H   -0.188418  -0.061669   0.153430   1.182478  -0.006896   0.203885
     5  H   -0.060172  -0.099451   0.344644  -0.006896   0.945759  -0.178990
     6  H   -0.010019   0.021511  -0.152078   0.203885  -0.178990   0.945759
     7  H    0.020321   0.000554  -0.023959  -0.175447   0.203885  -0.006896
     8  H    0.005656   0.013720  -0.052130  -0.023959  -0.152078   0.344644
     9  H   -0.000703  -0.001134   0.013720   0.000554   0.021511  -0.099451
    10  H   -0.001154  -0.000703   0.005656   0.020321  -0.010019  -0.060172
               7          8          9         10
     1  H    0.020321   0.005656  -0.000703  -0.001154
     2  H    0.000554   0.013720  -0.001134  -0.000703
     3  H   -0.023959  -0.052130   0.013720   0.005656
     4  H   -0.175447  -0.023959   0.000554   0.020321
     5  H    0.203885  -0.152078   0.021511  -0.010019
     6  H   -0.006896   0.344644  -0.099451  -0.060172
     7  H    1.182478   0.153430  -0.061669  -0.188418
     8  H    0.153430   0.804182  -0.081367  -0.086749
     9  H   -0.061669  -0.081367   0.689530   0.393483
    10  H   -0.188418  -0.086749   0.393483   1.015464
 Mulliken charges:
               1
     1  H   -0.087707
     2  H    0.125527
     3  H    0.074651
     4  H   -0.104279
     5  H   -0.008191
     6  H   -0.008191
     7  H   -0.104279
     8  H    0.074651
     9  H    0.125527
    10  H   -0.087707
 Sum of Mulliken charges =  -0.00000
 Mulliken charges with hydrogens summed into heavy atoms:
               1
 Electronic spatial extent (au):  <R**2>=            129.5300
 Charge=              0.0000 electrons
 Dipole moment (field-independent basis, Debye):
    X=             -0.0000    Y=              0.0000    Z=             -0.0000  Tot=              0.0000
 Quadrupole moment (field-independent basis, Debye-Ang):
   XX=            -15.0978   YY=            -14.7348   ZZ=            -12.8753
   XY=             -1.8186   XZ=             -0.0000   YZ=             -0.0000
 Traceless Quadrupole moment (field-independent basis, Debye-Ang):
   XX=             -0.8618   YY=             -0.4988   ZZ=              1.3607
   XY=             -1.8186   XZ=             -0.0000   YZ=             -0.0000
 Octapole moment (field-independent basis, Debye-Ang**2):
  XXX=              0.0000  YYY=              0.0000  ZZZ=              0.0000  XYY=              0.0000
  XXY=              0.0000  XXZ=              0.0000  XZZ=             -0.0000  YZZ=             -0.0000
  YYZ=              0.0000  XYZ=              0.0000
 Hexadecapole moment (field-independent basis, Debye-Ang**3):
 XXXX=           -229.4518 YYYY=            -63.1434 ZZZZ=            -15.4814 XXXY=            -52.7086
 XXXZ=             -0.0000 YYYX=            -31.8413 YYYZ=             -0.0000 ZZZX=             -0.0000
 ZZZY=             -0.0000 XXYY=            -50.2030 XXZZ=            -35.3340 YYZZ=            -13.0934
 XXYZ=             -0.0000 YYXZ=             -0.0000 ZZXY=            -10.2327
 N-N= 1.354697003884D+01 E-N=-3.632975587720D+01  KE= 5.166008497100D+00
 Symmetry AG   KE= 1.501550889149D+00
 Symmetry BG   KE= 0.000000000000D+00
 Symmetry AU   KE= 0.000000000000D+00
 Symmetry BU   KE= 3.664457607950D+00

 Test job not archived.
 1\1\GINC-SULU\Stability\RHF\Gen\H10\LCJ1\09-Feb-2017\0\\#rhf/gen scf(s
 ymm,tight,novaracc,noincfock,fulldiag) stable(crhf) geom=nocrowd test\
 \hf stability analysis of h10 triangular lattice, y= 0.894715561020419
 49\\0,1\H\H,1,1.1031382773\H,1,1.1031382773,2,71.6\H,2,1.1031382773,1,
 108.4,3,0.,0\H,3,1.1031382773,1,180.,2,0.,0\H,4,1.1031382773,2,180.,1,
 0.,0\H,5,1.1031382773,3,180.,2,0.,0\H,6,1.1031382773,4,180.,1,0.,0\H,7
 ,1.1031382773,5,180.,2,0.,0\H,8,1.1031382773,6,180.,1,0.,0\\Version=ES
 64L-G09RevE.01\State=1-AG\HF=-4.8587583\MP2=-4.9719152\RMSD=3.708e-09\
 Dipole=0.,0.,0.\Quadrupole=-0.6407469,1.0116121,-0.3708652,0.,-1.35207
 99,0.\PG=C02H [SGH(H10)]\\@


 MUD THROWN IS GROUND LOST -- FROM A TEA BAG
 Job cpu time:       0 days  0 hours  0 minutes  1.0 seconds.
 File lengths (MBytes):  RWF=     84 Int=      0 D2E=      0 Chk=      2 Scr=      2
 Normal termination of Gaussian 09 at Thu Feb  9 15:30:58 2017.
