 Entering Gaussian System, Link 0=g09
 AtFile(1): H.gbs
            H     0
            S   10   1.00
               1000.000000000000            0.000068713567
                316.227766000000            0.000169141320
                100.000000000000            0.000823394812
                 31.622776600000            0.003425569236
                 10.000000000000            0.013951996000
                  3.162277660000            0.056909313560
                  1.000000000000            0.198286399900
                  0.316227766000            0.496922426700
                  0.100000000000            0.369846276400
                  0.031622776600            0.003752720039
            ****
 Initial command:
 /projects/guscus/apps/gau/g09-e1/g09/l1.exe "/users/lcj1/gaussian/h10/rhfstability/2rows/zmatrix/constarea/fwd/Gau-14081.inp" -scrdir="/users/lcj1/gaussian/h10/rhfstability/2rows/zmatrix/constarea/fwd/"
 Entering Link 1 = /projects/guscus/apps/gau/g09-e1/g09/l1.exe PID=     14086.
  
 Copyright (c) 1988,1990,1992,1993,1995,1998,2003,2009,2015,
            Gaussian, Inc.  All Rights Reserved.
  
 This is part of the Gaussian(R) 09 program.  It is based on
 the Gaussian(R) 03 system (copyright 2003, Gaussian, Inc.),
 the Gaussian(R) 98 system (copyright 1998, Gaussian, Inc.),
 the Gaussian(R) 94 system (copyright 1995, Gaussian, Inc.),
 the Gaussian 92(TM) system (copyright 1992, Gaussian, Inc.),
 the Gaussian 90(TM) system (copyright 1990, Gaussian, Inc.),
 the Gaussian 88(TM) system (copyright 1988, Gaussian, Inc.),
 the Gaussian 86(TM) system (copyright 1986, Carnegie Mellon
 University), and the Gaussian 82(TM) system (copyright 1983,
 Carnegie Mellon University). Gaussian is a federally registered
 trademark of Gaussian, Inc.
  
 This software contains proprietary and confidential information,
 including trade secrets, belonging to Gaussian, Inc.
  
 This software is provided under written license and may be
 used, copied, transmitted, or stored only in accord with that
 written license.
  
 The following legend is applicable only to US Government
 contracts under FAR:
  
                    RESTRICTED RIGHTS LEGEND
  
 Use, reproduction and disclosure by the US Government is
 subject to restrictions as set forth in subparagraphs (a)
 and (c) of the Commercial Computer Software - Restricted
 Rights clause in FAR 52.227-19.
  
 Gaussian, Inc.
 340 Quinnipiac St., Bldg. 40, Wallingford CT 06492
  
  
 ---------------------------------------------------------------
 Warning -- This program may not be used in any manner that
 competes with the business of Gaussian, Inc. or will provide
 assistance to any competitor of Gaussian, Inc.  The licensee
 of this program is prohibited from giving any competitor of
 Gaussian, Inc. access to this program.  By using this program,
 the user acknowledges that Gaussian, Inc. is engaged in the
 business of creating and licensing software in the field of
 computational chemistry and represents and warrants to the
 licensee that it is not a competitor of Gaussian, Inc. and that
 it will not use this program in any manner prohibited above.
 ---------------------------------------------------------------
  

 Cite this work as:
 Gaussian 09, Revision E.01,
 M. J. Frisch, G. W. Trucks, H. B. Schlegel, G. E. Scuseria, 
 M. A. Robb, J. R. Cheeseman, G. Scalmani, V. Barone, B. Mennucci, 
 G. A. Petersson, H. Nakatsuji, M. Caricato, X. Li, H. P. Hratchian, 
 A. F. Izmaylov, J. Bloino, G. Zheng, J. L. Sonnenberg, M. Hada, 
 M. Ehara, K. Toyota, R. Fukuda, J. Hasegawa, M. Ishida, T. Nakajima, 
 Y. Honda, O. Kitao, H. Nakai, T. Vreven, J. A. Montgomery, Jr., 
 J. E. Peralta, F. Ogliaro, M. Bearpark, J. J. Heyd, E. Brothers, 
 K. N. Kudin, V. N. Staroverov, T. Keith, R. Kobayashi, J. Normand, 
 K. Raghavachari, A. Rendell, J. C. Burant, S. S. Iyengar, J. Tomasi, 
 M. Cossi, N. Rega, J. M. Millam, M. Klene, J. E. Knox, J. B. Cross, 
 V. Bakken, C. Adamo, J. Jaramillo, R. Gomperts, R. E. Stratmann, 
 O. Yazyev, A. J. Austin, R. Cammi, C. Pomelli, J. W. Ochterski, 
 R. L. Martin, K. Morokuma, V. G. Zakrzewski, G. A. Voth, 
 P. Salvador, J. J. Dannenberg, S. Dapprich, A. D. Daniels, 
 O. Farkas, J. B. Foresman, J. V. Ortiz, J. Cioslowski, 
 and D. J. Fox, Gaussian, Inc., Wallingford CT, 2013.
 
 ******************************************
 Gaussian 09:  ES64L-G09RevE.01 30-Nov-2015
                 9-Feb-2017 
 ******************************************
 %chk=h10.chk
 ----------------------------------------------------------------------
 #rhf/gen scf(symm,tight,novaracc,noincfock,fulldiag) stable(crhf) geom
 =nocrowd test
 ----------------------------------------------------------------------
 1/38=1/1;
 2/12=1,17=6,18=5,40=1/2;
 3/5=7,16=1,25=1,30=1,116=1/1,2,3;
 4/9=4/1;
 5/5=100002,15=2,16=1,32=2,38=1/2;
 8/6=1,10=90,11=11/1,4;
 9/8=4,13=1/2;
 6/7=2,8=2,9=2,10=2,28=1/1;
 99/5=1,9=1/99;
 ----------------------------------------------------------------------
 hf stability analysis of h10 triangular lattice, y= 1.3271019102789854
 ----------------------------------------------------------------------
 Symbolic Z-matrix:
 Charge =  0 Multiplicity = 1
 H
 H                    1     1.39659 
 H                    1     1.39659  2     36.3 
 H                    2     1.39659  1     143.7    3     0.       0
 H                    3     1.39659  1     180.     2     0.       0
 H                    4     1.39659  2     180.     1     0.       0
 H                    5     1.39659  3     180.     2     0.       0
 H                    6     1.39659  4     180.     1     0.       0
 H                    7     1.39659  5     180.     2     0.       0
 H                    8     1.39659  6     180.     1     0.       0
 
                          Input orientation:                          
 ---------------------------------------------------------------------
 Center     Atomic      Atomic             Coordinates (Angstroms)
 Number     Number       Type             X           Y           Z
 ---------------------------------------------------------------------
      1          1           0        0.000000    0.000000    0.000000
      2          1           0        0.000000    0.000000    1.396590
      3          1           0        0.826800    0.000000    1.125552
      4          1           0        0.826800    0.000000    2.522142
      5          1           0        1.653600    0.000000    2.251103
      6          1           0        1.653600    0.000000    3.647694
      7          1           0        2.480400    0.000000    3.376655
      8          1           0        2.480400    0.000000    4.773245
      9          1           0        3.307199    0.000000    4.502206
     10          1           0        3.307199    0.000000    5.898797
 ---------------------------------------------------------------------
                    Distance matrix (angstroms):
                    1          2          3          4          5
     1  H    0.000000
     2  H    1.396590   0.000000
     3  H    1.396590   0.870092   0.000000
     4  H    2.654204   1.396590   1.396590   0.000000
     5  H    2.793181   1.861339   1.396590   0.870092   0.000000
     6  H    4.005004   2.793181   2.654204   1.396590   1.396590
     7  H    4.189771   3.173805   2.793181   1.861339   1.396590
     8  H    5.379243   4.189771   4.005004   2.793181   2.654204
     9  H    5.586361   4.536785   4.189771   3.173805   2.793181
    10  H    6.762645   5.586361   5.379243   4.189771   4.005004
                    6          7          8          9         10
     6  H    0.000000
     7  H    0.870092   0.000000
     8  H    1.396590   1.396590   0.000000
     9  H    1.861339   1.396590   0.870092   0.000000
    10  H    2.793181   2.654204   1.396590   1.396590   0.000000
 Stoichiometry    H10
 Framework group  C2H[SGH(H10)]
 Deg. of freedom     9
 Full point group                 C2H     NOp   4
 Largest Abelian subgroup         C2H     NOp   4
 Largest concise Abelian subgroup C2      NOp   2
                         Standard orientation:                         
 ---------------------------------------------------------------------
 Center     Atomic      Atomic             Coordinates (Angstroms)
 Number     Number       Type             X           Y           Z
 ---------------------------------------------------------------------
      1          1           0        1.653600    2.949398   -0.000000
      2          1           0        1.653600    1.552808   -0.000000
      3          1           0        0.826800    1.823847   -0.000000
      4          1           0        0.826800    0.427256   -0.000000
      5          1           0        0.000000    0.698295   -0.000000
      6          1           0       -0.000000   -0.698295   -0.000000
      7          1           0       -0.826800   -0.427256   -0.000000
      8          1           0       -0.826800   -1.823847   -0.000000
      9          1           0       -1.653600   -1.552808   -0.000000
     10          1           0       -1.653600   -2.949398   -0.000000
 ---------------------------------------------------------------------
 Rotational constants (GHZ):    318.2466827     11.8519933     11.4264546
 General basis read from cards:  (5D, 7F)
 There are     5 symmetry adapted cartesian basis functions of AG  symmetry.
 There are     0 symmetry adapted cartesian basis functions of BG  symmetry.
 There are     0 symmetry adapted cartesian basis functions of AU  symmetry.
 There are     5 symmetry adapted cartesian basis functions of BU  symmetry.
 There are     5 symmetry adapted basis functions of AG  symmetry.
 There are     0 symmetry adapted basis functions of BG  symmetry.
 There are     0 symmetry adapted basis functions of AU  symmetry.
 There are     5 symmetry adapted basis functions of BU  symmetry.
    10 basis functions,   100 primitive gaussians,    10 cartesian basis functions
     5 alpha electrons        5 beta electrons
       nuclear repulsion energy        11.9617906477 Hartrees.
 NAtoms=   10 NActive=   10 NUniq=    5 SFac= 4.00D+00 NAtFMM=   60 NAOKFM=F Big=F
 Integral buffers will be    131072 words long.
 Regular integral format.
 Two-electron integral symmetry is turned on.
 One-electron integrals computed using PRISM.
 NBasis=    10 RedAO= T EigKep=  1.82D-01  NBF=     5     0     0     5
 NBsUse=    10 1.00D-06 EigRej= -1.00D+00 NBFU=     5     0     0     5
 ExpMin= 3.16D-02 ExpMax= 1.00D+03 ExpMxC= 1.00D+01 IAcc=3 IRadAn=         5 AccDes= 0.00D+00
 Harris functional with IExCor=  205 and IRadAn=       5 diagonalized for initial guess.
 HarFok:  IExCor=  205 AccDes= 0.00D+00 IRadAn=         5 IDoV= 1 UseB2=F ITyADJ=14
 ICtDFT=  3500011 ScaDFX=  1.000000  1.000000  1.000000  1.000000
 FoFCou: FMM=F IPFlag=           0 FMFlag=      100000 FMFlg1=           0
         NFxFlg=           0 DoJE=T BraDBF=F KetDBF=T FulRan=T
         wScrn=  0.000000 ICntrl=     500 IOpCl=  0 I1Cent=   200000004 NGrid=           0
         NMat0=    1 NMatS0=      1 NMatT0=    0 NMatD0=    1 NMtDS0=    0 NMtDT0=    0
 Petite list used in FoFCou.
 Initial guess orbital symmetries:
       Occupied  (AG) (BU) (AG) (BU) (AG)
       Virtual   (BU) (BU) (AG) (BU) (AG)
 The electronic state of the initial guess is 1-AG.
 Keep R1 ints in memory in symmetry-blocked form, NReq=876389.
 Requested convergence on RMS density matrix=1.00D-08 within 128 cycles.
 Requested convergence on MAX density matrix=1.00D-06.
 Requested convergence on             energy=1.00D-06.
 No special actions if energy rises.
 SCF Done:  E(RHF) =  -4.75838239755     A.U. after   11 cycles
            NFock= 11  Conv=0.27D-08     -V/T= 1.8988
 Range of M.O.s used for correlation:     1    10
 NBasis=    10 NAE=     5 NBE=     5 NFC=     0 NFV=     0
 NROrb=     10 NOA=     5 NOB=     5 NVA=     5 NVB=     5
 Semi-Direct transformation.
 ModeAB=           4 MOrb=             5 LenV=     134110256
 LASXX=         1030 LTotXX=        1030 LenRXX=        2480
 LTotAB=        1450 MaxLAS=        1500 LenRXY=           0
 NonZer=        3510 LenScr=      655360 LnRSAI=        1500
 LnScr1=      655360 LExtra=           0 Total=      1314700
 MaxDsk=          -1 SrtSym=           T ITran=            3
 JobTyp=0 Pass  1:  I=   1 to   5.
 (rs|ai) integrals will be sorted in core.
 Spin components of T(2) and E(2):
     alpha-alpha T2 =       0.1494425930D-02 E2=     -0.2173299783D-02
     alpha-beta  T2 =       0.6280493605D+00 E2=     -0.2233302373D+00
     beta-beta   T2 =       0.1494425930D-02 E2=     -0.2173299783D-02
 ANorm=    0.1277121064D+01
 E2 =    -0.2276768368D+00 EUMP2 =    -0.49860592343789D+01
 Second order stability test of a single determinant RHF wave function:
 Stabil:  MDV=134217728
 ***********************************************************************
 Matrix         Lowest Root    Major Pairs
 ***********************************************************************
 Internal RHF     0.0128961    Stable
 RRHF --> CRHF   -0.0096975    5A=6A 5A=7A
 RRHF --> RUHF   -0.3900443    5A=6B 5A=7B
 Not stable.
 ***********************************************************************

 **********************************************************************

            Population analysis using the SCF density.

 **********************************************************************

 Orbital symmetries:
       Occupied  (AG) (BU) (AG) (BU) (AG)
       Virtual   (BU) (BU) (AG) (BU) (AG)
 The electronic state is 1-AG.
 Alpha  occ. eigenvalues --   -0.82750  -0.73606  -0.59773  -0.42294  -0.11322
 Alpha virt. eigenvalues --    0.01518   0.08947   0.21222   0.39571   0.56095
          Condensed to atoms (all electrons):
               1          2          3          4          5          6
     1  H    1.414296  -0.117938  -0.022264  -0.045422   0.002380   0.006981
     2  H   -0.117938   0.800450   0.459838  -0.068782  -0.118498  -0.013765
     3  H   -0.022264   0.459838   0.615200  -0.034861  -0.121573  -0.014942
     4  H   -0.045422  -0.068782  -0.034861   0.861514   0.515420  -0.156462
     5  H    0.002380  -0.118498  -0.121573   0.515420   0.888234  -0.029255
     6  H    0.006981  -0.013765  -0.014942  -0.156462  -0.029255   0.888234
     7  H    0.001055   0.006580   0.002734  -0.116235  -0.156462   0.515420
     8  H   -0.000391   0.001717   0.001616   0.002734  -0.014942  -0.121573
     9  H   -0.000513   0.001485   0.001717   0.006580  -0.013765  -0.118498
    10  H    0.000107  -0.000513  -0.000391   0.001055   0.006981   0.002380
               7          8          9         10
     1  H    0.001055  -0.000391  -0.000513   0.000107
     2  H    0.006580   0.001717   0.001485  -0.000513
     3  H    0.002734   0.001616   0.001717  -0.000391
     4  H   -0.116235   0.002734   0.006580   0.001055
     5  H   -0.156462  -0.014942  -0.013765   0.006981
     6  H    0.515420  -0.121573  -0.118498   0.002380
     7  H    0.861514  -0.034861  -0.068782  -0.045422
     8  H   -0.034861   0.615200   0.459838  -0.022264
     9  H   -0.068782   0.459838   0.800450  -0.117938
    10  H   -0.045422  -0.022264  -0.117938   1.414296
 Mulliken charges:
               1
     1  H   -0.238291
     2  H    0.049424
     3  H    0.112926
     4  H    0.034459
     5  H    0.041481
     6  H    0.041481
     7  H    0.034459
     8  H    0.112926
     9  H    0.049424
    10  H   -0.238291
 Sum of Mulliken charges =  -0.00000
 Mulliken charges with hydrogens summed into heavy atoms:
               1
 Electronic spatial extent (au):  <R**2>=            202.6730
 Charge=             -0.0000 electrons
 Dipole moment (field-independent basis, Debye):
    X=              0.0000    Y=              0.0000    Z=              0.0000  Tot=              0.0000
 Quadrupole moment (field-independent basis, Debye-Ang):
   XX=            -16.9872   YY=            -32.0259   ZZ=            -12.7982
   XY=            -11.5234   XZ=             -0.0000   YZ=             -0.0000
 Traceless Quadrupole moment (field-independent basis, Debye-Ang):
   XX=              3.6166   YY=            -11.4222   ZZ=              7.8056
   XY=            -11.5234   XZ=             -0.0000   YZ=             -0.0000
 Octapole moment (field-independent basis, Debye-Ang**2):
  XXX=              0.0000  YYY=              0.0000  ZZZ=              0.0000  XYY=              0.0000
  XXY=              0.0000  XXZ=              0.0000  XZZ=              0.0000  YZZ=              0.0000
  YYZ=              0.0000  XYZ=              0.0000
 Hexadecapole moment (field-independent basis, Debye-Ang**3):
 XXXX=           -139.1279 YYYY=           -501.9838 ZZZZ=            -15.3794 XXXY=           -113.5559
 XXXZ=             -0.0000 YYYX=           -204.5149 YYYZ=             -0.0000 ZZZX=             -0.0000
 ZZZY=             -0.0000 XXYY=           -133.7732 XXZZ=            -24.0327 YYZZ=            -50.0450
 XXYZ=             -0.0000 YYXZ=             -0.0000 ZZXY=            -27.5447
 N-N= 1.196179064768D+01 E-N=-3.333932360268D+01  KE= 5.293876220370D+00
 Symmetry AG   KE= 3.079727127518D+00
 Symmetry BG   KE= 0.000000000000D+00
 Symmetry AU   KE= 0.000000000000D+00
 Symmetry BU   KE= 2.214149092852D+00

 Test job not archived.
 1\1\GINC-SULU\Stability\RHF\Gen\H10\LCJ1\09-Feb-2017\0\\#rhf/gen scf(s
 ymm,tight,novaracc,noincfock,fulldiag) stable(crhf) geom=nocrowd test\
 \hf stability analysis of h10 triangular lattice, y= 1.327101910278985
 4\\0,1\H\H,1,1.3965902875\H,1,1.3965902875,2,36.3\H,2,1.3965902875,1,1
 43.7,3,0.,0\H,3,1.3965902875,1,180.,2,0.,0\H,4,1.3965902875,2,180.,1,0
 .,0\H,5,1.3965902875,3,180.,2,0.,0\H,6,1.3965902875,4,180.,1,0.,0\H,7,
 1.3965902875,5,180.,2,0.,0\H,8,1.3965902875,6,180.,1,0.,0\\Version=ES6
 4L-G09RevE.01\State=1-AG\HF=-4.7583824\MP2=-4.9860592\RMSD=2.695e-09\D
 ipole=0.,0.,0.\Quadrupole=2.6888274,5.8032651,-8.4920925,0.,-8.5673661
 ,0.\PG=C02H [SGH(H10)]\\@


 REALITY IS FOR PEOPLE WHO CAN'T FACE SCIENCE FICTION.
 Job cpu time:       0 days  0 hours  0 minutes  1.0 seconds.
 File lengths (MBytes):  RWF=     84 Int=      0 D2E=      0 Chk=      2 Scr=      2
 Normal termination of Gaussian 09 at Thu Feb  9 15:47:43 2017.
