 Entering Gaussian System, Link 0=g09
 AtFile(1): H.gbs
            H     0
            S   10   1.00
               1000.000000000000            0.000068713567
                316.227766000000            0.000169141320
                100.000000000000            0.000823394812
                 31.622776600000            0.003425569236
                 10.000000000000            0.013951996000
                  3.162277660000            0.056909313560
                  1.000000000000            0.198286399900
                  0.316227766000            0.496922426700
                  0.100000000000            0.369846276400
                  0.031622776600            0.003752720039
            ****
 Initial command:
 /projects/guscus/apps/gau/g09-e1/g09/l1.exe "/users/lcj1/gaussian/h10/rhfstability/2rows/zmatrix/constarea/fwd/Gau-32483.inp" -scrdir="/users/lcj1/gaussian/h10/rhfstability/2rows/zmatrix/constarea/fwd/"
 Entering Link 1 = /projects/guscus/apps/gau/g09-e1/g09/l1.exe PID=     32484.
  
 Copyright (c) 1988,1990,1992,1993,1995,1998,2003,2009,2015,
            Gaussian, Inc.  All Rights Reserved.
  
 This is part of the Gaussian(R) 09 program.  It is based on
 the Gaussian(R) 03 system (copyright 2003, Gaussian, Inc.),
 the Gaussian(R) 98 system (copyright 1998, Gaussian, Inc.),
 the Gaussian(R) 94 system (copyright 1995, Gaussian, Inc.),
 the Gaussian 92(TM) system (copyright 1992, Gaussian, Inc.),
 the Gaussian 90(TM) system (copyright 1990, Gaussian, Inc.),
 the Gaussian 88(TM) system (copyright 1988, Gaussian, Inc.),
 the Gaussian 86(TM) system (copyright 1986, Carnegie Mellon
 University), and the Gaussian 82(TM) system (copyright 1983,
 Carnegie Mellon University). Gaussian is a federally registered
 trademark of Gaussian, Inc.
  
 This software contains proprietary and confidential information,
 including trade secrets, belonging to Gaussian, Inc.
  
 This software is provided under written license and may be
 used, copied, transmitted, or stored only in accord with that
 written license.
  
 The following legend is applicable only to US Government
 contracts under FAR:
  
                    RESTRICTED RIGHTS LEGEND
  
 Use, reproduction and disclosure by the US Government is
 subject to restrictions as set forth in subparagraphs (a)
 and (c) of the Commercial Computer Software - Restricted
 Rights clause in FAR 52.227-19.
  
 Gaussian, Inc.
 340 Quinnipiac St., Bldg. 40, Wallingford CT 06492
  
  
 ---------------------------------------------------------------
 Warning -- This program may not be used in any manner that
 competes with the business of Gaussian, Inc. or will provide
 assistance to any competitor of Gaussian, Inc.  The licensee
 of this program is prohibited from giving any competitor of
 Gaussian, Inc. access to this program.  By using this program,
 the user acknowledges that Gaussian, Inc. is engaged in the
 business of creating and licensing software in the field of
 computational chemistry and represents and warrants to the
 licensee that it is not a competitor of Gaussian, Inc. and that
 it will not use this program in any manner prohibited above.
 ---------------------------------------------------------------
  

 Cite this work as:
 Gaussian 09, Revision E.01,
 M. J. Frisch, G. W. Trucks, H. B. Schlegel, G. E. Scuseria, 
 M. A. Robb, J. R. Cheeseman, G. Scalmani, V. Barone, B. Mennucci, 
 G. A. Petersson, H. Nakatsuji, M. Caricato, X. Li, H. P. Hratchian, 
 A. F. Izmaylov, J. Bloino, G. Zheng, J. L. Sonnenberg, M. Hada, 
 M. Ehara, K. Toyota, R. Fukuda, J. Hasegawa, M. Ishida, T. Nakajima, 
 Y. Honda, O. Kitao, H. Nakai, T. Vreven, J. A. Montgomery, Jr., 
 J. E. Peralta, F. Ogliaro, M. Bearpark, J. J. Heyd, E. Brothers, 
 K. N. Kudin, V. N. Staroverov, T. Keith, R. Kobayashi, J. Normand, 
 K. Raghavachari, A. Rendell, J. C. Burant, S. S. Iyengar, J. Tomasi, 
 M. Cossi, N. Rega, J. M. Millam, M. Klene, J. E. Knox, J. B. Cross, 
 V. Bakken, C. Adamo, J. Jaramillo, R. Gomperts, R. E. Stratmann, 
 O. Yazyev, A. J. Austin, R. Cammi, C. Pomelli, J. W. Ochterski, 
 R. L. Martin, K. Morokuma, V. G. Zakrzewski, G. A. Voth, 
 P. Salvador, J. J. Dannenberg, S. Dapprich, A. D. Daniels, 
 O. Farkas, J. B. Foresman, J. V. Ortiz, J. Cioslowski, 
 and D. J. Fox, Gaussian, Inc., Wallingford CT, 2013.
 
 ******************************************
 Gaussian 09:  ES64L-G09RevE.01 30-Nov-2015
                 9-Feb-2017 
 ******************************************
 %chk=h10.chk
 ----------------------------------------------------------------------
 #rhf/gen scf(symm,tight,novaracc,noincfock,fulldiag) stable(crhf) geom
 =nocrowd test
 ----------------------------------------------------------------------
 1/38=1/1;
 2/12=1,17=6,18=5,40=1/2;
 3/5=7,16=1,25=1,30=1,116=1/1,2,3;
 4/9=4/1;
 5/5=100002,15=2,16=1,32=2,38=1/2;
 8/6=1,10=90,11=11/1,4;
 9/8=4,13=1/2;
 6/7=2,8=2,9=2,10=2,28=1/1;
 99/5=1,9=1/99;
 ----------------------------------------------------------------------
 hf stability analysis of h10 triangular lattice, y= 1.1550661760401986
 ----------------------------------------------------------------------
 Symbolic Z-matrix:
 Charge =  0 Multiplicity = 1
 H
 H                    1     1.25858 
 H                    1     1.25858  2     46.8 
 H                    2     1.25858  1     133.2    3     0.       0
 H                    3     1.25858  1     180.     2     0.       0
 H                    4     1.25858  2     180.     1     0.       0
 H                    5     1.25858  3     180.     2     0.       0
 H                    6     1.25858  4     180.     1     0.       0
 H                    7     1.25858  5     180.     2     0.       0
 H                    8     1.25858  6     180.     1     0.       0
 
                          Input orientation:                          
 ---------------------------------------------------------------------
 Center     Atomic      Atomic             Coordinates (Angstroms)
 Number     Number       Type             X           Y           Z
 ---------------------------------------------------------------------
      1          1           0        0.000000    0.000000    0.000000
      2          1           0        0.000000    0.000000    1.258578
      3          1           0        0.917464    0.000000    0.861556
      4          1           0        0.917464    0.000000    2.120135
      5          1           0        1.834928    0.000000    1.723112
      6          1           0        1.834928    0.000000    2.981691
      7          1           0        2.752393    0.000000    2.584669
      8          1           0        2.752393    0.000000    3.843247
      9          1           0        3.669857    0.000000    3.446225
     10          1           0        3.669857    0.000000    4.704803
 ---------------------------------------------------------------------
                    Distance matrix (angstroms):
                    1          2          3          4          5
     1  H    0.000000
     2  H    1.258578   0.000000
     3  H    1.258578   0.999684   0.000000
     4  H    2.310132   1.258578   1.258578   0.000000
     5  H    2.517157   1.892816   1.258578   0.999684   0.000000
     6  H    3.501063   2.517157   2.310132   1.258578   1.258578
     7  H    3.775735   3.055189   2.517157   1.892816   1.258578
     8  H    4.727178   3.775735   3.501063   2.517157   2.310132
     9  H    5.034314   4.272428   3.775735   3.055189   2.517157
    10  H    5.966827   5.034314   4.727178   3.775735   3.501063
                    6          7          8          9         10
     6  H    0.000000
     7  H    0.999684   0.000000
     8  H    1.258578   1.258578   0.000000
     9  H    1.892816   1.258578   0.999684   0.000000
    10  H    2.517157   2.310132   1.258578   1.258578   0.000000
 Stoichiometry    H10
 Framework group  C2H[SGH(H10)]
 Deg. of freedom     9
 Full point group                 C2H     NOp   4
 Largest Abelian subgroup         C2H     NOp   4
 Largest concise Abelian subgroup C2      NOp   2
                         Standard orientation:                         
 ---------------------------------------------------------------------
 Center     Atomic      Atomic             Coordinates (Angstroms)
 Number     Number       Type             X           Y           Z
 ---------------------------------------------------------------------
      1          1           0        1.834928    2.352402   -0.000000
      2          1           0        1.834928    1.093823   -0.000000
      3          1           0        0.917464    1.490845   -0.000000
      4          1           0        0.917464    0.232267   -0.000000
      5          1           0       -0.000000    0.629289   -0.000000
      6          1           0       -0.000000   -0.629289   -0.000000
      7          1           0       -0.917464   -0.232267   -0.000000
      8          1           0       -0.917464   -1.490845   -0.000000
      9          1           0       -1.834928   -1.093823   -0.000000
     10          1           0       -1.834928   -2.352402   -0.000000
 ---------------------------------------------------------------------
 Rotational constants (GHZ):    253.1834586     14.8977260     14.0698341
 General basis read from cards:  (5D, 7F)
 There are     5 symmetry adapted cartesian basis functions of AG  symmetry.
 There are     0 symmetry adapted cartesian basis functions of BG  symmetry.
 There are     0 symmetry adapted cartesian basis functions of AU  symmetry.
 There are     5 symmetry adapted cartesian basis functions of BU  symmetry.
 There are     5 symmetry adapted basis functions of AG  symmetry.
 There are     0 symmetry adapted basis functions of BG  symmetry.
 There are     0 symmetry adapted basis functions of AU  symmetry.
 There are     5 symmetry adapted basis functions of BU  symmetry.
    10 basis functions,   100 primitive gaussians,    10 cartesian basis functions
     5 alpha electrons        5 beta electrons
       nuclear repulsion energy        12.6067889479 Hartrees.
 NAtoms=   10 NActive=   10 NUniq=    5 SFac= 4.00D+00 NAtFMM=   60 NAOKFM=F Big=F
 Integral buffers will be    131072 words long.
 Regular integral format.
 Two-electron integral symmetry is turned on.
 One-electron integrals computed using PRISM.
 NBasis=    10 RedAO= T EigKep=  1.91D-01  NBF=     5     0     0     5
 NBsUse=    10 1.00D-06 EigRej= -1.00D+00 NBFU=     5     0     0     5
 ExpMin= 3.16D-02 ExpMax= 1.00D+03 ExpMxC= 1.00D+01 IAcc=3 IRadAn=         5 AccDes= 0.00D+00
 Harris functional with IExCor=  205 and IRadAn=       5 diagonalized for initial guess.
 HarFok:  IExCor=  205 AccDes= 0.00D+00 IRadAn=         5 IDoV= 1 UseB2=F ITyADJ=14
 ICtDFT=  3500011 ScaDFX=  1.000000  1.000000  1.000000  1.000000
 FoFCou: FMM=F IPFlag=           0 FMFlag=      100000 FMFlg1=           0
         NFxFlg=           0 DoJE=T BraDBF=F KetDBF=T FulRan=T
         wScrn=  0.000000 ICntrl=     500 IOpCl=  0 I1Cent=   200000004 NGrid=           0
         NMat0=    1 NMatS0=      1 NMatT0=    0 NMatD0=    1 NMtDS0=    0 NMtDT0=    0
 Petite list used in FoFCou.
 Initial guess orbital symmetries:
       Occupied  (AG) (BU) (AG) (BU) (BU)
       Virtual   (AG) (AG) (BU) (BU) (AG)
 The electronic state of the initial guess is 1-AG.
 Keep R1 ints in memory in symmetry-blocked form, NReq=878139.
 Requested convergence on RMS density matrix=1.00D-08 within 128 cycles.
 Requested convergence on MAX density matrix=1.00D-06.
 Requested convergence on             energy=1.00D-06.
 No special actions if energy rises.
 SCF Done:  E(RHF) =  -4.81657778717     A.U. after   10 cycles
            NFock= 10  Conv=0.40D-08     -V/T= 1.9674
 Range of M.O.s used for correlation:     1    10
 NBasis=    10 NAE=     5 NBE=     5 NFC=     0 NFV=     0
 NROrb=     10 NOA=     5 NOB=     5 NVA=     5 NVB=     5
 Semi-Direct transformation.
 ModeAB=           4 MOrb=             5 LenV=     134108842
 LASXX=         1030 LTotXX=        1030 LenRXX=        2480
 LTotAB=        1450 MaxLAS=        1500 LenRXY=           0
 NonZer=        3510 LenScr=      655360 LnRSAI=        1500
 LnScr1=      655360 LExtra=           0 Total=      1314700
 MaxDsk=          -1 SrtSym=           T ITran=            3
 JobTyp=0 Pass  1:  I=   1 to   5.
 (rs|ai) integrals will be sorted in core.
 Spin components of T(2) and E(2):
     alpha-alpha T2 =       0.6924128587D-02 E2=     -0.7643806752D-02
     alpha-beta  T2 =       0.9787522542D-01 E2=     -0.1074065883D+00
     beta-beta   T2 =       0.6924128587D-02 E2=     -0.7643806752D-02
 ANorm=    0.1054382987D+01
 E2 =    -0.1226942018D+00 EUMP2 =    -0.49392719889775D+01
 Second order stability test of a single determinant RHF wave function:
 Stabil:  MDV=134217728
 ***********************************************************************
 Matrix         Lowest Root    Major Pairs
 ***********************************************************************
 Internal RHF     0.0893044    Stable
 RRHF --> CRHF    0.050461     Stable
 RRHF --> RUHF   -0.1074162    5A=6B 5A=7B
 Not stable.
 ***********************************************************************

 **********************************************************************

            Population analysis using the SCF density.

 **********************************************************************

 Orbital symmetries:
       Occupied  (AG) (BU) (AG) (BU) (BU)
       Virtual   (AG) (AG) (BU) (BU) (AG)
 The electronic state is 1-AG.
 Alpha  occ. eigenvalues --   -0.80521  -0.73039  -0.55319  -0.33213  -0.24064
 Alpha virt. eigenvalues --    0.02959   0.14431   0.22651   0.40961   0.60728
          Condensed to atoms (all electrons):
               1          2          3          4          5          6
     1  H    0.866804   0.200757   0.085638  -0.099851  -0.050308   0.002494
     2  H    0.200757   0.708647   0.001311   0.108924  -0.153825   0.043372
     3  H    0.085638   0.001311   0.679530  -0.074291   0.277274  -0.095866
     4  H   -0.099851   0.108924  -0.074291   1.150845   0.027422   0.185471
     5  H   -0.050308  -0.153825   0.277274   0.027422   1.195485  -0.337878
     6  H    0.002494   0.043372  -0.095866   0.185471  -0.337878   1.195485
     7  H    0.007888  -0.020082   0.017876  -0.193857   0.185471   0.027422
     8  H    0.000496   0.006708  -0.010333   0.017876  -0.095866   0.277274
     9  H    0.000067  -0.002020   0.006708  -0.020082   0.043372  -0.153825
    10  H   -0.000168   0.000067   0.000496   0.007888   0.002494  -0.050308
               7          8          9         10
     1  H    0.007888   0.000496   0.000067  -0.000168
     2  H   -0.020082   0.006708  -0.002020   0.000067
     3  H    0.017876  -0.010333   0.006708   0.000496
     4  H   -0.193857   0.017876  -0.020082   0.007888
     5  H    0.185471  -0.095866   0.043372   0.002494
     6  H    0.027422   0.277274  -0.153825  -0.050308
     7  H    1.150845  -0.074291   0.108924  -0.099851
     8  H   -0.074291   0.679530   0.001311   0.085638
     9  H    0.108924   0.001311   0.708647   0.200757
    10  H   -0.099851   0.085638   0.200757   0.866804
 Mulliken charges:
               1
     1  H   -0.013816
     2  H    0.106141
     3  H    0.111657
     4  H   -0.110343
     5  H   -0.093639
     6  H   -0.093639
     7  H   -0.110343
     8  H    0.111657
     9  H    0.106141
    10  H   -0.013816
 Sum of Mulliken charges =  -0.00000
 Mulliken charges with hydrogens summed into heavy atoms:
               1
 Electronic spatial extent (au):  <R**2>=            155.0789
 Charge=             -0.0000 electrons
 Dipole moment (field-independent basis, Debye):
    X=              0.0000    Y=              0.0000    Z=             -0.0000  Tot=              0.0000
 Quadrupole moment (field-independent basis, Debye-Ang):
   XX=            -11.8950   YY=            -12.3666   ZZ=            -13.1365
   XY=              2.5701   XZ=              0.0000   YZ=              0.0000
 Traceless Quadrupole moment (field-independent basis, Debye-Ang):
   XX=              0.5710   YY=              0.0995   ZZ=             -0.6705
   XY=              2.5701   XZ=              0.0000   YZ=              0.0000
 Octapole moment (field-independent basis, Debye-Ang**2):
  XXX=              0.0000  YYY=              0.0000  ZZZ=              0.0000  XYY=             -0.0000
  XXY=              0.0000  XXZ=              0.0000  XZZ=              0.0000  YZZ=              0.0000
  YYZ=              0.0000  XYZ=             -0.0000
 Hexadecapole moment (field-independent basis, Debye-Ang**3):
 XXXX=           -151.4181 YYYY=           -164.3144 ZZZZ=            -16.0366 XXXY=            -63.3025
 XXXZ=             -0.0000 YYYX=            -60.9066 YYYZ=             -0.0000 ZZZX=             -0.0000
 ZZZY=             -0.0000 XXYY=            -54.5646 XXZZ=            -28.1552 YYZZ=            -30.9487
 XXYZ=             -0.0000 YYXZ=             -0.0000 ZZXY=            -20.8443
 N-N= 1.260678894789D+01 E-N=-3.450226425454D+01  KE= 4.978641861826D+00
 Symmetry AG   KE= 1.437293189608D+00
 Symmetry BG   KE= 0.000000000000D+00
 Symmetry AU   KE= 0.000000000000D+00
 Symmetry BU   KE= 3.541348672218D+00

 Test job not archived.
 1\1\GINC-SULU\Stability\RHF\Gen\H10\LCJ1\09-Feb-2017\0\\#rhf/gen scf(s
 ymm,tight,novaracc,noincfock,fulldiag) stable(crhf) geom=nocrowd test\
 \hf stability analysis of h10 triangular lattice, y= 1.155066176040198
 6\\0,1\H\H,1,1.2585784125\H,1,1.2585784125,2,46.8\H,2,1.2585784125,1,1
 33.2,3,0.,0\H,3,1.2585784125,1,180.,2,0.,0\H,4,1.2585784125,2,180.,1,0
 .,0\H,5,1.2585784125,3,180.,2,0.,0\H,6,1.2585784125,4,180.,1,0.,0\H,7,
 1.2585784125,5,180.,2,0.,0\H,8,1.2585784125,6,180.,1,0.,0\\Version=ES6
 4L-G09RevE.01\State=1-AG\HF=-4.8165778\MP2=-4.939272\RMSD=3.975e-09\Di
 pole=0.,0.,0.\Quadrupole=0.4245287,-0.4984784,0.0739497,0.,1.9108404,0
 .\PG=C02H [SGH(H10)]\\@


 IN NATURE THERE ARE NEITHER REWARDS OR
 PUNISHMENTS -- THERE ARE CONSEQUENCES.

                            -- ROBERT GREEN INGERSOLL
 Job cpu time:       0 days  0 hours  0 minutes  1.0 seconds.
 File lengths (MBytes):  RWF=     84 Int=      0 D2E=      0 Chk=      2 Scr=      2
 Normal termination of Gaussian 09 at Thu Feb  9 15:42:36 2017.
