 Entering Gaussian System, Link 0=g09
 AtFile(1): H.gbs
            H     0
            S   10   1.00
               1000.000000000000            0.000068713567
                316.227766000000            0.000169141320
                100.000000000000            0.000823394812
                 31.622776600000            0.003425569236
                 10.000000000000            0.013951996000
                  3.162277660000            0.056909313560
                  1.000000000000            0.198286399900
                  0.316227766000            0.496922426700
                  0.100000000000            0.369846276400
                  0.031622776600            0.003752720039
            ****
 Initial command:
 /projects/guscus/apps/gau/g09-e1/g09/l1.exe "/users/lcj1/gaussian/h10/rhfstability/2rows/zmatrix/constarea/fwd/Gau-10209.inp" -scrdir="/users/lcj1/gaussian/h10/rhfstability/2rows/zmatrix/constarea/fwd/"
 Entering Link 1 = /projects/guscus/apps/gau/g09-e1/g09/l1.exe PID=     10210.
  
 Copyright (c) 1988,1990,1992,1993,1995,1998,2003,2009,2015,
            Gaussian, Inc.  All Rights Reserved.
  
 This is part of the Gaussian(R) 09 program.  It is based on
 the Gaussian(R) 03 system (copyright 2003, Gaussian, Inc.),
 the Gaussian(R) 98 system (copyright 1998, Gaussian, Inc.),
 the Gaussian(R) 94 system (copyright 1995, Gaussian, Inc.),
 the Gaussian 92(TM) system (copyright 1992, Gaussian, Inc.),
 the Gaussian 90(TM) system (copyright 1990, Gaussian, Inc.),
 the Gaussian 88(TM) system (copyright 1988, Gaussian, Inc.),
 the Gaussian 86(TM) system (copyright 1986, Carnegie Mellon
 University), and the Gaussian 82(TM) system (copyright 1983,
 Carnegie Mellon University). Gaussian is a federally registered
 trademark of Gaussian, Inc.
  
 This software contains proprietary and confidential information,
 including trade secrets, belonging to Gaussian, Inc.
  
 This software is provided under written license and may be
 used, copied, transmitted, or stored only in accord with that
 written license.
  
 The following legend is applicable only to US Government
 contracts under FAR:
  
                    RESTRICTED RIGHTS LEGEND
  
 Use, reproduction and disclosure by the US Government is
 subject to restrictions as set forth in subparagraphs (a)
 and (c) of the Commercial Computer Software - Restricted
 Rights clause in FAR 52.227-19.
  
 Gaussian, Inc.
 340 Quinnipiac St., Bldg. 40, Wallingford CT 06492
  
  
 ---------------------------------------------------------------
 Warning -- This program may not be used in any manner that
 competes with the business of Gaussian, Inc. or will provide
 assistance to any competitor of Gaussian, Inc.  The licensee
 of this program is prohibited from giving any competitor of
 Gaussian, Inc. access to this program.  By using this program,
 the user acknowledges that Gaussian, Inc. is engaged in the
 business of creating and licensing software in the field of
 computational chemistry and represents and warrants to the
 licensee that it is not a competitor of Gaussian, Inc. and that
 it will not use this program in any manner prohibited above.
 ---------------------------------------------------------------
  

 Cite this work as:
 Gaussian 09, Revision E.01,
 M. J. Frisch, G. W. Trucks, H. B. Schlegel, G. E. Scuseria, 
 M. A. Robb, J. R. Cheeseman, G. Scalmani, V. Barone, B. Mennucci, 
 G. A. Petersson, H. Nakatsuji, M. Caricato, X. Li, H. P. Hratchian, 
 A. F. Izmaylov, J. Bloino, G. Zheng, J. L. Sonnenberg, M. Hada, 
 M. Ehara, K. Toyota, R. Fukuda, J. Hasegawa, M. Ishida, T. Nakajima, 
 Y. Honda, O. Kitao, H. Nakai, T. Vreven, J. A. Montgomery, Jr., 
 J. E. Peralta, F. Ogliaro, M. Bearpark, J. J. Heyd, E. Brothers, 
 K. N. Kudin, V. N. Staroverov, T. Keith, R. Kobayashi, J. Normand, 
 K. Raghavachari, A. Rendell, J. C. Burant, S. S. Iyengar, J. Tomasi, 
 M. Cossi, N. Rega, J. M. Millam, M. Klene, J. E. Knox, J. B. Cross, 
 V. Bakken, C. Adamo, J. Jaramillo, R. Gomperts, R. E. Stratmann, 
 O. Yazyev, A. J. Austin, R. Cammi, C. Pomelli, J. W. Ochterski, 
 R. L. Martin, K. Morokuma, V. G. Zakrzewski, G. A. Voth, 
 P. Salvador, J. J. Dannenberg, S. Dapprich, A. D. Daniels, 
 O. Farkas, J. B. Foresman, J. V. Ortiz, J. Cioslowski, 
 and D. J. Fox, Gaussian, Inc., Wallingford CT, 2013.
 
 ******************************************
 Gaussian 09:  ES64L-G09RevE.01 30-Nov-2015
                 9-Feb-2017 
 ******************************************
 %chk=h10.chk
 ----------------------------------------------------------------------
 #rhf/gen scf(symm,tight,novaracc,noincfock,fulldiag) stable(crhf) geom
 =nocrowd test
 ----------------------------------------------------------------------
 1/38=1/1;
 2/12=1,17=6,18=5,40=1/2;
 3/5=7,16=1,25=1,30=1,116=1/1,2,3;
 4/9=4/1;
 5/5=100002,15=2,16=1,32=2,38=1/2;
 8/6=1,10=90,11=11/1,4;
 9/8=4,13=1/2;
 6/7=2,8=2,9=2,10=2,28=1/1;
 99/5=1,9=1/99;
 ----------------------------------------------------------------------
 hf stability analysis of h10 triangular lattice, y= 0.9621591990663992
 4
 ----------------------------------------------------------------------
 Symbolic Z-matrix:
 Charge =  0 Multiplicity = 1
 H
 H                    1     1.13394 
 H                    1     1.13394  2     63.9 
 H                    2     1.13394  1     116.1    3     0.       0
 H                    3     1.13394  1     180.     2     0.       0
 H                    4     1.13394  2     180.     1     0.       0
 H                    5     1.13394  3     180.     2     0.       0
 H                    6     1.13394  4     180.     1     0.       0
 H                    7     1.13394  5     180.     2     0.       0
 H                    8     1.13394  6     180.     1     0.       0
 
                          Input orientation:                          
 ---------------------------------------------------------------------
 Center     Atomic      Atomic             Coordinates (Angstroms)
 Number     Number       Type             X           Y           Z
 ---------------------------------------------------------------------
      1          1           0        0.000000    0.000000    0.000000
      2          1           0        0.000000    0.000000    1.133939
      3          1           0        1.018309    0.000000    0.498864
      4          1           0        1.018309    0.000000    1.632804
      5          1           0        2.036618    0.000000    0.997729
      6          1           0        2.036618    0.000000    2.131668
      7          1           0        3.054927    0.000000    1.496593
      8          1           0        3.054927    0.000000    2.630533
      9          1           0        4.073235    0.000000    1.995457
     10          1           0        4.073235    0.000000    3.129397
 ---------------------------------------------------------------------
                    Distance matrix (angstroms):
                    1          2          3          4          5
     1  H    0.000000
     2  H    1.133939   0.000000
     3  H    1.133939   1.200114   0.000000
     4  H    1.924318   1.133939   1.133939   0.000000
     5  H    2.267879   2.041168   1.133939   1.200114   0.000000
     6  H    2.948189   2.267879   1.924318   1.133939   1.133939
     7  H    3.401818   3.076377   2.267879   2.041168   1.133939
     8  H    4.031411   3.401818   2.948189   2.267879   1.924318
     9  H    4.535758   4.163347   3.401818   3.076377   2.267879
    10  H    5.136572   4.535758   4.031411   3.401818   2.948189
                    6          7          8          9         10
     6  H    0.000000
     7  H    1.200114   0.000000
     8  H    1.133939   1.133939   0.000000
     9  H    2.041168   1.133939   1.200114   0.000000
    10  H    2.267879   1.924318   1.133939   1.133939   0.000000
 Stoichiometry    H10
 Framework group  C2H[SGH(H10)]
 Deg. of freedom     9
 Full point group                 C2H     NOp   4
 Largest Abelian subgroup         C2H     NOp   4
 Largest concise Abelian subgroup C2      NOp   2
                         Standard orientation:                         
 ---------------------------------------------------------------------
 Center     Atomic      Atomic             Coordinates (Angstroms)
 Number     Number       Type             X           Y           Z
 ---------------------------------------------------------------------
      1          1           0        2.036618    1.564698    0.000000
      2          1           0        2.036618    0.430759    0.000000
      3          1           0        1.018309    1.065834    0.000000
      4          1           0        1.018309   -0.068105    0.000000
      5          1           0       -0.000000    0.566970    0.000000
      6          1           0       -0.000000   -0.566970   -0.000000
      7          1           0       -1.018309    0.068105    0.000000
      8          1           0       -1.018309   -1.065834   -0.000000
      9          1           0       -2.036618   -0.430759   -0.000000
     10          1           0       -2.036618   -1.564698   -0.000000
 ---------------------------------------------------------------------
 Rotational constants (GHZ):    198.6233348     18.9900047     17.3328440
 General basis read from cards:  (5D, 7F)
 There are     5 symmetry adapted cartesian basis functions of AG  symmetry.
 There are     0 symmetry adapted cartesian basis functions of BG  symmetry.
 There are     0 symmetry adapted cartesian basis functions of AU  symmetry.
 There are     5 symmetry adapted cartesian basis functions of BU  symmetry.
 There are     5 symmetry adapted basis functions of AG  symmetry.
 There are     0 symmetry adapted basis functions of BG  symmetry.
 There are     0 symmetry adapted basis functions of AU  symmetry.
 There are     5 symmetry adapted basis functions of BU  symmetry.
    10 basis functions,   100 primitive gaussians,    10 cartesian basis functions
     5 alpha electrons        5 beta electrons
       nuclear repulsion energy        13.3389555360 Hartrees.
 NAtoms=   10 NActive=   10 NUniq=    5 SFac= 4.00D+00 NAtFMM=   60 NAOKFM=F Big=F
 Integral buffers will be    131072 words long.
 Regular integral format.
 Two-electron integral symmetry is turned on.
 One-electron integrals computed using PRISM.
 NBasis=    10 RedAO= T EigKep=  1.73D-01  NBF=     5     0     0     5
 NBsUse=    10 1.00D-06 EigRej= -1.00D+00 NBFU=     5     0     0     5
 ExpMin= 3.16D-02 ExpMax= 1.00D+03 ExpMxC= 1.00D+01 IAcc=3 IRadAn=         5 AccDes= 0.00D+00
 Harris functional with IExCor=  205 and IRadAn=       5 diagonalized for initial guess.
 HarFok:  IExCor=  205 AccDes= 0.00D+00 IRadAn=         5 IDoV= 1 UseB2=F ITyADJ=14
 ICtDFT=  3500011 ScaDFX=  1.000000  1.000000  1.000000  1.000000
 FoFCou: FMM=F IPFlag=           0 FMFlag=      100000 FMFlg1=           0
         NFxFlg=           0 DoJE=T BraDBF=F KetDBF=T FulRan=T
         wScrn=  0.000000 ICntrl=     500 IOpCl=  0 I1Cent=   200000004 NGrid=           0
         NMat0=    1 NMatS0=      1 NMatT0=    0 NMatD0=    1 NMtDS0=    0 NMtDT0=    0
 Petite list used in FoFCou.
 Initial guess orbital symmetries:
       Occupied  (AG) (BU) (AG) (BU) (BU)
       Virtual   (AG) (BU) (AG) (AG) (BU)
 The electronic state of the initial guess is 1-AG.
 Keep R1 ints in memory in symmetry-blocked form, NReq=879413.
 Requested convergence on RMS density matrix=1.00D-08 within 128 cycles.
 Requested convergence on MAX density matrix=1.00D-06.
 Requested convergence on             energy=1.00D-06.
 No special actions if energy rises.
 SCF Done:  E(RHF) =  -4.86765416791     A.U. after   10 cycles
            NFock= 10  Conv=0.50D-08     -V/T= 1.9551
 Range of M.O.s used for correlation:     1    10
 NBasis=    10 NAE=     5 NBE=     5 NFC=     0 NFV=     0
 NROrb=     10 NOA=     5 NOB=     5 NVA=     5 NVB=     5
 Semi-Direct transformation.
 ModeAB=           4 MOrb=             5 LenV=     134107092
 LASXX=         1030 LTotXX=        1030 LenRXX=        2480
 LTotAB=        1450 MaxLAS=        1500 LenRXY=           0
 NonZer=        3510 LenScr=      655360 LnRSAI=        1500
 LnScr1=      655360 LExtra=           0 Total=      1314700
 MaxDsk=          -1 SrtSym=           T ITran=            3
 JobTyp=0 Pass  1:  I=   1 to   5.
 (rs|ai) integrals will be sorted in core.
 Spin components of T(2) and E(2):
     alpha-alpha T2 =       0.6259830766D-02 E2=     -0.7630915782D-02
     alpha-beta  T2 =       0.7696261235D-01 E2=     -0.9724461928D-01
     beta-beta   T2 =       0.6259830766D-02 E2=     -0.7630915782D-02
 ANorm=    0.1043782676D+01
 E2 =    -0.1125064508D+00 EUMP2 =    -0.49801606187475D+01
 Second order stability test of a single determinant RHF wave function:
 Stabil:  MDV=134217728
 ***********************************************************************
 Matrix         Lowest Root    Major Pairs
 ***********************************************************************
 Internal RHF     0.0670838    Stable
 RRHF --> CRHF    0.0199248    Stable
 RRHF --> RUHF   -0.0903948    5A=6B
 Not stable.
 ***********************************************************************

 **********************************************************************

            Population analysis using the SCF density.

 **********************************************************************

 Orbital symmetries:
       Occupied  (AG) (BU) (AG) (BU) (BU)
       Virtual   (AG) (BU) (AG) (AG) (BU)
 The electronic state is 1-AG.
 Alpha  occ. eigenvalues --   -0.84856  -0.74056  -0.54981  -0.35753  -0.30421
 Alpha virt. eigenvalues --   -0.01035   0.23169   0.24521   0.54975   0.64732
          Condensed to atoms (all electrons):
               1          2          3          4          5          6
     1  H    1.009199   0.336994  -0.032981  -0.167387  -0.066718  -0.001502
     2  H    0.336994   0.648348  -0.040232  -0.008181  -0.115475   0.030815
     3  H   -0.032981  -0.040232   0.728784   0.081425   0.332595  -0.142723
     4  H   -0.167387  -0.008181   0.081425   1.188728   0.025195   0.183884
     5  H   -0.066718  -0.115475   0.332595   0.025195   1.014548  -0.231047
     6  H   -0.001502   0.030815  -0.142723   0.183884  -0.231047   1.014548
     7  H    0.016927  -0.005883  -0.008392  -0.188367   0.183884   0.025195
     8  H    0.003494   0.011004  -0.033281  -0.008392  -0.142723   0.332595
     9  H   -0.000343  -0.001163   0.011004  -0.005883   0.030815  -0.115475
    10  H   -0.000778  -0.000343   0.003494   0.016927  -0.001502  -0.066718
               7          8          9         10
     1  H    0.016927   0.003494  -0.000343  -0.000778
     2  H   -0.005883   0.011004  -0.001163  -0.000343
     3  H   -0.008392  -0.033281   0.011004   0.003494
     4  H   -0.188367  -0.008392  -0.005883   0.016927
     5  H    0.183884  -0.142723   0.030815  -0.001502
     6  H    0.025195   0.332595  -0.115475  -0.066718
     7  H    1.188728   0.081425  -0.008181  -0.167387
     8  H    0.081425   0.728784  -0.040232  -0.032981
     9  H   -0.008181  -0.040232   0.648348   0.336994
    10  H   -0.167387  -0.032981   0.336994   1.009199
 Mulliken charges:
               1
     1  H   -0.096905
     2  H    0.144118
     3  H    0.100307
     4  H   -0.117949
     5  H   -0.029571
     6  H   -0.029571
     7  H   -0.117949
     8  H    0.100307
     9  H    0.144118
    10  H   -0.096905
 Sum of Mulliken charges =   0.00000
 Mulliken charges with hydrogens summed into heavy atoms:
               1
 Electronic spatial extent (au):  <R**2>=            134.9023
 Charge=              0.0000 electrons
 Dipole moment (field-independent basis, Debye):
    X=             -0.0000    Y=             -0.0000    Z=              0.0000  Tot=              0.0000
 Quadrupole moment (field-independent basis, Debye-Ang):
   XX=            -14.1274   YY=            -15.4127   ZZ=            -12.9470
   XY=             -1.5170   XZ=             -0.0000   YZ=             -0.0000
 Traceless Quadrupole moment (field-independent basis, Debye-Ang):
   XX=              0.0350   YY=             -1.2504   ZZ=              1.2154
   XY=             -1.5170   XZ=             -0.0000   YZ=             -0.0000
 Octapole moment (field-independent basis, Debye-Ang**2):
  XXX=             -0.0000  YYY=              0.0000  ZZZ=              0.0000  XYY=              0.0000
  XXY=              0.0000  XXZ=              0.0000  XZZ=              0.0000  YZZ=             -0.0000
  YYZ=              0.0000  XYZ=              0.0000
 Hexadecapole moment (field-independent basis, Debye-Ang**3):
 XXXX=           -206.7564 YYYY=            -88.8710 ZZZZ=            -15.6246 XXXY=            -63.5859
 XXXZ=             -0.0000 YYYX=            -47.8490 YYYZ=             -0.0000 ZZZX=             -0.0000
 ZZZY=             -0.0000 XXYY=            -57.9695 XXZZ=            -33.6620 YYZZ=            -17.0125
 XXYZ=             -0.0000 YYXZ=             -0.0000 ZZXY=            -14.0653
 N-N= 1.333895553600D+01 E-N=-3.590857364789D+01  KE= 5.096676516970D+00
 Symmetry AG   KE= 1.482353837021D+00
 Symmetry BG   KE= 0.000000000000D+00
 Symmetry AU   KE= 0.000000000000D+00
 Symmetry BU   KE= 3.614322679948D+00

 Test job not archived.
 1\1\GINC-SULU\Stability\RHF\Gen\H10\LCJ1\09-Feb-2017\0\\#rhf/gen scf(s
 ymm,tight,novaracc,noincfock,fulldiag) stable(crhf) geom=nocrowd test\
 \hf stability analysis of h10 triangular lattice, y= 0.962159199066399
 24\\0,1\H\H,1,1.1339394213\H,1,1.1339394213,2,63.9\H,2,1.1339394213,1,
 116.1,3,0.,0\H,3,1.1339394213,1,180.,2,0.,0\H,4,1.1339394213,2,180.,1,
 0.,0\H,5,1.1339394213,3,180.,2,0.,0\H,6,1.1339394213,4,180.,1,0.,0\H,7
 ,1.1339394213,5,180.,2,0.,0\H,8,1.1339394213,6,180.,1,0.,0\\Version=ES
 64L-G09RevE.01\State=1-AG\HF=-4.8676542\MP2=-4.9801606\RMSD=4.966e-09\
 Dipole=0.,0.,0.\Quadrupole=0.0260159,0.9036013,-0.9296172,0.,-1.127854
 6,0.\PG=C02H [SGH(H10)]\\@


 A MAN IS EXACTLY AS GREAT AS THE TIDE SURGING
 BENEATH HIM.      - BISMARCK
 Job cpu time:       0 days  0 hours  0 minutes  0.9 seconds.
 File lengths (MBytes):  RWF=     84 Int=      0 D2E=      0 Chk=      2 Scr=      2
 Normal termination of Gaussian 09 at Thu Feb  9 15:34:20 2017.
