 Entering Gaussian System, Link 0=g09
 AtFile(1): H.gbs
            H     0
            S   10   1.00
               1000.000000000000            0.000068713567
                316.227766000000            0.000169141320
                100.000000000000            0.000823394812
                 31.622776600000            0.003425569236
                 10.000000000000            0.013951996000
                  3.162277660000            0.056909313560
                  1.000000000000            0.198286399900
                  0.316227766000            0.496922426700
                  0.100000000000            0.369846276400
                  0.031622776600            0.003752720039
            ****
 Initial command:
 /projects/guscus/apps/gau/g09-e1/g09/l1.exe "/users/lcj1/gaussian/h10/rhfstability/2rows/zmatrix/constarea/fwd/Gau-30712.inp" -scrdir="/users/lcj1/gaussian/h10/rhfstability/2rows/zmatrix/constarea/fwd/"
 Entering Link 1 = /projects/guscus/apps/gau/g09-e1/g09/l1.exe PID=     30713.
  
 Copyright (c) 1988,1990,1992,1993,1995,1998,2003,2009,2015,
            Gaussian, Inc.  All Rights Reserved.
  
 This is part of the Gaussian(R) 09 program.  It is based on
 the Gaussian(R) 03 system (copyright 2003, Gaussian, Inc.),
 the Gaussian(R) 98 system (copyright 1998, Gaussian, Inc.),
 the Gaussian(R) 94 system (copyright 1995, Gaussian, Inc.),
 the Gaussian 92(TM) system (copyright 1992, Gaussian, Inc.),
 the Gaussian 90(TM) system (copyright 1990, Gaussian, Inc.),
 the Gaussian 88(TM) system (copyright 1988, Gaussian, Inc.),
 the Gaussian 86(TM) system (copyright 1986, Carnegie Mellon
 University), and the Gaussian 82(TM) system (copyright 1983,
 Carnegie Mellon University). Gaussian is a federally registered
 trademark of Gaussian, Inc.
  
 This software contains proprietary and confidential information,
 including trade secrets, belonging to Gaussian, Inc.
  
 This software is provided under written license and may be
 used, copied, transmitted, or stored only in accord with that
 written license.
  
 The following legend is applicable only to US Government
 contracts under FAR:
  
                    RESTRICTED RIGHTS LEGEND
  
 Use, reproduction and disclosure by the US Government is
 subject to restrictions as set forth in subparagraphs (a)
 and (c) of the Commercial Computer Software - Restricted
 Rights clause in FAR 52.227-19.
  
 Gaussian, Inc.
 340 Quinnipiac St., Bldg. 40, Wallingford CT 06492
  
  
 ---------------------------------------------------------------
 Warning -- This program may not be used in any manner that
 competes with the business of Gaussian, Inc. or will provide
 assistance to any competitor of Gaussian, Inc.  The licensee
 of this program is prohibited from giving any competitor of
 Gaussian, Inc. access to this program.  By using this program,
 the user acknowledges that Gaussian, Inc. is engaged in the
 business of creating and licensing software in the field of
 computational chemistry and represents and warrants to the
 licensee that it is not a competitor of Gaussian, Inc. and that
 it will not use this program in any manner prohibited above.
 ---------------------------------------------------------------
  

 Cite this work as:
 Gaussian 09, Revision E.01,
 M. J. Frisch, G. W. Trucks, H. B. Schlegel, G. E. Scuseria, 
 M. A. Robb, J. R. Cheeseman, G. Scalmani, V. Barone, B. Mennucci, 
 G. A. Petersson, H. Nakatsuji, M. Caricato, X. Li, H. P. Hratchian, 
 A. F. Izmaylov, J. Bloino, G. Zheng, J. L. Sonnenberg, M. Hada, 
 M. Ehara, K. Toyota, R. Fukuda, J. Hasegawa, M. Ishida, T. Nakajima, 
 Y. Honda, O. Kitao, H. Nakai, T. Vreven, J. A. Montgomery, Jr., 
 J. E. Peralta, F. Ogliaro, M. Bearpark, J. J. Heyd, E. Brothers, 
 K. N. Kudin, V. N. Staroverov, T. Keith, R. Kobayashi, J. Normand, 
 K. Raghavachari, A. Rendell, J. C. Burant, S. S. Iyengar, J. Tomasi, 
 M. Cossi, N. Rega, J. M. Millam, M. Klene, J. E. Knox, J. B. Cross, 
 V. Bakken, C. Adamo, J. Jaramillo, R. Gomperts, R. E. Stratmann, 
 O. Yazyev, A. J. Austin, R. Cammi, C. Pomelli, J. W. Ochterski, 
 R. L. Martin, K. Morokuma, V. G. Zakrzewski, G. A. Voth, 
 P. Salvador, J. J. Dannenberg, S. Dapprich, A. D. Daniels, 
 O. Farkas, J. B. Foresman, J. V. Ortiz, J. Cioslowski, 
 and D. J. Fox, Gaussian, Inc., Wallingford CT, 2013.
 
 ******************************************
 Gaussian 09:  ES64L-G09RevE.01 30-Nov-2015
                 9-Feb-2017 
 ******************************************
 %chk=h10.chk
 ----------------------------------------------------------------------
 #rhf/gen scf(symm,tight,novaracc,noincfock,fulldiag) stable(crhf) geom
 =nocrowd test
 ----------------------------------------------------------------------
 1/38=1/1;
 2/12=1,17=6,18=5,40=1/2;
 3/5=7,16=1,25=1,30=1,116=1/1,2,3;
 4/9=4/1;
 5/5=100002,15=2,16=1,32=2,38=1/2;
 8/6=1,10=90,11=11/1,4;
 9/8=4,13=1/2;
 6/7=2,8=2,9=2,10=2,28=1/1;
 99/5=1,9=1/99;
 ----------------------------------------------------------------------
 hf stability analysis of h10 triangular lattice, y= 0.8496712252064737
 6
 ----------------------------------------------------------------------
 Symbolic Z-matrix:
 Charge =  0 Multiplicity = 1
 H
 H                    1     1.08796 
 H                    1     1.08796  2     77.3 
 H                    2     1.08796  1     102.7    3     0.       0
 H                    3     1.08796  1     180.     2     0.       0
 H                    4     1.08796  2     180.     1     0.       0
 H                    5     1.08796  3     180.     2     0.       0
 H                    6     1.08796  4     180.     1     0.       0
 H                    7     1.08796  5     180.     2     0.       0
 H                    8     1.08796  6     180.     1     0.       0
 
                          Input orientation:                          
 ---------------------------------------------------------------------
 Center     Atomic      Atomic             Coordinates (Angstroms)
 Number     Number       Type             X           Y           Z
 ---------------------------------------------------------------------
      1          1           0        0.000000    0.000000    0.000000
      2          1           0        0.000000    0.000000    1.087961
      3          1           0        1.061344    0.000000    0.239184
      4          1           0        1.061344    0.000000    1.327145
      5          1           0        2.122687    0.000000    0.478368
      6          1           0        2.122687    0.000000    1.566329
      7          1           0        3.184031    0.000000    0.717552
      8          1           0        3.184031    0.000000    1.805513
      9          1           0        4.245374    0.000000    0.956736
     10          1           0        4.245374    0.000000    2.044698
 ---------------------------------------------------------------------
                    Distance matrix (angstroms):
                    1          2          3          4          5
     1  H    0.000000
     2  H    1.087961   0.000000
     3  H    1.087961   1.358997   0.000000
     4  H    1.699342   1.087961   1.087961   0.000000
     5  H    2.175922   2.208485   1.087961   1.358997   0.000000
     6  H    2.638027   2.175922   1.699342   1.087961   1.087961
     7  H    3.263883   3.205504   2.175922   2.208485   1.087961
     8  H    3.660318   3.263883   2.638027   2.175922   1.699342
     9  H    4.351844   4.247402   3.263883   3.205504   2.175922
    10  H    4.712111   4.351844   3.660318   3.263883   2.638027
                    6          7          8          9         10
     6  H    0.000000
     7  H    1.358997   0.000000
     8  H    1.087961   1.087961   0.000000
     9  H    2.208485   1.087961   1.358997   0.000000
    10  H    2.175922   1.699342   1.087961   1.087961   0.000000
 Stoichiometry    H10
 Framework group  C2H[SGH(H10)]
 Deg. of freedom     9
 Full point group                 C2H     NOp   4
 Largest Abelian subgroup         C2H     NOp   4
 Largest concise Abelian subgroup C2      NOp   2
                         Standard orientation:                         
 ---------------------------------------------------------------------
 Center     Atomic      Atomic             Coordinates (Angstroms)
 Number     Number       Type             X           Y           Z
 ---------------------------------------------------------------------
      1          1           0        2.122687    1.022349    0.000000
      2          1           0        2.122687   -0.065612    0.000000
      3          1           0        1.061344    0.783165    0.000000
      4          1           0        1.061344   -0.304796    0.000000
      5          1           0        0.000000    0.543981    0.000000
      6          1           0       -0.000000   -0.543981    0.000000
      7          1           0       -1.061344    0.304796    0.000000
      8          1           0       -1.061344   -0.783165    0.000000
      9          1           0       -2.122687    0.065612    0.000000
     10          1           0       -2.122687   -1.022349    0.000000
 ---------------------------------------------------------------------
 Rotational constants (GHZ):    179.2855203     21.0382756     18.8288074
 General basis read from cards:  (5D, 7F)
 There are     5 symmetry adapted cartesian basis functions of AG  symmetry.
 There are     0 symmetry adapted cartesian basis functions of BG  symmetry.
 There are     0 symmetry adapted cartesian basis functions of AU  symmetry.
 There are     5 symmetry adapted cartesian basis functions of BU  symmetry.
 There are     5 symmetry adapted basis functions of AG  symmetry.
 There are     0 symmetry adapted basis functions of BG  symmetry.
 There are     0 symmetry adapted basis functions of AU  symmetry.
 There are     5 symmetry adapted basis functions of BU  symmetry.
    10 basis functions,   100 primitive gaussians,    10 cartesian basis functions
     5 alpha electrons        5 beta electrons
       nuclear repulsion energy        13.6539955056 Hartrees.
 NAtoms=   10 NActive=   10 NUniq=    5 SFac= 4.00D+00 NAtFMM=   60 NAOKFM=F Big=F
 Integral buffers will be    131072 words long.
 Regular integral format.
 Two-electron integral symmetry is turned on.
 One-electron integrals computed using PRISM.
 NBasis=    10 RedAO= T EigKep=  1.33D-01  NBF=     5     0     0     5
 NBsUse=    10 1.00D-06 EigRej= -1.00D+00 NBFU=     5     0     0     5
 ExpMin= 3.16D-02 ExpMax= 1.00D+03 ExpMxC= 1.00D+01 IAcc=3 IRadAn=         5 AccDes= 0.00D+00
 Harris functional with IExCor=  205 and IRadAn=       5 diagonalized for initial guess.
 HarFok:  IExCor=  205 AccDes= 0.00D+00 IRadAn=         5 IDoV= 1 UseB2=F ITyADJ=14
 ICtDFT=  3500011 ScaDFX=  1.000000  1.000000  1.000000  1.000000
 FoFCou: FMM=F IPFlag=           0 FMFlag=      100000 FMFlg1=           0
         NFxFlg=           0 DoJE=T BraDBF=F KetDBF=T FulRan=T
         wScrn=  0.000000 ICntrl=     500 IOpCl=  0 I1Cent=   200000004 NGrid=           0
         NMat0=    1 NMatS0=      1 NMatT0=    0 NMatD0=    1 NMtDS0=    0 NMtDT0=    0
 Petite list used in FoFCou.
 Initial guess orbital symmetries:
       Occupied  (AG) (BU) (AG) (BU) (BU)
       Virtual   (AG) (BU) (AG) (AG) (BU)
 The electronic state of the initial guess is 1-AG.
 Keep R1 ints in memory in symmetry-blocked form, NReq=879287.
 Requested convergence on RMS density matrix=1.00D-08 within 128 cycles.
 Requested convergence on MAX density matrix=1.00D-06.
 Requested convergence on             energy=1.00D-06.
 No special actions if energy rises.
 SCF Done:  E(RHF) =  -4.84992373015     A.U. after   10 cycles
            NFock= 10  Conv=0.83D-08     -V/T= 1.9309
 Range of M.O.s used for correlation:     1    10
 NBasis=    10 NAE=     5 NBE=     5 NFC=     0 NFV=     0
 NROrb=     10 NOA=     5 NOB=     5 NVA=     5 NVB=     5
 Semi-Direct transformation.
 ModeAB=           4 MOrb=             5 LenV=     134107092
 LASXX=         1030 LTotXX=        1030 LenRXX=        2480
 LTotAB=        1450 MaxLAS=        1500 LenRXY=           0
 NonZer=        3510 LenScr=      655360 LnRSAI=        1500
 LnScr1=      655360 LExtra=           0 Total=      1314700
 MaxDsk=          -1 SrtSym=           T ITran=            3
 JobTyp=0 Pass  1:  I=   1 to   5.
 (rs|ai) integrals will be sorted in core.
 Spin components of T(2) and E(2):
     alpha-alpha T2 =       0.6362585459D-02 E2=     -0.7835693497D-02
     alpha-beta  T2 =       0.7642234278D-01 E2=     -0.9880816502D-01
     beta-beta   T2 =       0.6362585459D-02 E2=     -0.7835693497D-02
 ANorm=    0.1043622304D+01
 E2 =    -0.1144795520D+00 EUMP2 =    -0.49644032821658D+01
 Second order stability test of a single determinant RHF wave function:
 Stabil:  MDV=134217728
 ***********************************************************************
 Matrix         Lowest Root    Major Pairs
 ***********************************************************************
 Internal RHF     0.0376539    Stable
 RRHF --> CRHF   -0.0217912    5A=6A
 RRHF --> RUHF   -0.1517021    5A=6B
 Not stable.
 ***********************************************************************

 **********************************************************************

            Population analysis using the SCF density.

 **********************************************************************

 Orbital symmetries:
       Occupied  (AG) (BU) (AG) (BU) (BU)
       Virtual   (AG) (BU) (AG) (AG) (BU)
 The electronic state is 1-AG.
 Alpha  occ. eigenvalues --   -0.86111  -0.73763  -0.54519  -0.39778  -0.29020
 Alpha virt. eigenvalues --   -0.02908   0.21340   0.31546   0.52520   0.84516
          Condensed to atoms (all electrons):
               1          2          3          4          5          6
     1  H    0.993901   0.428089  -0.118657  -0.195343  -0.049916  -0.019864
     2  H    0.428089   0.738978  -0.114316  -0.097014  -0.085760   0.012004
     3  H   -0.118657  -0.114316   0.876598   0.197852   0.342159  -0.149862
     4  H   -0.195343  -0.097014   0.197852   1.160907  -0.038633   0.228431
     5  H   -0.049916  -0.085760   0.342159  -0.038633   0.902101  -0.145390
     6  H   -0.019864   0.012004  -0.149862   0.228431  -0.145390   0.902101
     7  H    0.021788   0.004428  -0.034406  -0.161095   0.228431  -0.038633
     8  H    0.007233   0.016043  -0.069904  -0.034406  -0.149862   0.342159
     9  H   -0.000985  -0.001244   0.016043   0.004428   0.012004  -0.085760
    10  H   -0.001392  -0.000985   0.007233   0.021788  -0.019864  -0.049916
               7          8          9         10
     1  H    0.021788   0.007233  -0.000985  -0.001392
     2  H    0.004428   0.016043  -0.001244  -0.000985
     3  H   -0.034406  -0.069904   0.016043   0.007233
     4  H   -0.161095  -0.034406   0.004428   0.021788
     5  H    0.228431  -0.149862   0.012004  -0.019864
     6  H   -0.038633   0.342159  -0.085760  -0.049916
     7  H    1.160907   0.197852  -0.097014  -0.195343
     8  H    0.197852   0.876598  -0.114316  -0.118657
     9  H   -0.097014  -0.114316   0.738978   0.428089
    10  H   -0.195343  -0.118657   0.428089   0.993901
 Mulliken charges:
               1
     1  H   -0.064854
     2  H    0.099777
     3  H    0.047260
     4  H   -0.086914
     5  H    0.004731
     6  H    0.004731
     7  H   -0.086914
     8  H    0.047260
     9  H    0.099777
    10  H   -0.064854
 Sum of Mulliken charges =  -0.00000
 Mulliken charges with hydrogens summed into heavy atoms:
               1
 Electronic spatial extent (au):  <R**2>=            126.7651
 Charge=             -0.0000 electrons
 Dipole moment (field-independent basis, Debye):
    X=             -0.0000    Y=              0.0000    Z=              0.0000  Tot=              0.0000
 Quadrupole moment (field-independent basis, Debye-Ang):
   XX=            -15.6461   YY=            -14.1025   ZZ=            -12.8343
   XY=             -1.5403   XZ=              0.0000   YZ=              0.0000
 Traceless Quadrupole moment (field-independent basis, Debye-Ang):
   XX=             -1.4518   YY=              0.0918   ZZ=              1.3600
   XY=             -1.5403   XZ=              0.0000   YZ=              0.0000
 Octapole moment (field-independent basis, Debye-Ang**2):
  XXX=              0.0000  YYY=             -0.0000  ZZZ=              0.0000  XYY=              0.0000
  XXY=              0.0000  XXZ=              0.0000  XZZ=             -0.0000  YZZ=             -0.0000
  YYZ=              0.0000  XYZ=              0.0000
 Hexadecapole moment (field-independent basis, Debye-Ang**3):
 XXXX=           -242.7156 YYYY=            -50.6588 ZZZZ=            -15.4017 XXXY=            -39.6497
 XXXZ=              0.0000 YYYX=            -20.6634 YYYZ=              0.0000 ZZZX=              0.0000
 ZZZY=              0.0000 XXYY=            -43.8580 XXZZ=            -36.2063 YYZZ=            -11.0670
 XXYZ=              0.0000 YYXZ=              0.0000 ZZXY=             -7.1776
 N-N= 1.365399550559D+01 E-N=-3.655388651851D+01  KE= 5.209879687795D+00
 Symmetry AG   KE= 1.512680796145D+00
 Symmetry BG   KE= 0.000000000000D+00
 Symmetry AU   KE= 0.000000000000D+00
 Symmetry BU   KE= 3.697198891650D+00

 Test job not archived.
 1\1\GINC-SULU\Stability\RHF\Gen\H10\LCJ1\09-Feb-2017\0\\#rhf/gen scf(s
 ymm,tight,novaracc,noincfock,fulldiag) stable(crhf) geom=nocrowd test\
 \hf stability analysis of h10 triangular lattice, y= 0.849671225206473
 76\\0,1\H\H,1,1.0879610822\H,1,1.0879610822,2,77.3\H,2,1.0879610822,1,
 102.7,3,0.,0\H,3,1.0879610822,1,180.,2,0.,0\H,4,1.0879610822,2,180.,1,
 0.,0\H,5,1.0879610822,3,180.,2,0.,0\H,6,1.0879610822,4,180.,1,0.,0\H,7
 ,1.0879610822,5,180.,2,0.,0\H,8,1.0879610822,6,180.,1,0.,0\\Version=ES
 64L-G09RevE.01\State=1-AG\HF=-4.8499237\MP2=-4.9644033\RMSD=8.287e-09\
 Dipole=0.,0.,0.\Quadrupole=-1.0793653,1.0111224,0.0682428,0.,-1.145176
 4,0.\PG=C02H [SGH(H10)]\\@


 A COMPUTER IS LIKE A HORSE, IT WILL SENSE WEAKNESS.
     -- GREG WETTSTEIN
 Job cpu time:       0 days  0 hours  0 minutes  1.0 seconds.
 File lengths (MBytes):  RWF=     84 Int=      0 D2E=      0 Chk=      2 Scr=      2
 Normal termination of Gaussian 09 at Thu Feb  9 15:28:29 2017.
