 Entering Gaussian System, Link 0=g09
 AtFile(1): H.gbs
            H     0
            S   10   1.00
               1000.000000000000            0.000068713567
                316.227766000000            0.000169141320
                100.000000000000            0.000823394812
                 31.622776600000            0.003425569236
                 10.000000000000            0.013951996000
                  3.162277660000            0.056909313560
                  1.000000000000            0.198286399900
                  0.316227766000            0.496922426700
                  0.100000000000            0.369846276400
                  0.031622776600            0.003752720039
            ****
 Initial command:
 /projects/guscus/apps/gau/g09-e1/g09/l1.exe "/users/lcj1/gaussian/h10/rhfstability/2rows/zmatrix/constarea/fwd/Gau-16146.inp" -scrdir="/users/lcj1/gaussian/h10/rhfstability/2rows/zmatrix/constarea/fwd/"
 Entering Link 1 = /projects/guscus/apps/gau/g09-e1/g09/l1.exe PID=     16147.
  
 Copyright (c) 1988,1990,1992,1993,1995,1998,2003,2009,2015,
            Gaussian, Inc.  All Rights Reserved.
  
 This is part of the Gaussian(R) 09 program.  It is based on
 the Gaussian(R) 03 system (copyright 2003, Gaussian, Inc.),
 the Gaussian(R) 98 system (copyright 1998, Gaussian, Inc.),
 the Gaussian(R) 94 system (copyright 1995, Gaussian, Inc.),
 the Gaussian 92(TM) system (copyright 1992, Gaussian, Inc.),
 the Gaussian 90(TM) system (copyright 1990, Gaussian, Inc.),
 the Gaussian 88(TM) system (copyright 1988, Gaussian, Inc.),
 the Gaussian 86(TM) system (copyright 1986, Carnegie Mellon
 University), and the Gaussian 82(TM) system (copyright 1983,
 Carnegie Mellon University). Gaussian is a federally registered
 trademark of Gaussian, Inc.
  
 This software contains proprietary and confidential information,
 including trade secrets, belonging to Gaussian, Inc.
  
 This software is provided under written license and may be
 used, copied, transmitted, or stored only in accord with that
 written license.
  
 The following legend is applicable only to US Government
 contracts under FAR:
  
                    RESTRICTED RIGHTS LEGEND
  
 Use, reproduction and disclosure by the US Government is
 subject to restrictions as set forth in subparagraphs (a)
 and (c) of the Commercial Computer Software - Restricted
 Rights clause in FAR 52.227-19.
  
 Gaussian, Inc.
 340 Quinnipiac St., Bldg. 40, Wallingford CT 06492
  
  
 ---------------------------------------------------------------
 Warning -- This program may not be used in any manner that
 competes with the business of Gaussian, Inc. or will provide
 assistance to any competitor of Gaussian, Inc.  The licensee
 of this program is prohibited from giving any competitor of
 Gaussian, Inc. access to this program.  By using this program,
 the user acknowledges that Gaussian, Inc. is engaged in the
 business of creating and licensing software in the field of
 computational chemistry and represents and warrants to the
 licensee that it is not a competitor of Gaussian, Inc. and that
 it will not use this program in any manner prohibited above.
 ---------------------------------------------------------------
  

 Cite this work as:
 Gaussian 09, Revision E.01,
 M. J. Frisch, G. W. Trucks, H. B. Schlegel, G. E. Scuseria, 
 M. A. Robb, J. R. Cheeseman, G. Scalmani, V. Barone, B. Mennucci, 
 G. A. Petersson, H. Nakatsuji, M. Caricato, X. Li, H. P. Hratchian, 
 A. F. Izmaylov, J. Bloino, G. Zheng, J. L. Sonnenberg, M. Hada, 
 M. Ehara, K. Toyota, R. Fukuda, J. Hasegawa, M. Ishida, T. Nakajima, 
 Y. Honda, O. Kitao, H. Nakai, T. Vreven, J. A. Montgomery, Jr., 
 J. E. Peralta, F. Ogliaro, M. Bearpark, J. J. Heyd, E. Brothers, 
 K. N. Kudin, V. N. Staroverov, T. Keith, R. Kobayashi, J. Normand, 
 K. Raghavachari, A. Rendell, J. C. Burant, S. S. Iyengar, J. Tomasi, 
 M. Cossi, N. Rega, J. M. Millam, M. Klene, J. E. Knox, J. B. Cross, 
 V. Bakken, C. Adamo, J. Jaramillo, R. Gomperts, R. E. Stratmann, 
 O. Yazyev, A. J. Austin, R. Cammi, C. Pomelli, J. W. Ochterski, 
 R. L. Martin, K. Morokuma, V. G. Zakrzewski, G. A. Voth, 
 P. Salvador, J. J. Dannenberg, S. Dapprich, A. D. Daniels, 
 O. Farkas, J. B. Foresman, J. V. Ortiz, J. Cioslowski, 
 and D. J. Fox, Gaussian, Inc., Wallingford CT, 2013.
 
 ******************************************
 Gaussian 09:  ES64L-G09RevE.01 30-Nov-2015
                 9-Feb-2017 
 ******************************************
 %chk=h10.chk
 ----------------------------------------------------------------------
 #rhf/gen scf(symm,tight,novaracc,noincfock,fulldiag) stable(crhf) geom
 =nocrowd test
 ----------------------------------------------------------------------
 1/38=1/1;
 2/12=1,17=6,18=5,40=1/2;
 3/5=7,16=1,25=1,30=1,116=1/1,2,3;
 4/9=4/1;
 5/5=100002,15=2,16=1,32=2,38=1/2;
 8/6=1,10=90,11=11/1,4;
 9/8=4,13=1/2;
 6/7=2,8=2,9=2,10=2,28=1/1;
 99/5=1,9=1/99;
 ----------------------------------------------------------------------
 hf stability analysis of h10 triangular lattice, y= 1.3594031889372702
 ----------------------------------------------------------------------
 Symbolic Z-matrix:
 Charge =  0 Multiplicity = 1
 H
 H                    1     1.4242 
 H                    1     1.4242   2     34.7 
 H                    2     1.4242   1     145.3    3     0.       0
 H                    3     1.4242   1     180.     2     0.       0
 H                    4     1.4242   2     180.     1     0.       0
 H                    5     1.4242   3     180.     2     0.       0
 H                    6     1.4242   4     180.     1     0.       0
 H                    7     1.4242   5     180.     2     0.       0
 H                    8     1.4242   6     180.     1     0.       0
 
                          Input orientation:                          
 ---------------------------------------------------------------------
 Center     Atomic      Atomic             Coordinates (Angstroms)
 Number     Number       Type             X           Y           Z
 ---------------------------------------------------------------------
      1          1           0        0.000000    0.000000    0.000000
      2          1           0        0.000000    0.000000    1.424203
      3          1           0        0.810770    0.000000    1.170900
      4          1           0        0.810770    0.000000    2.595103
      5          1           0        1.621539    0.000000    2.341800
      6          1           0        1.621539    0.000000    3.766003
      7          1           0        2.432309    0.000000    3.512700
      8          1           0        2.432309    0.000000    4.936903
      9          1           0        3.243079    0.000000    4.683600
     10          1           0        3.243079    0.000000    6.107803
 ---------------------------------------------------------------------
                    Distance matrix (angstroms):
                    1          2          3          4          5
     1  H    0.000000
     2  H    1.424203   0.000000
     3  H    1.424203   0.849417   0.000000
     4  H    2.718806   1.424203   1.424203   0.000000
     5  H    2.848406   1.863162   1.424203   0.849417   0.000000
     6  H    4.100265   2.848406   2.718806   1.424203   1.424203
     7  H    4.272609   3.205924   2.848406   1.863162   1.424203
     8  H    5.503557   4.272609   4.100265   2.848406   2.718806
     9  H    5.696812   4.597959   4.272609   3.205924   2.848406
    10  H    6.915405   5.696812   5.503557   4.272609   4.100265
                    6          7          8          9         10
     6  H    0.000000
     7  H    0.849417   0.000000
     8  H    1.424203   1.424203   0.000000
     9  H    1.863162   1.424203   0.849417   0.000000
    10  H    2.848406   2.718806   1.424203   1.424203   0.000000
 Stoichiometry    H10
 Framework group  C2H[SGH(H10)]
 Deg. of freedom     9
 Full point group                 C2H     NOp   4
 Largest Abelian subgroup         C2H     NOp   4
 Largest concise Abelian subgroup C2      NOp   2
                         Standard orientation:                         
 ---------------------------------------------------------------------
 Center     Atomic      Atomic             Coordinates (Angstroms)
 Number     Number       Type             X           Y           Z
 ---------------------------------------------------------------------
      1          1           0        1.621539    3.053902    0.000000
      2          1           0        1.621539    1.629699    0.000000
      3          1           0        0.810770    1.883002    0.000000
      4          1           0        0.810770    0.458799    0.000000
      5          1           0        0.000000    0.712102    0.000000
      6          1           0       -0.000000   -0.712102    0.000000
      7          1           0       -0.810770   -0.458799   -0.000000
      8          1           0       -0.810770   -1.883002   -0.000000
      9          1           0       -1.621539   -1.629699   -0.000000
     10          1           0       -1.621539   -3.053902   -0.000000
 ---------------------------------------------------------------------
 Rotational constants (GHZ):    331.9170040     11.3638574     10.9876720
 General basis read from cards:  (5D, 7F)
 There are     5 symmetry adapted cartesian basis functions of AG  symmetry.
 There are     0 symmetry adapted cartesian basis functions of BG  symmetry.
 There are     0 symmetry adapted cartesian basis functions of AU  symmetry.
 There are     5 symmetry adapted cartesian basis functions of BU  symmetry.
 There are     5 symmetry adapted basis functions of AG  symmetry.
 There are     0 symmetry adapted basis functions of BG  symmetry.
 There are     0 symmetry adapted basis functions of AU  symmetry.
 There are     5 symmetry adapted basis functions of BU  symmetry.
    10 basis functions,   100 primitive gaussians,    10 cartesian basis functions
     5 alpha electrons        5 beta electrons
       nuclear repulsion energy        11.8499346319 Hartrees.
 NAtoms=   10 NActive=   10 NUniq=    5 SFac= 4.00D+00 NAtFMM=   60 NAOKFM=F Big=F
 Integral buffers will be    131072 words long.
 Regular integral format.
 Two-electron integral symmetry is turned on.
 One-electron integrals computed using PRISM.
 NBasis=    10 RedAO= T EigKep=  1.80D-01  NBF=     5     0     0     5
 NBsUse=    10 1.00D-06 EigRej= -1.00D+00 NBFU=     5     0     0     5
 ExpMin= 3.16D-02 ExpMax= 1.00D+03 ExpMxC= 1.00D+01 IAcc=3 IRadAn=         5 AccDes= 0.00D+00
 Harris functional with IExCor=  205 and IRadAn=       5 diagonalized for initial guess.
 HarFok:  IExCor=  205 AccDes= 0.00D+00 IRadAn=         5 IDoV= 1 UseB2=F ITyADJ=14
 ICtDFT=  3500011 ScaDFX=  1.000000  1.000000  1.000000  1.000000
 FoFCou: FMM=F IPFlag=           0 FMFlag=      100000 FMFlg1=           0
         NFxFlg=           0 DoJE=T BraDBF=F KetDBF=T FulRan=T
         wScrn=  0.000000 ICntrl=     500 IOpCl=  0 I1Cent=   200000004 NGrid=           0
         NMat0=    1 NMatS0=      1 NMatT0=    0 NMatD0=    1 NMtDS0=    0 NMtDT0=    0
 Petite list used in FoFCou.
 Initial guess orbital symmetries:
       Occupied  (AG) (BU) (AG) (BU) (AG)
       Virtual   (BU) (BU) (AG) (BU) (AG)
 The electronic state of the initial guess is 1-AG.
 Keep R1 ints in memory in symmetry-blocked form, NReq=875801.
 Requested convergence on RMS density matrix=1.00D-08 within 128 cycles.
 Requested convergence on MAX density matrix=1.00D-06.
 Requested convergence on             energy=1.00D-06.
 No special actions if energy rises.
 SCF Done:  E(RHF) =  -4.78719054829     A.U. after   11 cycles
            NFock= 11  Conv=0.13D-08     -V/T= 1.9083
 Range of M.O.s used for correlation:     1    10
 NBasis=    10 NAE=     5 NBE=     5 NFC=     0 NFV=     0
 NROrb=     10 NOA=     5 NOB=     5 NVA=     5 NVB=     5
 Semi-Direct transformation.
 ModeAB=           4 MOrb=             5 LenV=     134110774
 LASXX=         1030 LTotXX=        1030 LenRXX=        2480
 LTotAB=        1450 MaxLAS=        1500 LenRXY=           0
 NonZer=        3510 LenScr=      655360 LnRSAI=        1500
 LnScr1=      655360 LExtra=           0 Total=      1314700
 MaxDsk=          -1 SrtSym=           T ITran=            3
 JobTyp=0 Pass  1:  I=   1 to   5.
 (rs|ai) integrals will be sorted in core.
 Spin components of T(2) and E(2):
     alpha-alpha T2 =       0.1246197469D-02 E2=     -0.1883205816D-02
     alpha-beta  T2 =       0.8318153671D+00 E2=     -0.2572330637D+00
     beta-beta   T2 =       0.1246197469D-02 E2=     -0.1883205816D-02
 ANorm=    0.1354366185D+01
 E2 =    -0.2609994754D+00 EUMP2 =    -0.50481900236574D+01
 Second order stability test of a single determinant RHF wave function:
 Stabil:  MDV=134217728
 ***********************************************************************
 Matrix         Lowest Root    Major Pairs
 ***********************************************************************
 Internal RHF     0.0417317    Stable
 RRHF --> CRHF    0.0142672    Stable
 RRHF --> RUHF   -0.4178043    5A=6B
 Not stable.
 ***********************************************************************

 **********************************************************************

            Population analysis using the SCF density.

 **********************************************************************

 Orbital symmetries:
       Occupied  (AG) (BU) (AG) (BU) (AG)
       Virtual   (BU) (BU) (AG) (BU) (AG)
 The electronic state is 1-AG.
 Alpha  occ. eigenvalues --   -0.81813  -0.73152  -0.60038  -0.43487  -0.11832
 Alpha virt. eigenvalues --    0.00287   0.10332   0.22839   0.40790   0.57222
          Condensed to atoms (all electrons):
               1          2          3          4          5          6
     1  H    1.384706  -0.101078  -0.040412  -0.034029   0.000748   0.005241
     2  H   -0.101078   0.769331   0.475794  -0.082050  -0.108373  -0.008767
     3  H   -0.040412   0.475794   0.638133  -0.045463  -0.118181  -0.011660
     4  H   -0.034029  -0.082050  -0.045463   0.838881   0.536414  -0.142771
     5  H    0.000748  -0.108373  -0.118181   0.536414   0.858599  -0.050141
     6  H    0.005241  -0.008767  -0.011660  -0.142771  -0.050141   0.858599
     7  H    0.001086   0.005125   0.002307  -0.111400  -0.142771   0.536414
     8  H   -0.000343   0.001421   0.001484   0.002307  -0.011660  -0.118181
     9  H   -0.000383   0.001069   0.001421   0.005125  -0.008767  -0.108373
    10  H    0.000085  -0.000383  -0.000343   0.001086   0.005241   0.000748
               7          8          9         10
     1  H    0.001086  -0.000343  -0.000383   0.000085
     2  H    0.005125   0.001421   0.001069  -0.000383
     3  H    0.002307   0.001484   0.001421  -0.000343
     4  H   -0.111400   0.002307   0.005125   0.001086
     5  H   -0.142771  -0.011660  -0.008767   0.005241
     6  H    0.536414  -0.118181  -0.108373   0.000748
     7  H    0.838881  -0.045463  -0.082050  -0.034029
     8  H   -0.045463   0.638133   0.475794  -0.040412
     9  H   -0.082050   0.475794   0.769331  -0.101078
    10  H   -0.034029  -0.040412  -0.101078   1.384706
 Mulliken charges:
               1
     1  H   -0.215621
     2  H    0.047910
     3  H    0.096919
     4  H    0.031900
     5  H    0.038891
     6  H    0.038891
     7  H    0.031900
     8  H    0.096919
     9  H    0.047910
    10  H   -0.215621
 Sum of Mulliken charges =   0.00000
 Mulliken charges with hydrogens summed into heavy atoms:
               1
 Electronic spatial extent (au):  <R**2>=            208.2073
 Charge=              0.0000 electrons
 Dipole moment (field-independent basis, Debye):
    X=              0.0000    Y=             -0.0000    Z=              0.0000  Tot=              0.0000
 Quadrupole moment (field-independent basis, Debye-Ang):
   XX=            -16.2356   YY=            -31.7885   ZZ=            -12.8133
   XY=            -10.7714   XZ=             -0.0000   YZ=             -0.0000
 Traceless Quadrupole moment (field-independent basis, Debye-Ang):
   XX=              4.0436   YY=            -11.5094   ZZ=              7.4658
   XY=            -10.7714   XZ=             -0.0000   YZ=             -0.0000
 Octapole moment (field-independent basis, Debye-Ang**2):
  XXX=             -0.0000  YYY=              0.0000  ZZZ=              0.0000  XYY=              0.0000
  XXY=             -0.0000  XXZ=              0.0000  XZZ=              0.0000  YZZ=             -0.0000
  YYZ=              0.0000  XYZ=              0.0000
 Hexadecapole moment (field-independent basis, Debye-Ang**3):
 XXXX=           -131.3992 YYYY=           -530.1487 ZZZZ=            -15.4121 XXXY=           -110.8409
 XXXZ=             -0.0000 YYYX=           -205.5261 YYYZ=             -0.0000 ZZZX=             -0.0000
 ZZZY=             -0.0000 XXYY=           -132.4638 XXZZ=            -23.1820 YYZZ=            -52.9582
 XXYZ=             -0.0000 YYXZ=             -0.0000 ZZXY=            -27.8505
 N-N= 1.184993463192D+01 E-N=-3.313812629976D+01  KE= 5.270323406810D+00
 Symmetry AG   KE= 3.049758688441D+00
 Symmetry BG   KE= 0.000000000000D+00
 Symmetry AU   KE= 0.000000000000D+00
 Symmetry BU   KE= 2.220564718369D+00

 Test job not archived.
 1\1\GINC-SULU\Stability\RHF\Gen\H10\LCJ1\09-Feb-2017\0\\#rhf/gen scf(s
 ymm,tight,novaracc,noincfock,fulldiag) stable(crhf) geom=nocrowd test\
 \hf stability analysis of h10 triangular lattice, y= 1.359403188937270
 2\\0,1\H\H,1,1.4242030938\H,1,1.4242030938,2,34.7\H,2,1.4242030938,1,1
 45.3,3,0.,0\H,3,1.4242030938,1,180.,2,0.,0\H,4,1.4242030938,2,180.,1,0
 .,0\H,5,1.4242030938,3,180.,2,0.,0\H,6,1.4242030938,4,180.,1,0.,0\H,7,
 1.4242030938,5,180.,2,0.,0\H,8,1.4242030938,6,180.,1,0.,0\\Version=ES6
 4L-G09RevE.01\State=1-AG\HF=-4.7871905\MP2=-5.04819\RMSD=1.273e-09\Dip
 ole=0.,0.,0.\Quadrupole=3.0062944,5.5506422,-8.5569367,0.,-8.0082922,0
 .\PG=C02H [SGH(H10)]\\@


 I HAVE NOT FAILED, I HAVE ONLY DISCOVERED 10,000
 WAYS THAT DIDN'T WORK.  -- THOMAS A. EDISON
 Job cpu time:       0 days  0 hours  0 minutes  1.0 seconds.
 File lengths (MBytes):  RWF=     84 Int=      0 D2E=      0 Chk=      2 Scr=      2
 Normal termination of Gaussian 09 at Thu Feb  9 15:48:29 2017.
