 Entering Gaussian System, Link 0=g09
 AtFile(1): H.gbs
            H     0
            S   10   1.00
               1000.000000000000            0.000068713567
                316.227766000000            0.000169141320
                100.000000000000            0.000823394812
                 31.622776600000            0.003425569236
                 10.000000000000            0.013951996000
                  3.162277660000            0.056909313560
                  1.000000000000            0.198286399900
                  0.316227766000            0.496922426700
                  0.100000000000            0.369846276400
                  0.031622776600            0.003752720039
            ****
 Initial command:
 /projects/guscus/apps/gau/g09-e1/g09/l1.exe "/users/lcj1/gaussian/h10/rhfstability/2rows/zmatrix/constarea/fwd/Gau-32439.inp" -scrdir="/users/lcj1/gaussian/h10/rhfstability/2rows/zmatrix/constarea/fwd/"
 Entering Link 1 = /projects/guscus/apps/gau/g09-e1/g09/l1.exe PID=     32440.
  
 Copyright (c) 1988,1990,1992,1993,1995,1998,2003,2009,2015,
            Gaussian, Inc.  All Rights Reserved.
  
 This is part of the Gaussian(R) 09 program.  It is based on
 the Gaussian(R) 03 system (copyright 2003, Gaussian, Inc.),
 the Gaussian(R) 98 system (copyright 1998, Gaussian, Inc.),
 the Gaussian(R) 94 system (copyright 1995, Gaussian, Inc.),
 the Gaussian 92(TM) system (copyright 1992, Gaussian, Inc.),
 the Gaussian 90(TM) system (copyright 1990, Gaussian, Inc.),
 the Gaussian 88(TM) system (copyright 1988, Gaussian, Inc.),
 the Gaussian 86(TM) system (copyright 1986, Carnegie Mellon
 University), and the Gaussian 82(TM) system (copyright 1983,
 Carnegie Mellon University). Gaussian is a federally registered
 trademark of Gaussian, Inc.
  
 This software contains proprietary and confidential information,
 including trade secrets, belonging to Gaussian, Inc.
  
 This software is provided under written license and may be
 used, copied, transmitted, or stored only in accord with that
 written license.
  
 The following legend is applicable only to US Government
 contracts under FAR:
  
                    RESTRICTED RIGHTS LEGEND
  
 Use, reproduction and disclosure by the US Government is
 subject to restrictions as set forth in subparagraphs (a)
 and (c) of the Commercial Computer Software - Restricted
 Rights clause in FAR 52.227-19.
  
 Gaussian, Inc.
 340 Quinnipiac St., Bldg. 40, Wallingford CT 06492
  
  
 ---------------------------------------------------------------
 Warning -- This program may not be used in any manner that
 competes with the business of Gaussian, Inc. or will provide
 assistance to any competitor of Gaussian, Inc.  The licensee
 of this program is prohibited from giving any competitor of
 Gaussian, Inc. access to this program.  By using this program,
 the user acknowledges that Gaussian, Inc. is engaged in the
 business of creating and licensing software in the field of
 computational chemistry and represents and warrants to the
 licensee that it is not a competitor of Gaussian, Inc. and that
 it will not use this program in any manner prohibited above.
 ---------------------------------------------------------------
  

 Cite this work as:
 Gaussian 09, Revision E.01,
 M. J. Frisch, G. W. Trucks, H. B. Schlegel, G. E. Scuseria, 
 M. A. Robb, J. R. Cheeseman, G. Scalmani, V. Barone, B. Mennucci, 
 G. A. Petersson, H. Nakatsuji, M. Caricato, X. Li, H. P. Hratchian, 
 A. F. Izmaylov, J. Bloino, G. Zheng, J. L. Sonnenberg, M. Hada, 
 M. Ehara, K. Toyota, R. Fukuda, J. Hasegawa, M. Ishida, T. Nakajima, 
 Y. Honda, O. Kitao, H. Nakai, T. Vreven, J. A. Montgomery, Jr., 
 J. E. Peralta, F. Ogliaro, M. Bearpark, J. J. Heyd, E. Brothers, 
 K. N. Kudin, V. N. Staroverov, T. Keith, R. Kobayashi, J. Normand, 
 K. Raghavachari, A. Rendell, J. C. Burant, S. S. Iyengar, J. Tomasi, 
 M. Cossi, N. Rega, J. M. Millam, M. Klene, J. E. Knox, J. B. Cross, 
 V. Bakken, C. Adamo, J. Jaramillo, R. Gomperts, R. E. Stratmann, 
 O. Yazyev, A. J. Austin, R. Cammi, C. Pomelli, J. W. Ochterski, 
 R. L. Martin, K. Morokuma, V. G. Zakrzewski, G. A. Voth, 
 P. Salvador, J. J. Dannenberg, S. Dapprich, A. D. Daniels, 
 O. Farkas, J. B. Foresman, J. V. Ortiz, J. Cioslowski, 
 and D. J. Fox, Gaussian, Inc., Wallingford CT, 2013.
 
 ******************************************
 Gaussian 09:  ES64L-G09RevE.01 30-Nov-2015
                 9-Feb-2017 
 ******************************************
 %chk=h10.chk
 ----------------------------------------------------------------------
 #rhf/gen scf(symm,tight,novaracc,noincfock,fulldiag) stable(crhf) geom
 =nocrowd test
 ----------------------------------------------------------------------
 1/38=1/1;
 2/12=1,17=6,18=5,40=1/2;
 3/5=7,16=1,25=1,30=1,116=1/1,2,3;
 4/9=4/1;
 5/5=100002,15=2,16=1,32=2,38=1/2;
 8/6=1,10=90,11=11/1,4;
 9/8=4,13=1/2;
 6/7=2,8=2,9=2,10=2,28=1/1;
 99/5=1,9=1/99;
 ----------------------------------------------------------------------
 hf stability analysis of h10 triangular lattice, y= 0.8650738659253496
 3
 ----------------------------------------------------------------------
 Symbolic Z-matrix:
 Charge =  0 Multiplicity = 1
 H
 H                    1     1.0926 
 H                    1     1.0926   2     75.3 
 H                    2     1.0926   1     104.7    3     0.       0
 H                    3     1.0926   1     180.     2     0.       0
 H                    4     1.0926   2     180.     1     0.       0
 H                    5     1.0926   3     180.     2     0.       0
 H                    6     1.0926   4     180.     1     0.       0
 H                    7     1.0926   5     180.     2     0.       0
 H                    8     1.0926   6     180.     1     0.       0
 
                          Input orientation:                          
 ---------------------------------------------------------------------
 Center     Atomic      Atomic             Coordinates (Angstroms)
 Number     Number       Type             X           Y           Z
 ---------------------------------------------------------------------
      1          1           0        0.000000    0.000000    0.000000
      2          1           0        0.000000    0.000000    1.092600
      3          1           0        1.056837    0.000000    0.277256
      4          1           0        1.056837    0.000000    1.369856
      5          1           0        2.113674    0.000000    0.554512
      6          1           0        2.113674    0.000000    1.647112
      7          1           0        3.170511    0.000000    0.831768
      8          1           0        3.170511    0.000000    1.924368
      9          1           0        4.227348    0.000000    1.109024
     10          1           0        4.227348    0.000000    2.201624
 ---------------------------------------------------------------------
                    Distance matrix (angstroms):
                    1          2          3          4          5
     1  H    0.000000
     2  H    1.092600   0.000000
     3  H    1.092600   1.334800   0.000000
     4  H    1.730148   1.092600   1.092600   0.000000
     5  H    2.185201   2.181091   1.092600   1.334800   0.000000
     6  H    2.679664   2.185201   1.730148   1.092600   1.092600
     7  H    3.277801   3.181222   2.185201   2.181091   1.092600
     8  H    3.708819   3.277801   2.679664   2.185201   1.730148
     9  H    4.370401   4.227380   3.277801   3.181222   2.185201
    10  H    4.766301   4.370401   3.708819   3.277801   2.679664
                    6          7          8          9         10
     6  H    0.000000
     7  H    1.334800   0.000000
     8  H    1.092600   1.092600   0.000000
     9  H    2.181091   1.092600   1.334800   0.000000
    10  H    2.185201   1.730148   1.092600   1.092600   0.000000
 Stoichiometry    H10
 Framework group  C2H[SGH(H10)]
 Deg. of freedom     9
 Full point group                 C2H     NOp   4
 Largest Abelian subgroup         C2H     NOp   4
 Largest concise Abelian subgroup C2      NOp   2
                         Standard orientation:                         
 ---------------------------------------------------------------------
 Center     Atomic      Atomic             Coordinates (Angstroms)
 Number     Number       Type             X           Y           Z
 ---------------------------------------------------------------------
      1          1           0        2.113674    1.100812   -0.000000
      2          1           0        2.113674    0.008212   -0.000000
      3          1           0        1.056837    0.823556   -0.000000
      4          1           0        1.056837   -0.269044   -0.000000
      5          1           0        0.000000    0.546300    0.000000
      6          1           0       -0.000000   -0.546300    0.000000
      7          1           0       -1.056837    0.269044    0.000000
      8          1           0       -1.056837   -0.823556    0.000000
      9          1           0       -2.113674   -0.008212    0.000000
     10          1           0       -2.113674   -1.100812    0.000000
 ---------------------------------------------------------------------
 Rotational constants (GHZ):    181.2224556     20.8134149     18.6692499
 General basis read from cards:  (5D, 7F)
 There are     5 symmetry adapted cartesian basis functions of AG  symmetry.
 There are     0 symmetry adapted cartesian basis functions of BG  symmetry.
 There are     0 symmetry adapted cartesian basis functions of AU  symmetry.
 There are     5 symmetry adapted cartesian basis functions of BU  symmetry.
 There are     5 symmetry adapted basis functions of AG  symmetry.
 There are     0 symmetry adapted basis functions of BG  symmetry.
 There are     0 symmetry adapted basis functions of AU  symmetry.
 There are     5 symmetry adapted basis functions of BU  symmetry.
    10 basis functions,   100 primitive gaussians,    10 cartesian basis functions
     5 alpha electrons        5 beta electrons
       nuclear repulsion energy        13.6209520299 Hartrees.
 NAtoms=   10 NActive=   10 NUniq=    5 SFac= 4.00D+00 NAtFMM=   60 NAOKFM=F Big=F
 Integral buffers will be    131072 words long.
 Regular integral format.
 Two-electron integral symmetry is turned on.
 One-electron integrals computed using PRISM.
 NBasis=    10 RedAO= T EigKep=  1.37D-01  NBF=     5     0     0     5
 NBsUse=    10 1.00D-06 EigRej= -1.00D+00 NBFU=     5     0     0     5
 ExpMin= 3.16D-02 ExpMax= 1.00D+03 ExpMxC= 1.00D+01 IAcc=3 IRadAn=         5 AccDes= 0.00D+00
 Harris functional with IExCor=  205 and IRadAn=       5 diagonalized for initial guess.
 HarFok:  IExCor=  205 AccDes= 0.00D+00 IRadAn=         5 IDoV= 1 UseB2=F ITyADJ=14
 ICtDFT=  3500011 ScaDFX=  1.000000  1.000000  1.000000  1.000000
 FoFCou: FMM=F IPFlag=           0 FMFlag=      100000 FMFlg1=           0
         NFxFlg=           0 DoJE=T BraDBF=F KetDBF=T FulRan=T
         wScrn=  0.000000 ICntrl=     500 IOpCl=  0 I1Cent=   200000004 NGrid=           0
         NMat0=    1 NMatS0=      1 NMatT0=    0 NMatD0=    1 NMtDS0=    0 NMtDT0=    0
 Petite list used in FoFCou.
 Initial guess orbital symmetries:
       Occupied  (AG) (BU) (AG) (BU) (BU)
       Virtual   (AG) (BU) (AG) (AG) (BU)
 The electronic state of the initial guess is 1-AG.
 Keep R1 ints in memory in symmetry-blocked form, NReq=879287.
 Requested convergence on RMS density matrix=1.00D-08 within 128 cycles.
 Requested convergence on MAX density matrix=1.00D-06.
 Requested convergence on             energy=1.00D-06.
 No special actions if energy rises.
 SCF Done:  E(RHF) =  -4.85296845593     A.U. after   10 cycles
            NFock= 10  Conv=0.98D-08     -V/T= 1.9340
 Range of M.O.s used for correlation:     1    10
 NBasis=    10 NAE=     5 NBE=     5 NFC=     0 NFV=     0
 NROrb=     10 NOA=     5 NOB=     5 NVA=     5 NVB=     5
 Semi-Direct transformation.
 ModeAB=           4 MOrb=             5 LenV=     134107260
 LASXX=         1030 LTotXX=        1030 LenRXX=        2480
 LTotAB=        1450 MaxLAS=        1500 LenRXY=           0
 NonZer=        3510 LenScr=      655360 LnRSAI=        1500
 LnScr1=      655360 LExtra=           0 Total=      1314700
 MaxDsk=          -1 SrtSym=           T ITran=            3
 JobTyp=0 Pass  1:  I=   1 to   5.
 (rs|ai) integrals will be sorted in core.
 Spin components of T(2) and E(2):
     alpha-alpha T2 =       0.6334952800D-02 E2=     -0.7802169560D-02
     alpha-beta  T2 =       0.7617761441D-01 E2=     -0.9838194282D-01
     beta-beta   T2 =       0.6334952800D-02 E2=     -0.7802169560D-02
 ANorm=    0.1043478567D+01
 E2 =    -0.1139862819D+00 EUMP2 =    -0.49669547378692D+01
 Second order stability test of a single determinant RHF wave function:
 Stabil:  MDV=134217728
 ***********************************************************************
 Matrix         Lowest Root    Major Pairs
 ***********************************************************************
 Internal RHF     0.040461     Stable
 RRHF --> CRHF   -0.0173559    5A=6A
 RRHF --> RUHF   -0.1444349    5A=6B
 Not stable.
 ***********************************************************************

 **********************************************************************

            Population analysis using the SCF density.

 **********************************************************************

 Orbital symmetries:
       Occupied  (AG) (BU) (AG) (BU) (BU)
       Virtual   (AG) (BU) (AG) (AG) (BU)
 The electronic state is 1-AG.
 Alpha  occ. eigenvalues --   -0.86005  -0.73824  -0.54576  -0.39381  -0.29190
 Alpha virt. eigenvalues --   -0.02741   0.21547   0.30732   0.52783   0.82072
          Condensed to atoms (all electrons):
               1          2          3          4          5          6
     1  H    1.003961   0.416925  -0.108591  -0.193913  -0.053973  -0.016064
     2  H    0.416925   0.720079  -0.102774  -0.085271  -0.090755   0.015623
     3  H   -0.108591  -0.102774   0.850025   0.183512   0.344307  -0.151669
     4  H   -0.193913  -0.085271   0.183512   1.170413  -0.027012   0.218989
     5  H   -0.053973  -0.090755   0.344307  -0.027012   0.916351  -0.156351
     6  H   -0.016064   0.015623  -0.151669   0.218989  -0.156351   0.916351
     7  H    0.021398   0.003185  -0.030964  -0.166592   0.218989  -0.027012
     8  H    0.006706   0.015208  -0.063323  -0.030964  -0.151669   0.344307
     9  H   -0.000889  -0.001197   0.015208   0.003185   0.015623  -0.090755
    10  H   -0.001317  -0.000889   0.006706   0.021398  -0.016064  -0.053973
               7          8          9         10
     1  H    0.021398   0.006706  -0.000889  -0.001317
     2  H    0.003185   0.015208  -0.001197  -0.000889
     3  H   -0.030964  -0.063323   0.015208   0.006706
     4  H   -0.166592  -0.030964   0.003185   0.021398
     5  H    0.218989  -0.151669   0.015623  -0.016064
     6  H   -0.027012   0.344307  -0.090755  -0.053973
     7  H    1.170413   0.183512  -0.085271  -0.193913
     8  H    0.183512   0.850025  -0.102774  -0.108591
     9  H   -0.085271  -0.102774   0.720079   0.416925
    10  H   -0.193913  -0.108591   0.416925   1.003961
 Mulliken charges:
               1
     1  H   -0.074244
     2  H    0.109866
     3  H    0.057566
     4  H   -0.093743
     5  H    0.000556
     6  H    0.000556
     7  H   -0.093743
     8  H    0.057566
     9  H    0.109866
    10  H   -0.074244
 Sum of Mulliken charges =  -0.00000
 Mulliken charges with hydrogens summed into heavy atoms:
               1
 Electronic spatial extent (au):  <R**2>=            127.6208
 Charge=              0.0000 electrons
 Dipole moment (field-independent basis, Debye):
    X=              0.0000    Y=             -0.0000    Z=              0.0000  Tot=              0.0000
 Quadrupole moment (field-independent basis, Debye-Ang):
   XX=            -15.4741   YY=            -14.3191   ZZ=            -12.8473
   XY=             -1.6794   XZ=              0.0000   YZ=              0.0000
 Traceless Quadrupole moment (field-independent basis, Debye-Ang):
   XX=             -1.2606   YY=             -0.1056   ZZ=              1.3662
   XY=             -1.6794   XZ=              0.0000   YZ=              0.0000
 Octapole moment (field-independent basis, Debye-Ang**2):
  XXX=              0.0000  YYY=             -0.0000  ZZZ=             -0.0000  XYY=             -0.0000
  XXY=             -0.0000  XXZ=             -0.0000  XZZ=             -0.0000  YZZ=             -0.0000
  YYZ=             -0.0000  XYZ=             -0.0000
 Hexadecapole moment (field-independent basis, Debye-Ang**3):
 XXXX=           -238.4997 YYYY=            -54.4266 ZZZZ=            -15.4268 XXXY=            -44.6819
 XXXZ=              0.0000 YYYX=            -24.4469 YYYZ=              0.0000 ZZZX=              0.0000
 ZZZY=              0.0000 XXYY=            -46.0116 XXZZ=            -35.9365 YYZZ=            -11.6937
 XXYZ=              0.0000 YYXZ=              0.0000 ZZXY=             -8.2667
 N-N= 1.362095202985D+01 E-N=-3.648401236079D+01  KE= 5.195666757143D+00
 Symmetry AG   KE= 1.509149668374D+00
 Symmetry BG   KE= 0.000000000000D+00
 Symmetry AU   KE= 0.000000000000D+00
 Symmetry BU   KE= 3.686517088769D+00

 Test job not archived.
 1\1\GINC-SULU\Stability\RHF\Gen\H10\LCJ1\09-Feb-2017\0\\#rhf/gen scf(s
 ymm,tight,novaracc,noincfock,fulldiag) stable(crhf) geom=nocrowd test\
 \hf stability analysis of h10 triangular lattice, y= 0.865073865925349
 63\\0,1\H\H,1,1.0926003427\H,1,1.0926003427,2,75.3\H,2,1.0926003427,1,
 104.7,3,0.,0\H,3,1.0926003427,1,180.,2,0.,0\H,4,1.0926003427,2,180.,1,
 0.,0\H,5,1.0926003427,3,180.,2,0.,0\H,6,1.0926003427,4,180.,1,0.,0\H,7
 ,1.0926003427,5,180.,2,0.,0\H,8,1.0926003427,6,180.,1,0.,0\\Version=ES
 64L-G09RevE.01\State=1-AG\HF=-4.8529685\MP2=-4.9669547\RMSD=9.830e-09\
 Dipole=0.,0.,0.\Quadrupole=-0.9372254,1.0157295,-0.0785041,0.,-1.24857
 42,0.\PG=C02H [SGH(H10)]\\@


 WE STILL HAVE JUDGEMENT HERE,
 THAT WE TEACH BUT BLOODY INSTRUCTIONS,
 WHICH, BEING TAUGHT,
 RETURN TO PLAGUE THE INVENTOR.
           MACBETH ACT I, SCENE VII
 Job cpu time:       0 days  0 hours  0 minutes  0.9 seconds.
 File lengths (MBytes):  RWF=     84 Int=      0 D2E=      0 Chk=      2 Scr=      2
 Normal termination of Gaussian 09 at Thu Feb  9 15:29:21 2017.
