 Entering Gaussian System, Link 0=g09
 AtFile(1): H.gbs
            H     0
            S   10   1.00
               1000.000000000000            0.000068713567
                316.227766000000            0.000169141320
                100.000000000000            0.000823394812
                 31.622776600000            0.003425569236
                 10.000000000000            0.013951996000
                  3.162277660000            0.056909313560
                  1.000000000000            0.198286399900
                  0.316227766000            0.496922426700
                  0.100000000000            0.369846276400
                  0.031622776600            0.003752720039
            ****
 Initial command:
 /projects/guscus/apps/gau/g09-e1/g09/l1.exe "/users/lcj1/gaussian/h10/rhfstability/2rows/zmatrix/constarea/fwd/Gau-11385.inp" -scrdir="/users/lcj1/gaussian/h10/rhfstability/2rows/zmatrix/constarea/fwd/"
 Entering Link 1 = /projects/guscus/apps/gau/g09-e1/g09/l1.exe PID=     11386.
  
 Copyright (c) 1988,1990,1992,1993,1995,1998,2003,2009,2015,
            Gaussian, Inc.  All Rights Reserved.
  
 This is part of the Gaussian(R) 09 program.  It is based on
 the Gaussian(R) 03 system (copyright 2003, Gaussian, Inc.),
 the Gaussian(R) 98 system (copyright 1998, Gaussian, Inc.),
 the Gaussian(R) 94 system (copyright 1995, Gaussian, Inc.),
 the Gaussian 92(TM) system (copyright 1992, Gaussian, Inc.),
 the Gaussian 90(TM) system (copyright 1990, Gaussian, Inc.),
 the Gaussian 88(TM) system (copyright 1988, Gaussian, Inc.),
 the Gaussian 86(TM) system (copyright 1986, Carnegie Mellon
 University), and the Gaussian 82(TM) system (copyright 1983,
 Carnegie Mellon University). Gaussian is a federally registered
 trademark of Gaussian, Inc.
  
 This software contains proprietary and confidential information,
 including trade secrets, belonging to Gaussian, Inc.
  
 This software is provided under written license and may be
 used, copied, transmitted, or stored only in accord with that
 written license.
  
 The following legend is applicable only to US Government
 contracts under FAR:
  
                    RESTRICTED RIGHTS LEGEND
  
 Use, reproduction and disclosure by the US Government is
 subject to restrictions as set forth in subparagraphs (a)
 and (c) of the Commercial Computer Software - Restricted
 Rights clause in FAR 52.227-19.
  
 Gaussian, Inc.
 340 Quinnipiac St., Bldg. 40, Wallingford CT 06492
  
  
 ---------------------------------------------------------------
 Warning -- This program may not be used in any manner that
 competes with the business of Gaussian, Inc. or will provide
 assistance to any competitor of Gaussian, Inc.  The licensee
 of this program is prohibited from giving any competitor of
 Gaussian, Inc. access to this program.  By using this program,
 the user acknowledges that Gaussian, Inc. is engaged in the
 business of creating and licensing software in the field of
 computational chemistry and represents and warrants to the
 licensee that it is not a competitor of Gaussian, Inc. and that
 it will not use this program in any manner prohibited above.
 ---------------------------------------------------------------
  

 Cite this work as:
 Gaussian 09, Revision E.01,
 M. J. Frisch, G. W. Trucks, H. B. Schlegel, G. E. Scuseria, 
 M. A. Robb, J. R. Cheeseman, G. Scalmani, V. Barone, B. Mennucci, 
 G. A. Petersson, H. Nakatsuji, M. Caricato, X. Li, H. P. Hratchian, 
 A. F. Izmaylov, J. Bloino, G. Zheng, J. L. Sonnenberg, M. Hada, 
 M. Ehara, K. Toyota, R. Fukuda, J. Hasegawa, M. Ishida, T. Nakajima, 
 Y. Honda, O. Kitao, H. Nakai, T. Vreven, J. A. Montgomery, Jr., 
 J. E. Peralta, F. Ogliaro, M. Bearpark, J. J. Heyd, E. Brothers, 
 K. N. Kudin, V. N. Staroverov, T. Keith, R. Kobayashi, J. Normand, 
 K. Raghavachari, A. Rendell, J. C. Burant, S. S. Iyengar, J. Tomasi, 
 M. Cossi, N. Rega, J. M. Millam, M. Klene, J. E. Knox, J. B. Cross, 
 V. Bakken, C. Adamo, J. Jaramillo, R. Gomperts, R. E. Stratmann, 
 O. Yazyev, A. J. Austin, R. Cammi, C. Pomelli, J. W. Ochterski, 
 R. L. Martin, K. Morokuma, V. G. Zakrzewski, G. A. Voth, 
 P. Salvador, J. J. Dannenberg, S. Dapprich, A. D. Daniels, 
 O. Farkas, J. B. Foresman, J. V. Ortiz, J. Cioslowski, 
 and D. J. Fox, Gaussian, Inc., Wallingford CT, 2013.
 
 ******************************************
 Gaussian 09:  ES64L-G09RevE.01 30-Nov-2015
                 9-Feb-2017 
 ******************************************
 %chk=h10.chk
 ----------------------------------------------------------------------
 #rhf/gen scf(symm,tight,novaracc,noincfock,fulldiag) stable(crhf) geom
 =nocrowd test
 ----------------------------------------------------------------------
 1/38=1/1;
 2/12=1,17=6,18=5,40=1/2;
 3/5=7,16=1,25=1,30=1,116=1/1,2,3;
 4/9=4/1;
 5/5=100002,15=2,16=1,32=2,38=1/2;
 8/6=1,10=90,11=11/1,4;
 9/8=4,13=1/2;
 6/7=2,8=2,9=2,10=2,28=1/1;
 99/5=1,9=1/99;
 ----------------------------------------------------------------------
 hf stability analysis of h10 triangular lattice, y= 2.1922886470187501
 ----------------------------------------------------------------------
 Symbolic Z-matrix:
 Charge =  0 Multiplicity = 1
 H
 H                    1     2.20805 
 H                    1     2.20805  2     13.7 
 H                    2     2.20805  1     166.3    3     0.       0
 H                    3     2.20805  1     180.     2     0.       0
 H                    4     2.20805  2     180.     1     0.       0
 H                    5     2.20805  3     180.     2     0.       0
 H                    6     2.20805  4     180.     1     0.       0
 H                    7     2.20805  5     180.     2     0.       0
 H                    8     2.20805  6     180.     1     0.       0
 
                          Input orientation:                          
 ---------------------------------------------------------------------
 Center     Atomic      Atomic             Coordinates (Angstroms)
 Number     Number       Type             X           Y           Z
 ---------------------------------------------------------------------
      1          1           0        0.000000    0.000000    0.000000
      2          1           0        0.000000    0.000000    2.208050
      3          1           0        0.522950    0.000000    2.145229
      4          1           0        0.522950    0.000000    4.353279
      5          1           0        1.045901    0.000000    4.290458
      6          1           0        1.045901    0.000000    6.498508
      7          1           0        1.568851    0.000000    6.435687
      8          1           0        1.568851    0.000000    8.643738
      9          1           0        2.091802    0.000000    8.580917
     10          1           0        2.091802    0.000000   10.788967
 ---------------------------------------------------------------------
                    Distance matrix (angstroms):
                    1          2          3          4          5
     1  H    0.000000
     2  H    2.208050   0.000000
     3  H    2.208050   0.526710   0.000000
     4  H    4.384577   2.208050   2.208050   0.000000
     5  H    4.416100   2.330307   2.208050   0.526710   0.000000
     6  H    6.582137   4.416100   4.384577   2.208050   2.208050
     7  H    6.624150   4.509347   4.416100   2.330307   2.208050
     8  H    8.784958   6.624150   6.582137   4.416100   4.384577
     9  H    8.832201   6.707389   6.624150   4.509347   4.416100
    10  H   10.989879   8.832201   8.784958   6.624150   6.582137
                    6          7          8          9         10
     6  H    0.000000
     7  H    0.526710   0.000000
     8  H    2.208050   2.208050   0.000000
     9  H    2.330307   2.208050   0.526710   0.000000
    10  H    4.416100   4.384577   2.208050   2.208050   0.000000
 Stoichiometry    H10
 Framework group  C2H[SGH(H10)]
 Deg. of freedom     9
 Full point group                 C2H     NOp   4
 Largest Abelian subgroup         C2H     NOp   4
 Largest concise Abelian subgroup C2      NOp   2
                         Standard orientation:                         
 ---------------------------------------------------------------------
 Center     Atomic      Atomic             Coordinates (Angstroms)
 Number     Number       Type             X           Y           Z
 ---------------------------------------------------------------------
      1          1           0        1.045901    5.394483   -0.000000
      2          1           0        1.045901    3.186433   -0.000000
      3          1           0        0.522950    3.249254   -0.000000
      4          1           0        0.522950    1.041204   -0.000000
      5          1           0        0.000000    1.104025    0.000000
      6          1           0       -0.000000   -1.104025    0.000000
      7          1           0       -0.522950   -1.041204   -0.000000
      8          1           0       -0.522950   -3.249254   -0.000000
      9          1           0       -1.045901   -3.186433   -0.000000
     10          1           0       -1.045901   -5.394483   -0.000000
 ---------------------------------------------------------------------
 Rotational constants (GHZ):    820.5351216      4.5968243      4.5712153
 General basis read from cards:  (5D, 7F)
 There are     5 symmetry adapted cartesian basis functions of AG  symmetry.
 There are     0 symmetry adapted cartesian basis functions of BG  symmetry.
 There are     0 symmetry adapted cartesian basis functions of AU  symmetry.
 There are     5 symmetry adapted cartesian basis functions of BU  symmetry.
 There are     5 symmetry adapted basis functions of AG  symmetry.
 There are     0 symmetry adapted basis functions of BG  symmetry.
 There are     0 symmetry adapted basis functions of AU  symmetry.
 There are     5 symmetry adapted basis functions of BU  symmetry.
    10 basis functions,   100 primitive gaussians,    10 cartesian basis functions
     5 alpha electrons        5 beta electrons
       nuclear repulsion energy        10.1800646300 Hartrees.
 NAtoms=   10 NActive=   10 NUniq=    5 SFac= 4.00D+00 NAtFMM=   60 NAOKFM=F Big=F
 Integral buffers will be    131072 words long.
 Regular integral format.
 Two-electron integral symmetry is turned on.
 One-electron integrals computed using PRISM.
 NBasis=    10 RedAO= T EigKep=  1.21D-01  NBF=     5     0     0     5
 NBsUse=    10 1.00D-06 EigRej= -1.00D+00 NBFU=     5     0     0     5
 ExpMin= 3.16D-02 ExpMax= 1.00D+03 ExpMxC= 1.00D+01 IAcc=3 IRadAn=         5 AccDes= 0.00D+00
 Harris functional with IExCor=  205 and IRadAn=       5 diagonalized for initial guess.
 HarFok:  IExCor=  205 AccDes= 0.00D+00 IRadAn=         5 IDoV= 1 UseB2=F ITyADJ=14
 ICtDFT=  3500011 ScaDFX=  1.000000  1.000000  1.000000  1.000000
 FoFCou: FMM=F IPFlag=           0 FMFlag=      100000 FMFlg1=           0
         NFxFlg=           0 DoJE=T BraDBF=F KetDBF=T FulRan=T
         wScrn=  0.000000 ICntrl=     500 IOpCl=  0 I1Cent=   200000004 NGrid=           0
         NMat0=    1 NMatS0=      1 NMatT0=    0 NMatD0=    1 NMtDS0=    0 NMtDT0=    0
 Petite list used in FoFCou.
 Initial guess orbital symmetries:
       Occupied  (AG) (BU) (AG) (BU) (AG)
       Virtual   (BU) (BU) (AG) (BU) (AG)
 The electronic state of the initial guess is 1-AG.
 Keep R1 ints in memory in symmetry-blocked form, NReq=871419.
 Requested convergence on RMS density matrix=1.00D-08 within 128 cycles.
 Requested convergence on MAX density matrix=1.00D-06.
 Requested convergence on             energy=1.00D-06.
 No special actions if energy rises.
 SCF Done:  E(RHF) =  -4.64439588338     A.U. after    5 cycles
            NFock=  5  Conv=0.73D-08     -V/T= 1.9831
 Range of M.O.s used for correlation:     1    10
 NBasis=    10 NAE=     5 NBE=     5 NFC=     0 NFV=     0
 NROrb=     10 NOA=     5 NOB=     5 NVA=     5 NVB=     5

 **** Warning!!: The smallest alpha delta epsilon is  0.48294672D-01

 Semi-Direct transformation.
 ModeAB=           4 MOrb=             5 LenV=     134115870
 LASXX=         1030 LTotXX=        1030 LenRXX=        2480
 LTotAB=        1450 MaxLAS=        1500 LenRXY=           0
 NonZer=        3510 LenScr=      655360 LnRSAI=        1500
 LnScr1=      655360 LExtra=           0 Total=      1314700
 MaxDsk=          -1 SrtSym=           T ITran=            3
 JobTyp=0 Pass  1:  I=   1 to   5.
 (rs|ai) integrals will be sorted in core.
 Spin components of T(2) and E(2):
     alpha-alpha T2 =       0.5332330996D-04 E2=     -0.1353144107D-03
     alpha-beta  T2 =       0.9068488694D+01 E2=     -0.9048412957D+00
     beta-beta   T2 =       0.5332330996D-04 E2=     -0.1353144107D-03
 ANorm=    0.3173105000D+01
 E2 =    -0.9051119245D+00 EUMP2 =    -0.55495078078677D+01
 Second order stability test of a single determinant RHF wave function:
 Stabil:  MDV=134217728
 ***********************************************************************
 Matrix         Lowest Root    Major Pairs
 ***********************************************************************
 Internal RHF     0.3908022    Stable
 RRHF --> CRHF    0.0000734    Stable
 RRHF --> RUHF   -0.5820009    5A=6B
 Not stable.
 ***********************************************************************

 **********************************************************************

            Population analysis using the SCF density.

 **********************************************************************

 Orbital symmetries:
       Occupied  (AG) (BU) (AG) (BU) (AG)
       Virtual   (BU) (BU) (AG) (BU) (AG)
 The electronic state is 1-AG.
 Alpha  occ. eigenvalues --   -0.73391  -0.71618  -0.69048  -0.66550  -0.20341
 Alpha virt. eigenvalues --   -0.15512   0.48854   0.54603   0.62724   0.70240
          Condensed to atoms (all electrons):
               1          2          3          4          5          6
     1  H    1.032858  -0.016590  -0.016513   0.000044   0.000082   0.000002
     2  H   -0.016590   0.562137   0.485335  -0.017258  -0.014385   0.000082
     3  H   -0.016513   0.485335   0.567169  -0.017921  -0.017406   0.000090
     4  H    0.000044  -0.017258  -0.017921   0.574056   0.493259  -0.017580
     5  H    0.000082  -0.014385  -0.017406   0.493259   0.573736  -0.018175
     6  H    0.000002   0.000082   0.000090  -0.017580  -0.018175   0.573736
     7  H    0.000001   0.000071   0.000086  -0.014584  -0.017580   0.493259
     8  H   -0.000000   0.000001   0.000001   0.000086   0.000090  -0.017406
     9  H   -0.000000   0.000001   0.000001   0.000071   0.000082  -0.014385
    10  H    0.000000  -0.000000  -0.000000   0.000001   0.000002   0.000082
               7          8          9         10
     1  H    0.000001  -0.000000  -0.000000   0.000000
     2  H    0.000071   0.000001   0.000001  -0.000000
     3  H    0.000086   0.000001   0.000001  -0.000000
     4  H   -0.014584   0.000086   0.000071   0.000001
     5  H   -0.017580   0.000090   0.000082   0.000002
     6  H    0.493259  -0.017406  -0.014385   0.000082
     7  H    0.574056  -0.017921  -0.017258   0.000044
     8  H   -0.017921   0.567169   0.485335  -0.016513
     9  H   -0.017258   0.485335   0.562137  -0.016590
    10  H    0.000044  -0.016513  -0.016590   1.032858
 Mulliken charges:
               1
     1  H    0.000115
     2  H    0.000606
     3  H   -0.000843
     4  H   -0.000175
     5  H    0.000296
     6  H    0.000296
     7  H   -0.000175
     8  H   -0.000843
     9  H    0.000606
    10  H    0.000115
 Sum of Mulliken charges =  -0.00000
 Mulliken charges with hydrogens summed into heavy atoms:
               1
 Electronic spatial extent (au):  <R**2>=            422.7163
 Charge=             -0.0000 electrons
 Dipole moment (field-independent basis, Debye):
    X=             -0.0000    Y=              0.0000    Z=             -0.0000  Tot=              0.0000
 Quadrupole moment (field-independent basis, Debye-Ang):
   XX=            -12.5239   YY=            -15.7457   ZZ=            -13.3943
   XY=             -0.5857   XZ=             -0.0000   YZ=              0.0000
 Traceless Quadrupole moment (field-independent basis, Debye-Ang):
   XX=              1.3641   YY=             -1.8577   ZZ=              0.4937
   XY=             -0.5857   XZ=             -0.0000   YZ=              0.0000
 Octapole moment (field-independent basis, Debye-Ang**2):
  XXX=              0.0000  YYY=             -0.0000  ZZZ=              0.0000  XYY=             -0.0000
  XXY=             -0.0000  XXZ=              0.0000  XZZ=              0.0000  YZZ=             -0.0000
  YYZ=              0.0000  XYZ=             -0.0000
 Hexadecapole moment (field-independent basis, Debye-Ang**3):
 XXXX=            -57.1565 YYYY=           -959.7316 ZZZZ=            -16.6558 XXXY=            -87.5246
 XXXZ=              0.0000 YYYX=           -111.9358 YYYZ=              0.0000 ZZZX=              0.0000
 ZZZY=              0.0000 XXYY=           -151.6336 XXZZ=            -12.6194 YYZZ=           -145.8009
 XXYZ=              0.0000 YYXZ=              0.0000 ZZXY=            -30.2449
 N-N= 1.018006462999D+01 E-N=-2.835408954133D+01  KE= 4.724138457785D+00
 Symmetry AG   KE= 2.715289211651D+00
 Symmetry BG   KE= 0.000000000000D+00
 Symmetry AU   KE= 0.000000000000D+00
 Symmetry BU   KE= 2.008849246134D+00

 Test job not archived.
 1\1\GINC-SULU\Stability\RHF\Gen\H10\LCJ1\09-Feb-2017\0\\#rhf/gen scf(s
 ymm,tight,novaracc,noincfock,fulldiag) stable(crhf) geom=nocrowd test\
 \hf stability analysis of h10 triangular lattice, y= 2.192288647018750
 1\\0,1\H\H,1,2.2080501331\H,1,2.2080501331,2,13.7\H,2,2.2080501331,1,1
 66.3,3,0.,0\H,3,2.2080501331,1,180.,2,0.,0\H,4,2.2080501331,2,180.,1,0
 .,0\H,5,2.2080501331,3,180.,2,0.,0\H,6,2.2080501331,4,180.,1,0.,0\H,7,
 2.2080501331,5,180.,2,0.,0\H,8,2.2080501331,6,180.,1,0.,0\\Version=ES6
 4L-G09RevE.01\State=1-AG\HF=-4.6443959\MP2=-5.5495078\RMSD=7.325e-09\D
 ipole=0.,0.,0.\Quadrupole=1.0141661,0.3670173,-1.3811835,0.,-0.4354426
 ,0.\PG=C02H [SGH(H10)]\\@


 The theorems and results in mathematical physics are
 not theorems and results about Nature, but about our
 description of it.
                   --Gerard 't Hooft
 Job cpu time:       0 days  0 hours  0 minutes  0.9 seconds.
 File lengths (MBytes):  RWF=     84 Int=      0 D2E=      0 Chk=      2 Scr=      2
 Normal termination of Gaussian 09 at Thu Feb  9 15:58:31 2017.
