 Entering Gaussian System, Link 0=g09
 AtFile(1): H.gbs
            H     0
            S   10   1.00
               1000.000000000000            0.000068713567
                316.227766000000            0.000169141320
                100.000000000000            0.000823394812
                 31.622776600000            0.003425569236
                 10.000000000000            0.013951996000
                  3.162277660000            0.056909313560
                  1.000000000000            0.198286399900
                  0.316227766000            0.496922426700
                  0.100000000000            0.369846276400
                  0.031622776600            0.003752720039
            ****
 Initial command:
 /projects/guscus/apps/gau/g09-e1/g09/l1.exe "/users/lcj1/gaussian/h14_rhf2rows/alpha20/Gau-3195.inp" -scrdir="/users/lcj1/gaussian/h14_rhf2rows/alpha20/"
 Entering Link 1 = /projects/guscus/apps/gau/g09-e1/g09/l1.exe PID=      3196.
  
 Copyright (c) 1988,1990,1992,1993,1995,1998,2003,2009,2015,
            Gaussian, Inc.  All Rights Reserved.
  
 This is part of the Gaussian(R) 09 program.  It is based on
 the Gaussian(R) 03 system (copyright 2003, Gaussian, Inc.),
 the Gaussian(R) 98 system (copyright 1998, Gaussian, Inc.),
 the Gaussian(R) 94 system (copyright 1995, Gaussian, Inc.),
 the Gaussian 92(TM) system (copyright 1992, Gaussian, Inc.),
 the Gaussian 90(TM) system (copyright 1990, Gaussian, Inc.),
 the Gaussian 88(TM) system (copyright 1988, Gaussian, Inc.),
 the Gaussian 86(TM) system (copyright 1986, Carnegie Mellon
 University), and the Gaussian 82(TM) system (copyright 1983,
 Carnegie Mellon University). Gaussian is a federally registered
 trademark of Gaussian, Inc.
  
 This software contains proprietary and confidential information,
 including trade secrets, belonging to Gaussian, Inc.
  
 This software is provided under written license and may be
 used, copied, transmitted, or stored only in accord with that
 written license.
  
 The following legend is applicable only to US Government
 contracts under FAR:
  
                    RESTRICTED RIGHTS LEGEND
  
 Use, reproduction and disclosure by the US Government is
 subject to restrictions as set forth in subparagraphs (a)
 and (c) of the Commercial Computer Software - Restricted
 Rights clause in FAR 52.227-19.
  
 Gaussian, Inc.
 340 Quinnipiac St., Bldg. 40, Wallingford CT 06492
  
  
 ---------------------------------------------------------------
 Warning -- This program may not be used in any manner that
 competes with the business of Gaussian, Inc. or will provide
 assistance to any competitor of Gaussian, Inc.  The licensee
 of this program is prohibited from giving any competitor of
 Gaussian, Inc. access to this program.  By using this program,
 the user acknowledges that Gaussian, Inc. is engaged in the
 business of creating and licensing software in the field of
 computational chemistry and represents and warrants to the
 licensee that it is not a competitor of Gaussian, Inc. and that
 it will not use this program in any manner prohibited above.
 ---------------------------------------------------------------
  

 Cite this work as:
 Gaussian 09, Revision E.01,
 M. J. Frisch, G. W. Trucks, H. B. Schlegel, G. E. Scuseria, 
 M. A. Robb, J. R. Cheeseman, G. Scalmani, V. Barone, B. Mennucci, 
 G. A. Petersson, H. Nakatsuji, M. Caricato, X. Li, H. P. Hratchian, 
 A. F. Izmaylov, J. Bloino, G. Zheng, J. L. Sonnenberg, M. Hada, 
 M. Ehara, K. Toyota, R. Fukuda, J. Hasegawa, M. Ishida, T. Nakajima, 
 Y. Honda, O. Kitao, H. Nakai, T. Vreven, J. A. Montgomery, Jr., 
 J. E. Peralta, F. Ogliaro, M. Bearpark, J. J. Heyd, E. Brothers, 
 K. N. Kudin, V. N. Staroverov, T. Keith, R. Kobayashi, J. Normand, 
 K. Raghavachari, A. Rendell, J. C. Burant, S. S. Iyengar, J. Tomasi, 
 M. Cossi, N. Rega, J. M. Millam, M. Klene, J. E. Knox, J. B. Cross, 
 V. Bakken, C. Adamo, J. Jaramillo, R. Gomperts, R. E. Stratmann, 
 O. Yazyev, A. J. Austin, R. Cammi, C. Pomelli, J. W. Ochterski, 
 R. L. Martin, K. Morokuma, V. G. Zakrzewski, G. A. Voth, 
 P. Salvador, J. J. Dannenberg, S. Dapprich, A. D. Daniels, 
 O. Farkas, J. B. Foresman, J. V. Ortiz, J. Cioslowski, 
 and D. J. Fox, Gaussian, Inc., Wallingford CT, 2013.
 
 ******************************************
 Gaussian 09:  ES64L-G09RevE.01 30-Nov-2015
                15-Feb-2017 
 ******************************************
 %chk=h14.chk
 ----------------------------------------------------------------------
 #rhf/gen scf(symm,tight,novaracc,noincfock,fulldiag) stable(crhf) gues
 s=read geom=nocrowd test
 ----------------------------------------------------------------------
 1/38=1/1;
 2/12=1,17=6,18=5,40=1/2;
 3/5=7,16=1,25=1,30=1,116=1/1,2,3;
 4/5=1,9=4/1;
 5/5=100002,15=2,16=1,32=2,38=6/2;
 8/6=1,10=90,11=11/1,4;
 9/8=4,13=1/2;
 6/7=2,8=2,9=2,10=2,28=1/1;
 99/5=1,9=1/99;
 ----------------------------------------------------------------------
 hf stability analysis of h12 triangular lattice, y= 1.9092530122354845
  alpha= 81.000000000000000
 ----------------------------------------------------------------------
 Symbolic Z-matrix:
 Charge =  0 Multiplicity = 1
 H
 H                    1     1.93305 
 H                    1     1.93305  2     18. 
 H                    2     1.93305  1     162.     3     0.       0
 H                    3     1.93305  1     180.     2     0.       0
 H                    4     1.93305  2     180.     1     0.       0
 H                    5     1.93305  3     180.     2     0.       0
 H                    6     1.93305  4     180.     1     0.       0
 H                    7     1.93305  5     180.     2     0.       0
 H                    8     1.93305  6     180.     1     0.       0
 H                    9     1.93305  7     180.     2     0.       0
 H                    10    1.93305  8     180.     1     0.       0
 H                    11    1.93305  9     180.     2     0.       0
 H                    12    1.93305  10    180.     1     0.       0
 
                          Input orientation:                          
 ---------------------------------------------------------------------
 Center     Atomic      Atomic             Coordinates (Angstroms)
 Number     Number       Type             X           Y           Z
 ---------------------------------------------------------------------
      1          1           0        0.000000    0.000000    0.000000
      2          1           0        0.000000    0.000000    1.933052
      3          1           0        0.597346    0.000000    1.838442
      4          1           0        0.597346    0.000000    3.771494
      5          1           0        1.194692    0.000000    3.676884
      6          1           0        1.194692    0.000000    5.609936
      7          1           0        1.792038    0.000000    5.515325
      8          1           0        1.792038    0.000000    7.448377
      9          1           0        2.389384    0.000000    7.353767
     10          1           0        2.389384    0.000000    9.286819
     11          1           0        2.986730    0.000000    9.192209
     12          1           0        2.986730    0.000000   11.125261
     13          1           0        3.584076    0.000000   11.030651
     14          1           0        3.584076    0.000000   12.963703
 ---------------------------------------------------------------------
                    Distance matrix (angstroms):
                    1          2          3          4          5
     1  H    0.000000
     2  H    1.933052   0.000000
     3  H    1.933052   0.604792   0.000000
     4  H    3.818506   1.933052   1.933052   0.000000
     5  H    3.866104   2.113820   1.933052   0.604792   0.000000
     6  H    5.735736   3.866104   3.818506   1.933052   1.933052
     7  H    5.799156   4.005506   3.866104   2.113820   1.933052
     8  H    7.660922   5.799156   5.735736   3.866104   3.818506
     9  H    7.732208   5.923960   5.799156   4.005506   3.866104
    10  H    9.589273   7.732208   7.660922   5.799156   5.735736
    11  H    9.665260   7.849580   7.732208   5.923960   5.799156
    12  H   11.519201   9.665260   9.589273   7.732208   7.660922
    13  H   11.598312   9.778134   9.665260   7.849580   7.732208
    14  H   13.450026  11.598312  11.519201   9.665260   9.589273
                    6          7          8          9         10
     6  H    0.000000
     7  H    0.604792   0.000000
     8  H    1.933052   1.933052   0.000000
     9  H    2.113820   1.933052   0.604792   0.000000
    10  H    3.866104   3.818506   1.933052   1.933052   0.000000
    11  H    4.005506   3.866104   2.113820   1.933052   0.604792
    12  H    5.799156   5.735736   3.866104   3.818506   1.933052
    13  H    5.923960   5.799156   4.005506   3.866104   2.113820
    14  H    7.732208   7.660922   5.799156   5.735736   3.866104
                   11         12         13         14
    11  H    0.000000
    12  H    1.933052   0.000000
    13  H    1.933052   0.604792   0.000000
    14  H    3.818506   1.933052   1.933052   0.000000
 Stoichiometry    H14
 Framework group  C2H[SGH(H14)]
 Deg. of freedom    13
 Full point group                 C2H     NOp   4
 Largest Abelian subgroup         C2H     NOp   4
 Largest concise Abelian subgroup C2      NOp   2
                         Standard orientation:                         
 ---------------------------------------------------------------------
 Center     Atomic      Atomic             Coordinates (Angstroms)
 Number     Number       Type             X           Y           Z
 ---------------------------------------------------------------------
      1          1           0        1.792038    6.481851    0.000000
      2          1           0        1.792038    4.548799    0.000000
      3          1           0        1.194692    4.643410    0.000000
      4          1           0        1.194692    2.710358    0.000000
      5          1           0        0.597346    2.804968    0.000000
      6          1           0        0.597346    0.871916    0.000000
      7          1           0       -0.000000    0.966526    0.000000
      8          1           0       -0.000000   -0.966526    0.000000
      9          1           0       -0.597346   -0.871916    0.000000
     10          1           0       -0.597346   -2.804968    0.000000
     11          1           0       -1.194692   -2.710358    0.000000
     12          1           0       -1.194692   -4.643410    0.000000
     13          1           0       -1.792038   -4.548799    0.000000
     14          1           0       -1.792038   -6.481851    0.000000
 ---------------------------------------------------------------------
 Rotational constants (GHZ):    424.3524257      2.2674744      2.2554229
 General basis read from cards:  (5D, 7F)
 There are     7 symmetry adapted cartesian basis functions of AG  symmetry.
 There are     0 symmetry adapted cartesian basis functions of BG  symmetry.
 There are     0 symmetry adapted cartesian basis functions of AU  symmetry.
 There are     7 symmetry adapted cartesian basis functions of BU  symmetry.
 There are     7 symmetry adapted basis functions of AG  symmetry.
 There are     0 symmetry adapted basis functions of BG  symmetry.
 There are     0 symmetry adapted basis functions of AU  symmetry.
 There are     7 symmetry adapted basis functions of BU  symmetry.
    14 basis functions,   140 primitive gaussians,    14 cartesian basis functions
     7 alpha electrons        7 beta electrons
       nuclear repulsion energy        17.3737388204 Hartrees.
 NAtoms=   14 NActive=   14 NUniq=    7 SFac= 4.00D+00 NAtFMM=   60 NAOKFM=F Big=F
 Integral buffers will be    131072 words long.
 Regular integral format.
 Two-electron integral symmetry is turned on.
 One-electron integrals computed using PRISM.
 NBasis=    14 RedAO= T EigKep=  1.38D-01  NBF=     7     0     0     7
 NBsUse=    14 1.00D-06 EigRej= -1.00D+00 NBFU=     7     0     0     7
 Initial guess from the checkpoint file:  "h14.chk"
 B after Tr=    -0.000000   -0.000000    0.000000
         Rot=    0.999992    0.000000   -0.000000   -0.004107 Ang=  -0.47 deg.
 Initial guess orbital symmetries:
       Occupied  (AG) (BU) (AG) (BU) (AG) (BU) (BU)
       Virtual   (AG) (BU) (AG) (BU) (AG) (BU) (AG)
 Keep R1 ints in memory in symmetry-blocked form, NReq=910150.
 Requested convergence on RMS density matrix=1.00D-08 within 128 cycles.
 Requested convergence on MAX density matrix=1.00D-06.
 Requested convergence on             energy=1.00D-06.
 No special actions if energy rises.
 SCF Done:  E(RHF) =  -6.92019504257     A.U. after    5 cycles
            NFock=  5  Conv=0.63D-08     -V/T= 2.0212
 Range of M.O.s used for correlation:     1    14
 NBasis=    14 NAE=     7 NBE=     7 NFC=     0 NFV=     0
 NROrb=     14 NOA=     7 NOB=     7 NVA=     7 NVB=     7

 **** Warning!!: The smallest alpha delta epsilon is  0.39493085D-01

 Semi-Direct transformation.
 ModeAB=           4 MOrb=             7 LenV=     134081024
 LASXX=         4102 LTotXX=        4102 LenRXX=        9443
 LTotAB=        5341 MaxLAS=        5488 LenRXY=           0
 NonZer=       13545 LenScr=      655360 LnRSAI=        5488
 LnScr1=      655360 LExtra=           0 Total=      1325651
 MaxDsk=          -1 SrtSym=           T ITran=            3
 JobTyp=0 Pass  1:  I=   1 to   7.
 (rs|ai) integrals will be sorted in core.
 Spin components of T(2) and E(2):
     alpha-alpha T2 =       0.2041521580D-03 E2=     -0.4778204359D-03
     alpha-beta  T2 =       0.1385374870D+02 E2=     -0.1146479544D+01
     beta-beta   T2 =       0.2041521580D-03 E2=     -0.4778204359D-03
 ANorm=    0.3854109106D+01
 E2 =    -0.1147435185D+01 EUMP2 =    -0.80676302275020D+01
 Second order stability test of a single determinant RHF wave function:
 Stabil:  MDV=134217728
 ***********************************************************************
 Matrix         Lowest Root    Major Pairs
 ***********************************************************************
 Internal RHF     0.3396308    Stable
 RRHF --> CRHF   -0.0000346    7A=8A
 RRHF --> RUHF   -0.5899097    7A=8B
 Not stable.
 ***********************************************************************

 **********************************************************************

            Population analysis using the SCF density.

 **********************************************************************

 Orbital symmetries:
       Occupied  (AG) (BU) (AG) (BU) (AG) (BU) (BU)
       Virtual   (AG) (BU) (AG) (BU) (AG) (BU) (AG)
 The electronic state is 1-AG.
 Alpha  occ. eigenvalues --   -0.73693  -0.72271  -0.69617  -0.66187  -0.62418
 Alpha  occ. eigenvalues --   -0.58996  -0.18668
 Alpha virt. eigenvalues --   -0.14718   0.37676   0.41509   0.47933   0.55936
 Alpha virt. eigenvalues --    0.64052   0.70441
          Condensed to atoms (all electrons):
               1          2          3          4          5          6
     1  H    1.069014  -0.031232  -0.030385   0.000138   0.000389  -0.000001
     2  H   -0.031232   0.598575   0.494378  -0.036304  -0.029941   0.000473
     3  H   -0.030385   0.494378   0.603989  -0.035741  -0.036538   0.000464
     4  H    0.000138  -0.036304  -0.035741   0.626143   0.514124  -0.037884
     5  H    0.000389  -0.029941  -0.036538   0.514124   0.624663  -0.037312
     6  H   -0.000001   0.000473   0.000464  -0.037884  -0.037312   0.626967
     7  H   -0.000002   0.000406   0.000466  -0.030884  -0.037716   0.515327
     8  H    0.000000  -0.000004  -0.000003   0.000493   0.000491  -0.037874
     9  H    0.000000  -0.000003  -0.000003   0.000422   0.000491  -0.030950
    10  H   -0.000000   0.000000   0.000000  -0.000004  -0.000004   0.000491
    11  H   -0.000000   0.000000   0.000000  -0.000003  -0.000004   0.000422
    12  H    0.000000  -0.000000  -0.000000   0.000000   0.000000  -0.000003
    13  H    0.000000  -0.000000  -0.000000   0.000000   0.000000  -0.000003
    14  H   -0.000000   0.000000   0.000000  -0.000000  -0.000000   0.000000
               7          8          9         10         11         12
     1  H   -0.000002   0.000000   0.000000  -0.000000  -0.000000   0.000000
     2  H    0.000406  -0.000004  -0.000003   0.000000   0.000000  -0.000000
     3  H    0.000466  -0.000003  -0.000003   0.000000   0.000000  -0.000000
     4  H   -0.030884   0.000493   0.000422  -0.000004  -0.000003   0.000000
     5  H   -0.037716   0.000491   0.000491  -0.000004  -0.000004   0.000000
     6  H    0.515327  -0.037874  -0.030950   0.000491   0.000422  -0.000003
     7  H    0.626526  -0.037385  -0.037874   0.000491   0.000493  -0.000003
     8  H   -0.037385   0.626526   0.515327  -0.037716  -0.030884   0.000466
     9  H   -0.037874   0.515327   0.626967  -0.037312  -0.037884   0.000464
    10  H    0.000491  -0.037716  -0.037312   0.624663   0.514124  -0.036538
    11  H    0.000493  -0.030884  -0.037884   0.514124   0.626143  -0.035741
    12  H   -0.000003   0.000466   0.000464  -0.036538  -0.035741   0.603989
    13  H   -0.000004   0.000406   0.000473  -0.029941  -0.036304   0.494378
    14  H    0.000000  -0.000002  -0.000001   0.000389   0.000138  -0.030385
              13         14
     1  H    0.000000  -0.000000
     2  H   -0.000000   0.000000
     3  H   -0.000000   0.000000
     4  H    0.000000  -0.000000
     5  H    0.000000  -0.000000
     6  H   -0.000003   0.000000
     7  H   -0.000004   0.000000
     8  H    0.000406  -0.000002
     9  H    0.000473  -0.000001
    10  H   -0.029941   0.000389
    11  H   -0.036304   0.000138
    12  H    0.494378  -0.030385
    13  H    0.598575  -0.031232
    14  H   -0.031232   1.069014
 Mulliken charges:
               1
     1  H   -0.007922
     2  H    0.003650
     3  H    0.003373
     4  H   -0.000499
     5  H    0.001357
     6  H   -0.000118
     7  H    0.000159
     8  H    0.000159
     9  H   -0.000118
    10  H    0.001357
    11  H   -0.000499
    12  H    0.003373
    13  H    0.003650
    14  H   -0.007922
 Sum of Mulliken charges =   0.00000
 Mulliken charges with hydrogens summed into heavy atoms:
               1
 Electronic spatial extent (au):  <R**2>=            839.3011
 Charge=              0.0000 electrons
 Dipole moment (field-independent basis, Debye):
    X=             -0.0000    Y=              0.0000    Z=             -0.0000  Tot=              0.0000
 Quadrupole moment (field-independent basis, Debye-Ang):
   XX=            -17.1522   YY=            -25.3646   ZZ=            -18.4607
   XY=             -2.2001   XZ=              0.0000   YZ=              0.0000
 Traceless Quadrupole moment (field-independent basis, Debye-Ang):
   XX=              3.1736   YY=             -5.0388   ZZ=              1.8651
   XY=             -2.2001   XZ=              0.0000   YZ=              0.0000
 Octapole moment (field-independent basis, Debye-Ang**2):
  XXX=              0.0000  YYY=              0.0000  ZZZ=             -0.0000  XYY=              0.0000
  XXY=              0.0000  XXZ=             -0.0000  XZZ=              0.0000  YZZ=              0.0000
  YYZ=             -0.0000  XYZ=             -0.0000
 Hexadecapole moment (field-independent basis, Debye-Ang**3):
 XXXX=           -170.1753 YYYY=          -2081.1764 ZZZZ=            -22.6555 XXXY=           -239.0670
 XXXZ=              0.0000 YYYX=           -374.6242 YYYZ=              0.0000 ZZZX=              0.0000
 ZZZY=              0.0000 XXYY=           -322.3664 XXZZ=            -33.6452 YYZZ=           -277.7933
 XXYZ=              0.0000 YYXZ=              0.0000 ZZXY=            -82.2029
 N-N= 1.737373882041D+01 E-N=-4.692719259265D+01  KE= 6.776312725073D+00
 Symmetry AG   KE= 2.570585384669D+00
 Symmetry BG   KE= 0.000000000000D+00
 Symmetry AU   KE= 0.000000000000D+00
 Symmetry BU   KE= 4.205727340404D+00

 Test job not archived.
 1\1\GINC-SULU\Stability\RHF\Gen\H14\LCJ1\15-Feb-2017\0\\#rhf/gen scf(s
 ymm,tight,novaracc,noincfock,fulldiag) stable(crhf) guess=read geom=no
 crowd test\\hf stability analysis of h12 triangular lattice, y= 1.9092
 530122354845 alpha= 81.000000000000000\\0,1\H\H,1,1.9330520791\H,1,1.9
 330520791,2,18.\H,2,1.9330520791,1,162.,3,0.,0\H,3,1.9330520791,1,180.
 ,2,0.,0\H,4,1.9330520791,2,180.,1,0.,0\H,5,1.9330520791,3,180.,2,0.,0\
 H,6,1.9330520791,4,180.,1,0.,0\H,7,1.9330520791,5,180.,2,0.,0\H,8,1.93
 30520791,6,180.,1,0.,0\H,9,1.9330520791,7,180.,2,0.,0\H,10,1.933052079
 1,8,180.,1,0.,0\H,11,1.9330520791,9,180.,2,0.,0\H,12,1.9330520791,10,1
 80.,1,0.,0\\Version=ES64L-G09RevE.01\State=1-AG\HF=-6.920195\MP2=-8.06
 76302\RMSD=6.274e-09\Dipole=0.,0.,0.\Quadrupole=2.3595246,1.3866835,-3
 .7462081,0.,-1.6357485,0.\PG=C02H [SGH(H14)]\\@


 SLITHERY-DITHERY
 FRIEDRICH A. KEKULE
 DREAMT ON A BUS OF THINGS
 FREUD WOULD THINK KEEN.
 MOST OF THE TIME THEY WERE
 HERPETOLOGICAL
 BITING THEIR TAILS IN THE
 SHAPE OF BENZENE.
 Job cpu time:       0 days  0 hours  0 minutes  1.1 seconds.
 File lengths (MBytes):  RWF=     84 Int=      0 D2E=      0 Chk=      2 Scr=      2
 Normal termination of Gaussian 09 at Wed Feb 15 12:57:41 2017.
