 Entering Gaussian System, Link 0=g09
 AtFile(1): H.gbs
            H     0
            S   10   1.00
               1000.000000000000            0.000068713567
                316.227766000000            0.000169141320
                100.000000000000            0.000823394812
                 31.622776600000            0.003425569236
                 10.000000000000            0.013951996000
                  3.162277660000            0.056909313560
                  1.000000000000            0.198286399900
                  0.316227766000            0.496922426700
                  0.100000000000            0.369846276400
                  0.031622776600            0.003752720039
            ****
 Initial command:
 /projects/guscus/apps/gau/g09-e1/g09/l1.exe "/users/lcj1/gaussian/h10/2rows_uhf/ag2bu3/follow20/Gau-9820.inp" -scrdir="/users/lcj1/gaussian/h10/2rows_uhf/ag2bu3/follow20/"
 Entering Link 1 = /projects/guscus/apps/gau/g09-e1/g09/l1.exe PID=      9821.
  
 Copyright (c) 1988,1990,1992,1993,1995,1998,2003,2009,2015,
            Gaussian, Inc.  All Rights Reserved.
  
 This is part of the Gaussian(R) 09 program.  It is based on
 the Gaussian(R) 03 system (copyright 2003, Gaussian, Inc.),
 the Gaussian(R) 98 system (copyright 1998, Gaussian, Inc.),
 the Gaussian(R) 94 system (copyright 1995, Gaussian, Inc.),
 the Gaussian 92(TM) system (copyright 1992, Gaussian, Inc.),
 the Gaussian 90(TM) system (copyright 1990, Gaussian, Inc.),
 the Gaussian 88(TM) system (copyright 1988, Gaussian, Inc.),
 the Gaussian 86(TM) system (copyright 1986, Carnegie Mellon
 University), and the Gaussian 82(TM) system (copyright 1983,
 Carnegie Mellon University). Gaussian is a federally registered
 trademark of Gaussian, Inc.
  
 This software contains proprietary and confidential information,
 including trade secrets, belonging to Gaussian, Inc.
  
 This software is provided under written license and may be
 used, copied, transmitted, or stored only in accord with that
 written license.
  
 The following legend is applicable only to US Government
 contracts under FAR:
  
                    RESTRICTED RIGHTS LEGEND
  
 Use, reproduction and disclosure by the US Government is
 subject to restrictions as set forth in subparagraphs (a)
 and (c) of the Commercial Computer Software - Restricted
 Rights clause in FAR 52.227-19.
  
 Gaussian, Inc.
 340 Quinnipiac St., Bldg. 40, Wallingford CT 06492
  
  
 ---------------------------------------------------------------
 Warning -- This program may not be used in any manner that
 competes with the business of Gaussian, Inc. or will provide
 assistance to any competitor of Gaussian, Inc.  The licensee
 of this program is prohibited from giving any competitor of
 Gaussian, Inc. access to this program.  By using this program,
 the user acknowledges that Gaussian, Inc. is engaged in the
 business of creating and licensing software in the field of
 computational chemistry and represents and warrants to the
 licensee that it is not a competitor of Gaussian, Inc. and that
 it will not use this program in any manner prohibited above.
 ---------------------------------------------------------------
  

 Cite this work as:
 Gaussian 09, Revision E.01,
 M. J. Frisch, G. W. Trucks, H. B. Schlegel, G. E. Scuseria, 
 M. A. Robb, J. R. Cheeseman, G. Scalmani, V. Barone, B. Mennucci, 
 G. A. Petersson, H. Nakatsuji, M. Caricato, X. Li, H. P. Hratchian, 
 A. F. Izmaylov, J. Bloino, G. Zheng, J. L. Sonnenberg, M. Hada, 
 M. Ehara, K. Toyota, R. Fukuda, J. Hasegawa, M. Ishida, T. Nakajima, 
 Y. Honda, O. Kitao, H. Nakai, T. Vreven, J. A. Montgomery, Jr., 
 J. E. Peralta, F. Ogliaro, M. Bearpark, J. J. Heyd, E. Brothers, 
 K. N. Kudin, V. N. Staroverov, T. Keith, R. Kobayashi, J. Normand, 
 K. Raghavachari, A. Rendell, J. C. Burant, S. S. Iyengar, J. Tomasi, 
 M. Cossi, N. Rega, J. M. Millam, M. Klene, J. E. Knox, J. B. Cross, 
 V. Bakken, C. Adamo, J. Jaramillo, R. Gomperts, R. E. Stratmann, 
 O. Yazyev, A. J. Austin, R. Cammi, C. Pomelli, J. W. Ochterski, 
 R. L. Martin, K. Morokuma, V. G. Zakrzewski, G. A. Voth, 
 P. Salvador, J. J. Dannenberg, S. Dapprich, A. D. Daniels, 
 O. Farkas, J. B. Foresman, J. V. Ortiz, J. Cioslowski, 
 and D. J. Fox, Gaussian, Inc., Wallingford CT, 2013.
 
 ******************************************
 Gaussian 09:  ES64L-G09RevE.01 30-Nov-2015
                22-Feb-2017 
 ******************************************
 %chk=h10.chk
 ----------------------------------------------------------------------
 #uhf/gen scf(tight,novaracc,noincfock,fulldiag) stable(crhf) guess=rea
 d geom=nocrowd test
 ----------------------------------------------------------------------
 1/38=1/1;
 2/12=1,17=6,18=5,40=1/2;
 3/5=7,16=1,25=1,30=1,116=2/1,2,3;
 4/5=1/1;
 5/5=100002,16=1,32=2,38=6/2;
 8/6=1,10=90,11=11/1,4;
 9/8=4,13=1/2;
 6/7=2,8=2,9=2,10=2,28=1/1;
 99/5=1,9=1/99;
 ----------------------------------------------------------------------
 hf stability analysis of h10 triangular lattice, y= 0.5129460835266602
 7 alpha= 24.500000000000000
 ----------------------------------------------------------------------
 Symbolic Z-matrix:
 Charge =  0 Multiplicity = 1
 H
 H                    1     1.23693 
 H                    1     1.23693  2     131. 
 H                    2     1.23693  1     49.      3     0.       0
 H                    3     1.23693  1     180.     2     0.       0
 H                    4     1.23693  2     180.     1     0.       0
 H                    5     1.23693  3     180.     2     0.       0
 H                    6     1.23693  4     180.     1     0.       0
 H                    7     1.23693  5     180.     2     0.       0
 H                    8     1.23693  6     180.     1     0.       0
 
                          Input orientation:                          
 ---------------------------------------------------------------------
 Center     Atomic      Atomic             Coordinates (Angstroms)
 Number     Number       Type             X           Y           Z
 ---------------------------------------------------------------------
      1          1           0        0.000000    0.000000    0.000000
      2          1           0        0.000000    0.000000    1.236929
      3          1           0        0.933522    0.000000   -0.811498
      4          1           0        0.933522    0.000000    0.425431
      5          1           0        1.867044    0.000000   -1.622997
      6          1           0        1.867044    0.000000   -0.386068
      7          1           0        2.800566    0.000000   -2.434495
      8          1           0        2.800566    0.000000   -1.197566
      9          1           0        3.734088    0.000000   -3.245994
     10          1           0        3.734088    0.000000   -2.009065
 ---------------------------------------------------------------------
                    Distance matrix (angstroms):
                    1          2          3          4          5
     1  H    0.000000
     2  H    1.236929   0.000000
     3  H    1.236929   2.251115   0.000000
     4  H    1.025892   1.236929   1.236929   0.000000
     5  H    2.473858   3.415411   1.236929   2.251115   0.000000
     6  H    1.906542   2.473858   1.025892   1.236929   1.236929
     7  H    3.710787   4.617632   2.473858   3.415411   1.236929
     8  H    3.045872   3.710787   1.906542   2.473858   1.025892
     9  H    4.947716   5.834382   3.710787   4.617632   2.473858
    10  H    4.240254   4.947716   3.045872   3.710787   1.906542
                    6          7          8          9         10
     6  H    0.000000
     7  H    2.251115   0.000000
     8  H    1.236929   1.236929   0.000000
     9  H    3.415411   1.236929   2.251115   0.000000
    10  H    2.473858   1.025892   1.236929   1.236929   0.000000
 Stoichiometry    H10
 Framework group  C2H[SGH(H10)]
 Deg. of freedom     9
 Full point group                 C2H     NOp   4
 Largest Abelian subgroup         C2H     NOp   4
 Largest concise Abelian subgroup C2      NOp   2
                         Standard orientation:                         
 ---------------------------------------------------------------------
 Center     Atomic      Atomic             Coordinates (Angstroms)
 Number     Number       Type             X           Y           Z
 ---------------------------------------------------------------------
      1          1           0        1.867044   -1.004532    0.000000
      2          1           0        1.867044   -2.241461    0.000000
      3          1           0        0.933522   -0.193034    0.000000
      4          1           0        0.933522   -1.429963    0.000000
      5          1           0       -0.000000    0.618464   -0.000000
      6          1           0       -0.000000   -0.618464   -0.000000
      7          1           0       -0.933522    1.429963    0.000000
      8          1           0       -0.933522    0.193034    0.000000
      9          1           0       -1.867044    2.241461    0.000000
     10          1           0       -1.867044    1.004532    0.000000
 ---------------------------------------------------------------------
 Rotational constants (GHZ):    243.4439927     15.4937420     14.5666618
 General basis read from cards:  (5D, 7F)
 There are     5 symmetry adapted cartesian basis functions of AG  symmetry.
 There are     0 symmetry adapted cartesian basis functions of BG  symmetry.
 There are     0 symmetry adapted cartesian basis functions of AU  symmetry.
 There are     5 symmetry adapted cartesian basis functions of BU  symmetry.
 There are     5 symmetry adapted basis functions of AG  symmetry.
 There are     0 symmetry adapted basis functions of BG  symmetry.
 There are     0 symmetry adapted basis functions of AU  symmetry.
 There are     5 symmetry adapted basis functions of BU  symmetry.
    10 basis functions,   100 primitive gaussians,    10 cartesian basis functions
     5 alpha electrons        5 beta electrons
       nuclear repulsion energy        12.7226122899 Hartrees.
 NAtoms=   10 NActive=   10 NUniq=    5 SFac= 4.00D+00 NAtFMM=   60 NAOKFM=F Big=F
 Integral buffers will be    131072 words long.
 Regular integral format.
 Two-electron integral symmetry is turned on.
 One-electron integrals computed using PRISM.
 NBasis=    10 RedAO= T EigKep=  1.92D-01  NBF=     5     0     0     5
 NBsUse=    10 1.00D-06 EigRej= -1.00D+00 NBFU=     5     0     0     5
 Initial guess from the checkpoint file:  "h10.chk"
 B after Tr=     0.000000   -0.000000   -0.000000
         Rot=    0.999992   -0.000000    0.000000   -0.003879 Ang=  -0.44 deg.
 Initial guess orbital symmetries:
 Alpha Orbitals:
       Occupied  (BG) (BG) (BG) (BG) (BG)
       Virtual   (BG) (BG) (BG) (BG) (BG)
 Beta  Orbitals:
       Occupied  (BG) (BG) (BG) (BG) (BG)
       Virtual   (BG) (BG) (BG) (BG) (BG)
 Initial guess <Sx>= 0.0000 <Sy>= 0.0000 <Sz>= 0.0000 <S**2>= 1.0721 S= 0.6498
 Keep R1 and R2 ints in memory in symmetry-blocked form, NReq=878459.
 Requested convergence on RMS density matrix=1.00D-08 within 128 cycles.
 Requested convergence on MAX density matrix=1.00D-06.
 Requested convergence on             energy=1.00D-06.
 No special actions if energy rises.
 An orbital has undefined symmetry, so N**3 symmetry is turned off.
 Density matrix breaks symmetry, PCut= 1.00D-04
 Density matrix has no symmetry -- integrals replicated.
 Density matrix breaks symmetry, PCut= 1.00D-07
 Density matrix has no symmetry -- integrals replicated.
 Density matrix breaks symmetry, PCut= 1.00D-07
 Density matrix has no symmetry -- integrals replicated.
 Density matrix breaks symmetry, PCut= 1.00D-07
 Density matrix has no symmetry -- integrals replicated.
 Density matrix breaks symmetry, PCut= 1.00D-07
 Density matrix has no symmetry -- integrals replicated.
 Density matrix breaks symmetry, PCut= 1.00D-07
 Density matrix has no symmetry -- integrals replicated.
 Density matrix breaks symmetry, PCut= 1.00D-07
 Density matrix has no symmetry -- integrals replicated.
 Density matrix breaks symmetry, PCut= 1.00D-07
 Density matrix has no symmetry -- integrals replicated.
 Density matrix breaks symmetry, PCut= 1.00D-07
 Density matrix has no symmetry -- integrals replicated.
 Density matrix breaks symmetry, PCut= 1.00D-07
 Density matrix has no symmetry -- integrals replicated.
 Density matrix breaks symmetry, PCut= 1.00D-07
 Density matrix has no symmetry -- integrals replicated.
 Density matrix breaks symmetry, PCut= 1.00D-07
 Density matrix has no symmetry -- integrals replicated.
 Density matrix breaks symmetry, PCut= 1.00D-07
 Density matrix has no symmetry -- integrals replicated.
 Density matrix breaks symmetry, PCut= 1.00D-07
 Density matrix has no symmetry -- integrals replicated.
 Density matrix breaks symmetry, PCut= 1.00D-07
 Density matrix has no symmetry -- integrals replicated.
 Density matrix breaks symmetry, PCut= 1.00D-07
 Density matrix has no symmetry -- integrals replicated.
 SCF Done:  E(UHF) =  -4.86423497068     A.U. after   15 cycles
            NFock= 15  Conv=0.52D-08     -V/T= 1.9451
 <Sx>= 0.0000 <Sy>= 0.0000 <Sz>= 0.0000 <S**2>= 1.0568 S= 0.6431
 <L.S>= 0.000000000000E+00
 Annihilation of the first spin contaminant:
 S**2 before annihilation     1.0568,   after     1.4791
 Range of M.O.s used for correlation:     1    10
 NBasis=    10 NAE=     5 NBE=     5 NFC=     0 NFV=     0
 NROrb=     10 NOA=     5 NOB=     5 NVA=     5 NVB=     5
 Semi-Direct transformation.
 ModeAB=           2 MOrb=             5 LenV=     134108593
 LASXX=         1030 LTotXX=        1030 LenRXX=        1030
 LTotAB=        1825 MaxLAS=        2750 LenRXY=        2750
 NonZer=        2750 LenScr=      655360 LnRSAI=           0
 LnScr1=           0 LExtra=           0 Total=       659140
 MaxDsk=          -1 SrtSym=           F ITran=            3
 JobTyp=1 Pass  1:  I=   1 to   5.
 (rs|ai) integrals will be sorted in core.
 ModeAB=           2 MOrb=             5 LenV=     134108593
 LASXX=         1030 LTotXX=        1030 LenRXX=        2750
 LTotAB=         225 MaxLAS=        2750 LenRXY=         225
 NonZer=        2750 LenScr=      655360 LnRSAI=           0
 LnScr1=           0 LExtra=           0 Total=       658335
 MaxDsk=          -1 SrtSym=           F ITran=            3
 JobTyp=2 Pass  1:  I=   1 to   5.
 (rs|ai) integrals will be sorted in core.
 SymMOI:  orbitals are not symmetric.
 Spin components of T(2) and E(2):
     alpha-alpha T2 =       0.3454341288D-02 E2=     -0.4617821005D-02
     alpha-beta  T2 =       0.4657933103D-01 E2=     -0.6637508058D-01
     beta-beta   T2 =       0.3454341288D-02 E2=     -0.4617821005D-02
 ANorm=    0.1026395642D+01
 E2 =    -0.7561072259D-01 EUMP2 =    -0.49398456932717D+01
 (S**2,0)=  0.10568D+01           (S**2,1)=  0.96121D+00
 E(PUHF)=      -0.49250634965D+01        E(PMP2)=      -0.49992559971D+01
 Second order stability test of a single determinant UHF wave function:
 Stabil:  MDV=134217728
 ***********************************************************************
 Matrix         Lowest Root    Major Pairs
 ***********************************************************************
 Internal UHF     0.0568117    Stable
 RUHF --> CUHF (A)0.1555719    Stable
 RUHF --> CUHF (B)0.1555719    Stable
 RUHF --> GHF     0.           Zero root
 Stable under the perturbations considered.
 ***********************************************************************

 **********************************************************************

            Population analysis using the SCF density.

 **********************************************************************

 Orbital symmetries:
 Alpha Orbitals:
       Occupied  (BG) (BG) (BG) (BG) (BG)
       Virtual   (BG) (BG) (BG) (BG) (BG)
 Beta  Orbitals:
       Occupied  (BG) (BG) (BG) (BG) (BG)
       Virtual   (BG) (BG) (BG) (BG) (BG)
 Unable to determine electronic state:  partially filled degenerate orbitals.
 Alpha  occ. eigenvalues --   -0.83731  -0.71674  -0.56475  -0.34733  -0.31488
 Alpha virt. eigenvalues --    0.08011   0.16616   0.25341   0.41420   0.59378
  Beta  occ. eigenvalues --   -0.83731  -0.71674  -0.56475  -0.34733  -0.31488
  Beta virt. eigenvalues --    0.08011   0.16616   0.25341   0.41420   0.59378
          Condensed to atoms (all electrons):
               1          2          3          4          5          6
     1  H    0.832454   0.110718   0.148301  -0.041908   0.012695  -0.144357
     2  H    0.110718   0.946727  -0.110114   0.111984   0.003645  -0.038748
     3  H    0.148301  -0.110114   1.223170  -0.126885   0.066689   0.077318
     4  H   -0.041908   0.111984  -0.126885   0.834921  -0.072556   0.242052
     5  H    0.012695   0.003645   0.066689  -0.072556   0.996049  -0.152839
     6  H   -0.144357  -0.038748   0.077318   0.242052  -0.152839   0.996049
     7  H    0.003654   0.000650  -0.005301  -0.004444   0.242052  -0.072556
     8  H   -0.007175   0.007287  -0.151661  -0.005301   0.077318   0.066689
     9  H   -0.000181  -0.000143   0.007287   0.000650  -0.038748   0.003645
    10  H    0.000231  -0.000181  -0.007175   0.003654  -0.144357   0.012695
               7          8          9         10
     1  H    0.003654  -0.007175  -0.000181   0.000231
     2  H    0.000650   0.007287  -0.000143  -0.000181
     3  H   -0.005301  -0.151661   0.007287  -0.007175
     4  H   -0.004444  -0.005301   0.000650   0.003654
     5  H    0.242052   0.077318  -0.038748  -0.144357
     6  H   -0.072556   0.066689   0.003645   0.012695
     7  H    0.834921  -0.126885   0.111984  -0.041908
     8  H   -0.126885   1.223170  -0.110114   0.148301
     9  H    0.111984  -0.110114   0.946727   0.110718
    10  H   -0.041908   0.148301   0.110718   0.832454
          Atomic-Atomic Spin Densities.
               1          2          3          4          5          6
     1  H    0.641015  -0.015669   0.094687  -0.176911   0.022722  -0.135447
     2  H   -0.015669  -0.569105   0.008972   0.102966  -0.006707   0.020179
     3  H    0.094687   0.008972   0.420853  -0.287492   0.104514  -0.129635
     4  H   -0.176911   0.102966  -0.287492   0.446767  -0.013831   0.145663
     5  H    0.022722  -0.006707   0.104514  -0.013831  -0.488363   0.000000
     6  H   -0.135447   0.020179  -0.129635   0.145663   0.000000   0.488363
     7  H    0.001670  -0.000073  -0.015258  -0.000000  -0.145663   0.013831
     8  H    0.004398  -0.001216  -0.000000   0.015258   0.129635  -0.104514
     9  H   -0.000424  -0.000000   0.001216   0.000073  -0.020179   0.006707
    10  H   -0.000000   0.000424  -0.004398  -0.001670   0.135447  -0.022722
               7          8          9         10
     1  H    0.001670   0.004398  -0.000424  -0.000000
     2  H   -0.000073  -0.001216  -0.000000   0.000424
     3  H   -0.015258  -0.000000   0.001216  -0.004398
     4  H   -0.000000   0.015258   0.000073  -0.001670
     5  H   -0.145663   0.129635  -0.020179   0.135447
     6  H    0.013831  -0.104514   0.006707  -0.022722
     7  H   -0.446767   0.287492  -0.102966   0.176911
     8  H    0.287492  -0.420853  -0.008972  -0.094687
     9  H   -0.102966  -0.008972   0.569105   0.015669
    10  H    0.176911  -0.094687   0.015669  -0.641015
 Mulliken charges and spin densities:
               1          2
     1  H    0.085568   0.436042
     2  H   -0.031824  -0.460228
     3  H   -0.121629   0.193459
     4  H    0.057833   0.230823
     5  H    0.010053  -0.282425
     6  H    0.010053   0.282425
     7  H    0.057833  -0.230823
     8  H   -0.121629  -0.193459
     9  H   -0.031824   0.460228
    10  H    0.085568  -0.436042
 Sum of Mulliken charges =  -0.00000   0.00000
 Mulliken charges and spin densities with hydrogens summed into heavy atoms:
               1          2
 Electronic spatial extent (au):  <R**2>=            153.6296
 Charge=             -0.0000 electrons
 Dipole moment (field-independent basis, Debye):
    X=             -0.0000    Y=              0.0000    Z=              0.0000  Tot=              0.0000
 Quadrupole moment (field-independent basis, Debye-Ang):
   XX=            -13.5348   YY=            -14.7630   ZZ=            -12.9898
   XY=             -0.3223   XZ=             -0.0000   YZ=             -0.0000
 Traceless Quadrupole moment (field-independent basis, Debye-Ang):
   XX=              0.2278   YY=             -1.0005   ZZ=              0.7727
   XY=             -0.3223   XZ=             -0.0000   YZ=             -0.0000
 Octapole moment (field-independent basis, Debye-Ang**2):
  XXX=             -0.0000  YYY=              0.0000  ZZZ=             -0.0000  XYY=             -0.0000
  XXY=              0.0000  XXZ=             -0.0000  XZZ=             -0.0000  YZZ=              0.0000
  YYZ=             -0.0000  XYZ=              0.0000
 Hexadecapole moment (field-independent basis, Debye-Ang**3):
 XXXX=           -160.3668 YYYY=           -167.8920 ZZZZ=            -15.7450 XXXY=             64.5510
 XXXZ=              0.0000 YYYX=             68.6352 YYYZ=             -0.0000 ZZZX=              0.0000
 ZZZY=             -0.0000 XXYY=            -58.1943 XXZZ=            -28.8827 YYZZ=            -28.7908
 XXYZ=             -0.0000 YYXZ=              0.0000 ZZXY=             20.2472
 N-N= 1.272261228989D+01 E-N=-3.475861361021D+01  KE= 5.146967111415D+00
 Symmetry AG   KE= 2.009457376810D+00
 Symmetry BG   KE= 0.000000000000D+00
 Symmetry AU   KE= 0.000000000000D+00
 Symmetry BU   KE= 3.137509734605D+00
                          Isotropic Fermi Contact Couplings
        Atom                 a.u.       MegaHertz       Gauss      10(-4) cm-1
     1  H(1)               0.17519     391.53533     139.70954     130.60213
     2  H(1)              -0.16464    -367.95345    -131.29494    -122.73606
     3  H(1)               0.10254     229.16710      81.77252      76.44192
     4  H(1)               0.10998     245.79097      87.70433      81.98704
     5  H(1)              -0.12970    -289.86867    -103.43235     -96.68978
     6  H(1)               0.12970     289.86867     103.43235      96.68978
     7  H(1)              -0.10998    -245.79097     -87.70433     -81.98704
     8  H(1)              -0.10254    -229.16710     -81.77252     -76.44192
     9  H(1)               0.16464     367.95345     131.29494     122.73606
    10  H(1)              -0.17519    -391.53533    -139.70954    -130.60213
 --------------------------------------------------------
       Center         ----  Spin Dipole Couplings  ----
                      3XX-RR        3YY-RR        3ZZ-RR
 --------------------------------------------------------
     1   Atom        0.025451     -0.030630      0.005179
     2   Atom       -0.000204      0.045173     -0.044969
     3   Atom        0.045352     -0.022701     -0.022650
     4   Atom        0.056612     -0.034644     -0.021968
     5   Atom        0.001470      0.008688     -0.010157
     6   Atom       -0.001470     -0.008688      0.010157
     7   Atom       -0.056612      0.034644      0.021968
     8   Atom       -0.045352      0.022701      0.022650
     9   Atom        0.000204     -0.045173      0.044969
    10   Atom       -0.025451      0.030630     -0.005179
 --------------------------------------------------------
                        XY            XZ            YZ
 --------------------------------------------------------
     1   Atom        0.009102     -0.000000      0.000000
     2   Atom       -0.023950      0.000000     -0.000000
     3   Atom        0.022515      0.000000     -0.000000
     4   Atom        0.040411      0.000000      0.000000
     5   Atom       -0.029217      0.000000     -0.000000
     6   Atom        0.029217      0.000000     -0.000000
     7   Atom       -0.040411      0.000000     -0.000000
     8   Atom       -0.022515      0.000000      0.000000
     9   Atom        0.023950      0.000000     -0.000000
    10   Atom       -0.009102      0.000000      0.000000
 --------------------------------------------------------


 ---------------------------------------------------------------------------------
              Anisotropic Spin Dipole Couplings in Principal Axis System
 ---------------------------------------------------------------------------------

       Atom             a.u.   MegaHertz   Gauss  10(-4) cm-1        Axes

              Baa    -0.0321   -17.111    -6.106    -5.708 -0.1563  0.9877  0.0000
     1 H(1)   Bbb     0.0052     2.763     0.986     0.922  0.0000  0.0000  1.0000
              Bcc     0.0269    14.348     5.120     4.786  0.9877  0.1563  0.0000
 
              Baa    -0.0450   -23.993    -8.561    -8.003  0.0000  0.0000  1.0000
     2 H(1)   Bbb    -0.0105    -5.605    -2.000    -1.870  0.9186  0.3951  0.0000
              Bcc     0.0555    29.599    10.562     9.873 -0.3951  0.9186  0.0000
 
              Baa    -0.0295   -15.727    -5.612    -5.246 -0.2881  0.9576  0.0000
     3 H(1)   Bbb    -0.0227   -12.085    -4.312    -4.031  0.0000  0.0000  1.0000
              Bcc     0.0521    27.812     9.924     9.277  0.9576  0.2881  0.0000
 
              Baa    -0.0500   -26.660    -9.513    -8.893 -0.3545  0.9350 -0.0000
     4 H(1)   Bbb    -0.0220   -11.721    -4.182    -3.910  0.0000  0.0000  1.0000
              Bcc     0.0719    38.381    13.695    12.802  0.9350  0.3545  0.0000
 
              Baa    -0.0244   -12.997    -4.638    -4.335  0.7492  0.6623  0.0000
     5 H(1)   Bbb    -0.0102    -5.419    -1.934    -1.808  0.0000  0.0000  1.0000
              Bcc     0.0345    18.417     6.572     6.143 -0.6623  0.7492  0.0000
 
              Baa    -0.0345   -18.417    -6.572    -6.143 -0.6623  0.7492  0.0000
     6 H(1)   Bbb     0.0102     5.419     1.934     1.808  0.0000  0.0000  1.0000
              Bcc     0.0244    12.997     4.638     4.335  0.7492  0.6623  0.0000
 
              Baa    -0.0719   -38.381   -13.695   -12.802  0.9350  0.3545  0.0000
     7 H(1)   Bbb     0.0220    11.721     4.182     3.910  0.0000  0.0000  1.0000
              Bcc     0.0500    26.660     9.513     8.893 -0.3545  0.9350  0.0000
 
              Baa    -0.0521   -27.812    -9.924    -9.277  0.9576  0.2881  0.0000
     8 H(1)   Bbb     0.0227    12.085     4.312     4.031  0.0000  0.0000  1.0000
              Bcc     0.0295    15.727     5.612     5.246 -0.2881  0.9576 -0.0000
 
              Baa    -0.0555   -29.599   -10.562    -9.873 -0.3951  0.9186  0.0000
     9 H(1)   Bbb     0.0105     5.605     2.000     1.870  0.9186  0.3951  0.0000
              Bcc     0.0450    23.993     8.561     8.003  0.0000  0.0000  1.0000
 
              Baa    -0.0269   -14.348    -5.120    -4.786  0.9877  0.1563  0.0000
    10 H(1)   Bbb    -0.0052    -2.763    -0.986    -0.922  0.0000  0.0000  1.0000
              Bcc     0.0321    17.111     6.106     5.708 -0.1563  0.9877 -0.0000
 

 ---------------------------------------------------------------------------------


 Test job not archived.
 1\1\GINC-SULU\Stability\UHF\Gen\H10\LCJ1\22-Feb-2017\0\\#uhf/gen scf(t
 ight,novaracc,noincfock,fulldiag) stable(crhf) guess=read geom=nocrowd
  test\\hf stability analysis of h10 triangular lattice, y= 0.512946083
 52666027 alpha= 24.500000000000000\\0,1\H\H,1,1.2369289329\H,1,1.23692
 89329,2,131.\H,2,1.2369289329,1,49.,3,0.,0\H,3,1.2369289329,1,180.,2,0
 .,0\H,4,1.2369289329,2,180.,1,0.,0\H,5,1.2369289329,3,180.,2,0.,0\H,6,
 1.2369289329,4,180.,1,0.,0\H,7,1.2369289329,5,180.,2,0.,0\H,8,1.236928
 9329,6,180.,1,0.,0\\Version=ES64L-G09RevE.01\HF=-4.864235\MP2=-4.93984
 57\PUHF=-4.9250635\PMP2-0=-4.999256\S2=1.056754\S2-1=0.96121\S2A=1.479
 105\RMSD=5.202e-09\Dipole=0.,0.,0.\Quadrupole=0.169338,0.5744741,-0.74
 38121,0.,-0.2396536,0.\PG=C02H [SGH(H10)]\\@


 "PERFECTION IS NOT AN ACCIDENT"
         --  EAGLE ELECTRIC MANUFACTURING CO.,INC. NY
 Job cpu time:       0 days  0 hours  0 minutes  1.2 seconds.
 File lengths (MBytes):  RWF=     94 Int=      0 D2E=      0 Chk=      2 Scr=      2
 Normal termination of Gaussian 09 at Wed Feb 22 15:15:50 2017.
