 Entering Gaussian System, Link 0=g09
 AtFile(1): H.gbs
            H     0
            S   10   1.00
               1000.000000000000            0.000068713567
                316.227766000000            0.000169141320
                100.000000000000            0.000823394812
                 31.622776600000            0.003425569236
                 10.000000000000            0.013951996000
                  3.162277660000            0.056909313560
                  1.000000000000            0.198286399900
                  0.316227766000            0.496922426700
                  0.100000000000            0.369846276400
                  0.031622776600            0.003752720039
            ****
 Initial command:
 /projects/guscus/apps/gau/g09-e1/g09/l1.exe "/users/lcj1/gaussian/h10/2rows_uhf/ag2bu3/follow20/Gau-7048.inp" -scrdir="/users/lcj1/gaussian/h10/2rows_uhf/ag2bu3/follow20/"
 Entering Link 1 = /projects/guscus/apps/gau/g09-e1/g09/l1.exe PID=      7049.
  
 Copyright (c) 1988,1990,1992,1993,1995,1998,2003,2009,2015,
            Gaussian, Inc.  All Rights Reserved.
  
 This is part of the Gaussian(R) 09 program.  It is based on
 the Gaussian(R) 03 system (copyright 2003, Gaussian, Inc.),
 the Gaussian(R) 98 system (copyright 1998, Gaussian, Inc.),
 the Gaussian(R) 94 system (copyright 1995, Gaussian, Inc.),
 the Gaussian 92(TM) system (copyright 1992, Gaussian, Inc.),
 the Gaussian 90(TM) system (copyright 1990, Gaussian, Inc.),
 the Gaussian 88(TM) system (copyright 1988, Gaussian, Inc.),
 the Gaussian 86(TM) system (copyright 1986, Carnegie Mellon
 University), and the Gaussian 82(TM) system (copyright 1983,
 Carnegie Mellon University). Gaussian is a federally registered
 trademark of Gaussian, Inc.
  
 This software contains proprietary and confidential information,
 including trade secrets, belonging to Gaussian, Inc.
  
 This software is provided under written license and may be
 used, copied, transmitted, or stored only in accord with that
 written license.
  
 The following legend is applicable only to US Government
 contracts under FAR:
  
                    RESTRICTED RIGHTS LEGEND
  
 Use, reproduction and disclosure by the US Government is
 subject to restrictions as set forth in subparagraphs (a)
 and (c) of the Commercial Computer Software - Restricted
 Rights clause in FAR 52.227-19.
  
 Gaussian, Inc.
 340 Quinnipiac St., Bldg. 40, Wallingford CT 06492
  
  
 ---------------------------------------------------------------
 Warning -- This program may not be used in any manner that
 competes with the business of Gaussian, Inc. or will provide
 assistance to any competitor of Gaussian, Inc.  The licensee
 of this program is prohibited from giving any competitor of
 Gaussian, Inc. access to this program.  By using this program,
 the user acknowledges that Gaussian, Inc. is engaged in the
 business of creating and licensing software in the field of
 computational chemistry and represents and warrants to the
 licensee that it is not a competitor of Gaussian, Inc. and that
 it will not use this program in any manner prohibited above.
 ---------------------------------------------------------------
  

 Cite this work as:
 Gaussian 09, Revision E.01,
 M. J. Frisch, G. W. Trucks, H. B. Schlegel, G. E. Scuseria, 
 M. A. Robb, J. R. Cheeseman, G. Scalmani, V. Barone, B. Mennucci, 
 G. A. Petersson, H. Nakatsuji, M. Caricato, X. Li, H. P. Hratchian, 
 A. F. Izmaylov, J. Bloino, G. Zheng, J. L. Sonnenberg, M. Hada, 
 M. Ehara, K. Toyota, R. Fukuda, J. Hasegawa, M. Ishida, T. Nakajima, 
 Y. Honda, O. Kitao, H. Nakai, T. Vreven, J. A. Montgomery, Jr., 
 J. E. Peralta, F. Ogliaro, M. Bearpark, J. J. Heyd, E. Brothers, 
 K. N. Kudin, V. N. Staroverov, T. Keith, R. Kobayashi, J. Normand, 
 K. Raghavachari, A. Rendell, J. C. Burant, S. S. Iyengar, J. Tomasi, 
 M. Cossi, N. Rega, J. M. Millam, M. Klene, J. E. Knox, J. B. Cross, 
 V. Bakken, C. Adamo, J. Jaramillo, R. Gomperts, R. E. Stratmann, 
 O. Yazyev, A. J. Austin, R. Cammi, C. Pomelli, J. W. Ochterski, 
 R. L. Martin, K. Morokuma, V. G. Zakrzewski, G. A. Voth, 
 P. Salvador, J. J. Dannenberg, S. Dapprich, A. D. Daniels, 
 O. Farkas, J. B. Foresman, J. V. Ortiz, J. Cioslowski, 
 and D. J. Fox, Gaussian, Inc., Wallingford CT, 2013.
 
 ******************************************
 Gaussian 09:  ES64L-G09RevE.01 30-Nov-2015
                22-Feb-2017 
 ******************************************
 %chk=h10.chk
 ----------------------------------------------------------------------
 #uhf/gen scf(tight,novaracc,noincfock,fulldiag) stable(crhf) guess=rea
 d geom=nocrowd test
 ----------------------------------------------------------------------
 1/38=1/1;
 2/12=1,17=6,18=5,40=1/2;
 3/5=7,16=1,25=1,30=1,116=2/1,2,3;
 4/5=1/1;
 5/5=100002,16=1,32=2,38=6/2;
 8/6=1,10=90,11=11/1,4;
 9/8=4,13=1/2;
 6/7=2,8=2,9=2,10=2,28=1/1;
 99/5=1,9=1/99;
 ----------------------------------------------------------------------
 hf stability analysis of h10 triangular lattice, y= 0.3503135618487248
 1 alpha= 12.000000000000000
 ----------------------------------------------------------------------
 Symbolic Z-matrix:
 Charge =  0 Multiplicity = 1
 H
 H                    1     1.68492 
 H                    1     1.68492  2     156. 
 H                    2     1.68492  1     24.      3     0.       0
 H                    3     1.68492  1     180.     2     0.       0
 H                    4     1.68492  2     180.     1     0.       0
 H                    5     1.68492  3     180.     2     0.       0
 H                    6     1.68492  4     180.     1     0.       0
 H                    7     1.68492  5     180.     2     0.       0
 H                    8     1.68492  6     180.     1     0.       0
 
                          Input orientation:                          
 ---------------------------------------------------------------------
 Center     Atomic      Atomic             Coordinates (Angstroms)
 Number     Number       Type             X           Y           Z
 ---------------------------------------------------------------------
      1          1           0        0.000000    0.000000    0.000000
      2          1           0        0.000000    0.000000    1.684915
      3          1           0        0.685317    0.000000   -1.539247
      4          1           0        0.685317    0.000000    0.145669
      5          1           0        1.370633    0.000000   -3.078493
      6          1           0        1.370633    0.000000   -1.393578
      7          1           0        2.055950    0.000000   -4.617740
      8          1           0        2.055950    0.000000   -2.932825
      9          1           0        2.741267    0.000000   -6.156986
     10          1           0        2.741267    0.000000   -4.472071
 ---------------------------------------------------------------------
                    Distance matrix (angstroms):
                    1          2          3          4          5
     1  H    0.000000
     2  H    1.684915   0.000000
     3  H    1.684915   3.296191   0.000000
     4  H    0.700627   1.684915   1.684915   0.000000
     5  H    3.369830   4.956682   1.684915   3.296191   0.000000
     6  H    1.954660   3.369830   0.700627   1.684915   1.684915
     7  H    5.054745   6.629509   3.369830   4.956682   1.684915
     8  H    3.581674   5.054745   1.954660   3.369830   0.700627
     9  H    6.739660   8.307223   5.054745   6.629509   3.369830
    10  H    5.245375   6.739660   3.581674   5.054745   1.954660
                    6          7          8          9         10
     6  H    0.000000
     7  H    3.296191   0.000000
     8  H    1.684915   1.684915   0.000000
     9  H    4.956682   1.684915   3.296191   0.000000
    10  H    3.369830   0.700627   1.684915   1.684915   0.000000
 Stoichiometry    H10
 Framework group  C2H[SGH(H10)]
 Deg. of freedom     9
 Full point group                 C2H     NOp   4
 Largest Abelian subgroup         C2H     NOp   4
 Largest concise Abelian subgroup C2      NOp   2
                         Standard orientation:                         
 ---------------------------------------------------------------------
 Center     Atomic      Atomic             Coordinates (Angstroms)
 Number     Number       Type             X           Y           Z
 ---------------------------------------------------------------------
      1          1           0        1.370633   -2.236036    0.000000
      2          1           0        1.370633   -3.920951    0.000000
      3          1           0        0.685317   -0.696789    0.000000
      4          1           0        0.685317   -2.381704    0.000000
      5          1           0        0.000000    0.842458    0.000000
      6          1           0       -0.000000   -0.842458    0.000000
      7          1           0       -0.685317    2.381704    0.000000
      8          1           0       -0.685317    0.696789    0.000000
      9          1           0       -1.370633    3.920951    0.000000
     10          1           0       -1.370633    2.236036    0.000000
 ---------------------------------------------------------------------
 Rotational constants (GHZ):    472.4820979      7.9830717      7.8504306
 General basis read from cards:  (5D, 7F)
 There are     5 symmetry adapted cartesian basis functions of AG  symmetry.
 There are     0 symmetry adapted cartesian basis functions of BG  symmetry.
 There are     0 symmetry adapted cartesian basis functions of AU  symmetry.
 There are     5 symmetry adapted cartesian basis functions of BU  symmetry.
 There are     5 symmetry adapted basis functions of AG  symmetry.
 There are     0 symmetry adapted basis functions of BG  symmetry.
 There are     0 symmetry adapted basis functions of AU  symmetry.
 There are     5 symmetry adapted basis functions of BU  symmetry.
    10 basis functions,   100 primitive gaussians,    10 cartesian basis functions
     5 alpha electrons        5 beta electrons
       nuclear repulsion energy        11.0163819318 Hartrees.
 NAtoms=   10 NActive=   10 NUniq=    5 SFac= 4.00D+00 NAtFMM=   60 NAOKFM=F Big=F
 Integral buffers will be    131072 words long.
 Regular integral format.
 Two-electron integral symmetry is turned on.
 One-electron integrals computed using PRISM.
 NBasis=    10 RedAO= T EigKep=  1.61D-01  NBF=     5     0     0     5
 NBsUse=    10 1.00D-06 EigRej= -1.00D+00 NBFU=     5     0     0     5
 Initial guess from the checkpoint file:  "h10.chk"
 B after Tr=     0.000000   -0.000000   -0.000000
         Rot=    0.999992    0.000000    0.000000   -0.003879 Ang=  -0.44 deg.
 Initial guess orbital symmetries:
 Alpha Orbitals:
       Occupied  (BG) (BG) (BG) (BG) (BG)
       Virtual   (BG) (BG) (BG) (BG) (BG)
 Beta  Orbitals:
       Occupied  (BG) (BG) (BG) (BG) (BG)
       Virtual   (BG) (BG) (BG) (BG) (BG)
 Initial guess <Sx>= 0.0000 <Sy>= 0.0000 <Sz>= 0.0000 <S**2>= 1.0000 S= 0.6180
 Keep R1 and R2 ints in memory in symmetry-blocked form, NReq=874427.
 Requested convergence on RMS density matrix=1.00D-08 within 128 cycles.
 Requested convergence on MAX density matrix=1.00D-06.
 Requested convergence on             energy=1.00D-06.
 No special actions if energy rises.
 An orbital has undefined symmetry, so N**3 symmetry is turned off.
 Density matrix breaks symmetry, PCut= 1.00D-04
 Density matrix has no symmetry -- integrals replicated.
 Density matrix breaks symmetry, PCut= 1.00D-07
 Density matrix has no symmetry -- integrals replicated.
 Density matrix breaks symmetry, PCut= 1.00D-07
 Density matrix has no symmetry -- integrals replicated.
 Density matrix breaks symmetry, PCut= 1.00D-07
 Density matrix has no symmetry -- integrals replicated.
 Density matrix breaks symmetry, PCut= 1.00D-07
 Density matrix has no symmetry -- integrals replicated.
 Density matrix breaks symmetry, PCut= 1.00D-07
 Density matrix has no symmetry -- integrals replicated.
 Density matrix breaks symmetry, PCut= 1.00D-07
 Density matrix has no symmetry -- integrals replicated.
 Density matrix breaks symmetry, PCut= 1.00D-07
 Density matrix has no symmetry -- integrals replicated.
 Density matrix breaks symmetry, PCut= 1.00D-07
 Density matrix has no symmetry -- integrals replicated.
 Density matrix breaks symmetry, PCut= 1.00D-07
 Density matrix has no symmetry -- integrals replicated.
 SCF Done:  E(UHF) =  -5.19536409135     A.U. after    9 cycles
            NFock=  9  Conv=0.59D-08     -V/T= 2.0179
 <Sx>= 0.0000 <Sy>= 0.0000 <Sz>= 0.0000 <S**2>= 1.0000 S= 0.6180
 <L.S>= 0.000000000000E+00
 Annihilation of the first spin contaminant:
 S**2 before annihilation     1.0000,   after     0.0002
 Range of M.O.s used for correlation:     1    10
 NBasis=    10 NAE=     5 NBE=     5 NFC=     0 NFV=     0
 NROrb=     10 NOA=     5 NOB=     5 NVA=     5 NVB=     5
 Semi-Direct transformation.
 ModeAB=           2 MOrb=             5 LenV=     134112121
 LASXX=         1030 LTotXX=        1030 LenRXX=        1030
 LTotAB=        1825 MaxLAS=        2750 LenRXY=        2750
 NonZer=        2750 LenScr=      655360 LnRSAI=           0
 LnScr1=           0 LExtra=           0 Total=       659140
 MaxDsk=          -1 SrtSym=           F ITran=            3
 JobTyp=1 Pass  1:  I=   1 to   5.
 (rs|ai) integrals will be sorted in core.
 ModeAB=           2 MOrb=             5 LenV=     134112121
 LASXX=         1030 LTotXX=        1030 LenRXX=        2750
 LTotAB=         225 MaxLAS=        2750 LenRXY=         225
 NonZer=        2750 LenScr=      655360 LnRSAI=           0
 LnScr1=           0 LExtra=           0 Total=       658335
 MaxDsk=          -1 SrtSym=           F ITran=            3
 JobTyp=2 Pass  1:  I=   1 to   5.
 (rs|ai) integrals will be sorted in core.
 SymMOI:  orbitals are not symmetric.
 Spin components of T(2) and E(2):
     alpha-alpha T2 =       0.2629828498D-03 E2=     -0.5701959268D-03
     alpha-beta  T2 =       0.1963380919D-01 E2=     -0.4219827462D-01
     beta-beta   T2 =       0.2629828498D-03 E2=     -0.5701959268D-03
 ANorm=    0.1010029591D+01
 E2 =    -0.4333866647D-01 EUMP2 =    -0.52387027578266D+01
 (S**2,0)=  0.10000D+01           (S**2,1)=  0.99997D+00
 E(PUHF)=      -0.51953830847D+01        E(PMP2)=      -0.52387217509D+01
 Second order stability test of a single determinant UHF wave function:
 Stabil:  MDV=134217728
 ***********************************************************************
 Matrix         Lowest Root    Major Pairs
 ***********************************************************************
 Internal UHF     0.2590351    Stable
 RUHF --> CUHF (A)0.4450254    Stable
 RUHF --> CUHF (B)0.4450254    Stable
 RUHF --> GHF    0.            Zero root
 Stable under the perturbations considered.
 ***********************************************************************

 **********************************************************************

            Population analysis using the SCF density.

 **********************************************************************

 Orbital symmetries:
 Alpha Orbitals:
       Occupied  (BG) (BG) (BG) (BG) (BG)
       Virtual   (BG) (BG) (BG) (BG) (BG)
 Beta  Orbitals:
       Occupied  (BG) (BG) (BG) (BG) (BG)
       Virtual   (BG) (BG) (BG) (BG) (BG)
 Unable to determine electronic state:  partially filled degenerate orbitals.
 Alpha  occ. eigenvalues --   -0.74213  -0.69710  -0.62215  -0.52978  -0.43901
 Alpha virt. eigenvalues --    0.16999   0.28309   0.37663   0.51924   0.66156
  Beta  occ. eigenvalues --   -0.74213  -0.69710  -0.62215  -0.52978  -0.43901
  Beta virt. eigenvalues --    0.16999   0.28309   0.37663   0.51924   0.66156
          Condensed to atoms (all electrons):
               1          2          3          4          5          6
     1  H    0.679308  -0.066922  -0.074724   0.522142   0.002005  -0.059622
     2  H   -0.066922   1.132931   0.001006  -0.064098   0.000000   0.001680
     3  H   -0.074724   0.001006   0.719735  -0.066320  -0.077447   0.555545
     4  H    0.522142  -0.064098  -0.066320   0.671364   0.001567  -0.072737
     5  H    0.002005   0.000000  -0.077447   0.001567   0.717709  -0.070739
     6  H   -0.059622   0.001680   0.555545  -0.072737  -0.070739   0.717709
     7  H   -0.000023  -0.000000   0.001886  -0.000010  -0.072737   0.001567
     8  H    0.001816  -0.000014  -0.061746   0.001886   0.555545  -0.077447
     9  H   -0.000000   0.000000  -0.000014  -0.000000   0.001680   0.000000
    10  H   -0.000027  -0.000000   0.001816  -0.000023  -0.059622   0.002005
               7          8          9         10
     1  H   -0.000023   0.001816  -0.000000  -0.000027
     2  H   -0.000000  -0.000014   0.000000  -0.000000
     3  H    0.001886  -0.061746  -0.000014   0.001816
     4  H   -0.000010   0.001886  -0.000000  -0.000023
     5  H   -0.072737   0.555545   0.001680  -0.059622
     6  H    0.001567  -0.077447   0.000000   0.002005
     7  H    0.671364  -0.066320  -0.064098   0.522142
     8  H   -0.066320   0.719735   0.001006  -0.074724
     9  H   -0.064098   0.001006   1.132931  -0.066922
    10  H    0.522142  -0.074724  -0.066922   0.679308
          Atomic-Atomic Spin Densities.
               1          2          3          4          5          6
     1  H    0.050431  -0.072177  -0.003118   0.034443   0.000093  -0.004086
     2  H   -0.072177   1.131589   0.002147  -0.069049  -0.000039   0.002691
     3  H   -0.003118   0.002147  -0.002559  -0.002611   0.000722   0.002577
     4  H    0.034443  -0.069049  -0.002611   0.038689   0.000092  -0.004901
     5  H    0.000093  -0.000039   0.000722   0.000092  -0.009671  -0.000000
     6  H   -0.004086   0.002691   0.002577  -0.004901  -0.000000   0.009671
     7  H    0.000001   0.000000  -0.000147  -0.000000   0.004901  -0.000092
     8  H    0.000122  -0.000048  -0.000000   0.000147  -0.002577  -0.000722
     9  H   -0.000001  -0.000000   0.000048  -0.000000  -0.002691   0.000039
    10  H    0.000000   0.000001  -0.000122  -0.000001   0.004086  -0.000093
               7          8          9         10
     1  H    0.000001   0.000122  -0.000001   0.000000
     2  H    0.000000  -0.000048  -0.000000   0.000001
     3  H   -0.000147  -0.000000   0.000048  -0.000122
     4  H   -0.000000   0.000147  -0.000000  -0.000001
     5  H    0.004901  -0.002577  -0.002691   0.004086
     6  H   -0.000092  -0.000722   0.000039  -0.000093
     7  H   -0.038689   0.002611   0.069049  -0.034443
     8  H    0.002611   0.002559  -0.002147   0.003118
     9  H    0.069049  -0.002147  -1.131589   0.072177
    10  H   -0.034443   0.003118   0.072177  -0.050431
 Mulliken charges and spin densities:
               1          2
     1  H   -0.003952   0.005708
     2  H   -0.004583   0.995113
     3  H    0.000265  -0.003064
     4  H    0.006231  -0.003191
     5  H    0.002039  -0.005083
     6  H    0.002039   0.005083
     7  H    0.006231   0.003191
     8  H    0.000265   0.003064
     9  H   -0.004583  -0.995113
    10  H   -0.003952  -0.005708
 Sum of Mulliken charges =  -0.00000   0.00000
 Mulliken charges and spin densities with hydrogens summed into heavy atoms:
               1          2
 Electronic spatial extent (au):  <R**2>=            260.2680
 Charge=             -0.0000 electrons
 Dipole moment (field-independent basis, Debye):
    X=             -0.0000    Y=              0.0000    Z=             -0.0000  Tot=              0.0000
 Quadrupole moment (field-independent basis, Debye-Ang):
   XX=            -12.2084   YY=            -18.1222   ZZ=            -12.9287
   XY=              2.3447   XZ=             -0.0000   YZ=             -0.0000
 Traceless Quadrupole moment (field-independent basis, Debye-Ang):
   XX=              2.2114   YY=             -3.7024   ZZ=              1.4910
   XY=              2.3447   XZ=             -0.0000   YZ=             -0.0000
 Octapole moment (field-independent basis, Debye-Ang**2):
  XXX=             -0.0000  YYY=              0.0000  ZZZ=             -0.0000  XYY=             -0.0000
  XXY=              0.0000  XXZ=             -0.0000  XZZ=             -0.0000  YZZ=              0.0000
  YYZ=             -0.0000  XYZ=              0.0000
 Hexadecapole moment (field-independent basis, Debye-Ang**3):
 XXXX=            -84.5070 YYYY=           -569.8892 ZZZZ=            -15.6516 XXXY=             84.7655
 XXXZ=              0.0000 YYYX=            128.6623 YYYZ=             -0.0000 ZZZX=              0.0000
 ZZZY=             -0.0000 XXYY=           -101.6330 XXZZ=            -17.2629 YYZZ=            -77.9026
 XXYZ=             -0.0000 YYXZ=              0.0000 ZZXY=             28.2694
 N-N= 1.101638193181D+01 E-N=-3.146706050712D+01  KE= 5.103923550892D+00
 Symmetry AG   KE= 2.228428995619D+00
 Symmetry BG   KE= 0.000000000000D+00
 Symmetry AU   KE= 0.000000000000D+00
 Symmetry BU   KE= 2.875494555274D+00
                          Isotropic Fermi Contact Couplings
        Atom                 a.u.       MegaHertz       Gauss      10(-4) cm-1
     1  H(1)               0.01666      37.22826      13.28397      12.41801
     2  H(1)               0.34179     763.88806     272.57424     254.80563
     3  H(1)              -0.00052      -1.15769      -0.41309      -0.38616
     4  H(1)               0.01333      29.79642      10.63210       9.93902
     5  H(1)              -0.00283      -6.31519      -2.25342      -2.10652
     6  H(1)               0.00283       6.31519       2.25342       2.10652
     7  H(1)              -0.01333     -29.79642     -10.63210      -9.93902
     8  H(1)               0.00052       1.15769       0.41309       0.38616
     9  H(1)              -0.34179    -763.88806    -272.57424    -254.80563
    10  H(1)              -0.01666     -37.22826     -13.28397     -12.41801
 --------------------------------------------------------
       Center         ----  Spin Dipole Couplings  ----
                      3XX-RR        3YY-RR        3ZZ-RR
 --------------------------------------------------------
     1   Atom       -0.009285      0.035190     -0.025906
     2   Atom        0.004993     -0.011894      0.006901
     3   Atom       -0.001380      0.006348     -0.004968
     4   Atom        0.000271      0.026951     -0.027222
     5   Atom        0.000844     -0.003709      0.002866
     6   Atom       -0.000844      0.003709     -0.002866
     7   Atom       -0.000271     -0.026951      0.027222
     8   Atom        0.001380     -0.006348      0.004968
     9   Atom       -0.004993      0.011894     -0.006901
    10   Atom        0.009285     -0.035190      0.025906
 --------------------------------------------------------
                        XY            XZ            YZ
 --------------------------------------------------------
     1   Atom        0.000073      0.000000     -0.000000
     2   Atom        0.003885      0.000000     -0.000000
     3   Atom       -0.001550      0.000000     -0.000000
     4   Atom       -0.014846      0.000000     -0.000000
     5   Atom        0.004131      0.000000     -0.000000
     6   Atom       -0.004131      0.000000     -0.000000
     7   Atom        0.014846      0.000000     -0.000000
     8   Atom        0.001550      0.000000     -0.000000
     9   Atom       -0.003885     -0.000000      0.000000
    10   Atom       -0.000073      0.000000      0.000000
 --------------------------------------------------------


 ---------------------------------------------------------------------------------
              Anisotropic Spin Dipole Couplings in Principal Axis System
 ---------------------------------------------------------------------------------

       Atom             a.u.   MegaHertz   Gauss  10(-4) cm-1        Axes

              Baa    -0.0259   -13.822    -4.932    -4.611  0.0000  0.0000  1.0000
     1 H(1)   Bbb    -0.0093    -4.954    -1.768    -1.652  1.0000 -0.0016  0.0000
              Bcc     0.0352    18.776     6.700     6.263  0.0016  1.0000  0.0000
 
              Baa    -0.0127    -6.800    -2.426    -2.268 -0.2140  0.9768  0.0000
     2 H(1)   Bbb     0.0058     3.118     1.113     1.040  0.9768  0.2140  0.0000
              Bcc     0.0069     3.682     1.314     1.228  0.0000  0.0000  1.0000
 
              Baa    -0.0050    -2.651    -0.946    -0.884  0.0000  0.0000  1.0000
     3 H(1)   Bbb    -0.0017    -0.896    -0.320    -0.299  0.9819  0.1896  0.0000
              Bcc     0.0066     3.546     1.265     1.183 -0.1896  0.9819  0.0000
 
              Baa    -0.0272   -14.524    -5.183    -4.845  0.0000  0.0000  1.0000
     4 H(1)   Bbb    -0.0063    -3.387    -1.209    -1.130  0.9133  0.4072  0.0000
              Bcc     0.0336    17.911     6.391     5.975 -0.4072  0.9133  0.0000
 
              Baa    -0.0061    -3.281    -1.171    -1.094 -0.5086  0.8610  0.0000
     5 H(1)   Bbb     0.0029     1.529     0.546     0.510  0.0000  0.0000  1.0000
              Bcc     0.0033     1.752     0.625     0.584  0.8610  0.5086  0.0000
 
              Baa    -0.0033    -1.752    -0.625    -0.584  0.8610  0.5086  0.0000
     6 H(1)   Bbb    -0.0029    -1.529    -0.546    -0.510  0.0000  0.0000  1.0000
              Bcc     0.0061     3.281     1.171     1.094 -0.5086  0.8610  0.0000
 
              Baa    -0.0336   -17.911    -6.391    -5.975 -0.4072  0.9133  0.0000
     7 H(1)   Bbb     0.0063     3.387     1.209     1.130  0.9133  0.4072  0.0000
              Bcc     0.0272    14.524     5.183     4.845  0.0000  0.0000  1.0000
 
              Baa    -0.0066    -3.546    -1.265    -1.183 -0.1896  0.9819  0.0000
     8 H(1)   Bbb     0.0017     0.896     0.320     0.299  0.9819  0.1896  0.0000
              Bcc     0.0050     2.651     0.946     0.884  0.0000  0.0000  1.0000
 
              Baa    -0.0069    -3.682    -1.314    -1.228  0.0000  0.0000  1.0000
     9 H(1)   Bbb    -0.0058    -3.118    -1.113    -1.040  0.9768  0.2140  0.0000
              Bcc     0.0127     6.800     2.426     2.268 -0.2140  0.9768  0.0000
 
              Baa    -0.0352   -18.776    -6.700    -6.263  0.0016  1.0000 -0.0000
    10 H(1)   Bbb     0.0093     4.954     1.768     1.652  1.0000 -0.0016  0.0000
              Bcc     0.0259    13.822     4.932     4.611  0.0000  0.0000  1.0000
 

 ---------------------------------------------------------------------------------


 Test job not archived.
 1\1\GINC-SULU\Stability\UHF\Gen\H10\LCJ1\22-Feb-2017\0\\#uhf/gen scf(t
 ight,novaracc,noincfock,fulldiag) stable(crhf) guess=read geom=nocrowd
  test\\hf stability analysis of h10 triangular lattice, y= 0.350313561
 84872481 alpha= 12.000000000000000\\0,1\H\H,1,1.6849151237\H,1,1.68491
 51237,2,156.\H,2,1.6849151237,1,24.,3,0.,0\H,3,1.6849151237,1,180.,2,0
 .,0\H,4,1.6849151237,2,180.,1,0.,0\H,5,1.6849151237,3,180.,2,0.,0\H,6,
 1.6849151237,4,180.,1,0.,0\H,7,1.6849151237,5,180.,2,0.,0\H,8,1.684915
 1237,6,180.,1,0.,0\\Version=ES64L-G09RevE.01\HF=-5.1953641\MP2=-5.2387
 028\PUHF=-5.1953831\PMP2-0=-5.2387218\S2=1.000001\S2-1=0.999974\S2A=0.
 000232\RMSD=5.922e-09\Dipole=0.,0.,0.\Quadrupole=1.6441179,1.1085577,-
 2.7526756,0.,1.7432332,0.\PG=C02H [SGH(H10)]\\@


  THE LARGE PRINT GIVETH,
  AND THE SMALL PRINT TAKETH AWAY.

                     -- TOM WAITS
 Job cpu time:       0 days  0 hours  0 minutes  1.2 seconds.
 File lengths (MBytes):  RWF=     94 Int=      0 D2E=      0 Chk=      2 Scr=      2
 Normal termination of Gaussian 09 at Wed Feb 22 15:13:29 2017.
