 Entering Gaussian System, Link 0=g09
 AtFile(1): H.gbs
            H     0
            S   10   1.00
               1000.000000000000            0.000068713567
                316.227766000000            0.000169141320
                100.000000000000            0.000823394812
                 31.622776600000            0.003425569236
                 10.000000000000            0.013951996000
                  3.162277660000            0.056909313560
                  1.000000000000            0.198286399900
                  0.316227766000            0.496922426700
                  0.100000000000            0.369846276400
                  0.031622776600            0.003752720039
            ****
 Initial command:
 /projects/guscus/apps/gau/g09-e1/g09/l1.exe "/users/lcj1/gaussian/h10/2rows_uhf/ag2bu3/follow20/Gau-12120.inp" -scrdir="/users/lcj1/gaussian/h10/2rows_uhf/ag2bu3/follow20/"
 Entering Link 1 = /projects/guscus/apps/gau/g09-e1/g09/l1.exe PID=     12121.
  
 Copyright (c) 1988,1990,1992,1993,1995,1998,2003,2009,2015,
            Gaussian, Inc.  All Rights Reserved.
  
 This is part of the Gaussian(R) 09 program.  It is based on
 the Gaussian(R) 03 system (copyright 2003, Gaussian, Inc.),
 the Gaussian(R) 98 system (copyright 1998, Gaussian, Inc.),
 the Gaussian(R) 94 system (copyright 1995, Gaussian, Inc.),
 the Gaussian 92(TM) system (copyright 1992, Gaussian, Inc.),
 the Gaussian 90(TM) system (copyright 1990, Gaussian, Inc.),
 the Gaussian 88(TM) system (copyright 1988, Gaussian, Inc.),
 the Gaussian 86(TM) system (copyright 1986, Carnegie Mellon
 University), and the Gaussian 82(TM) system (copyright 1983,
 Carnegie Mellon University). Gaussian is a federally registered
 trademark of Gaussian, Inc.
  
 This software contains proprietary and confidential information,
 including trade secrets, belonging to Gaussian, Inc.
  
 This software is provided under written license and may be
 used, copied, transmitted, or stored only in accord with that
 written license.
  
 The following legend is applicable only to US Government
 contracts under FAR:
  
                    RESTRICTED RIGHTS LEGEND
  
 Use, reproduction and disclosure by the US Government is
 subject to restrictions as set forth in subparagraphs (a)
 and (c) of the Commercial Computer Software - Restricted
 Rights clause in FAR 52.227-19.
  
 Gaussian, Inc.
 340 Quinnipiac St., Bldg. 40, Wallingford CT 06492
  
  
 ---------------------------------------------------------------
 Warning -- This program may not be used in any manner that
 competes with the business of Gaussian, Inc. or will provide
 assistance to any competitor of Gaussian, Inc.  The licensee
 of this program is prohibited from giving any competitor of
 Gaussian, Inc. access to this program.  By using this program,
 the user acknowledges that Gaussian, Inc. is engaged in the
 business of creating and licensing software in the field of
 computational chemistry and represents and warrants to the
 licensee that it is not a competitor of Gaussian, Inc. and that
 it will not use this program in any manner prohibited above.
 ---------------------------------------------------------------
  

 Cite this work as:
 Gaussian 09, Revision E.01,
 M. J. Frisch, G. W. Trucks, H. B. Schlegel, G. E. Scuseria, 
 M. A. Robb, J. R. Cheeseman, G. Scalmani, V. Barone, B. Mennucci, 
 G. A. Petersson, H. Nakatsuji, M. Caricato, X. Li, H. P. Hratchian, 
 A. F. Izmaylov, J. Bloino, G. Zheng, J. L. Sonnenberg, M. Hada, 
 M. Ehara, K. Toyota, R. Fukuda, J. Hasegawa, M. Ishida, T. Nakajima, 
 Y. Honda, O. Kitao, H. Nakai, T. Vreven, J. A. Montgomery, Jr., 
 J. E. Peralta, F. Ogliaro, M. Bearpark, J. J. Heyd, E. Brothers, 
 K. N. Kudin, V. N. Staroverov, T. Keith, R. Kobayashi, J. Normand, 
 K. Raghavachari, A. Rendell, J. C. Burant, S. S. Iyengar, J. Tomasi, 
 M. Cossi, N. Rega, J. M. Millam, M. Klene, J. E. Knox, J. B. Cross, 
 V. Bakken, C. Adamo, J. Jaramillo, R. Gomperts, R. E. Stratmann, 
 O. Yazyev, A. J. Austin, R. Cammi, C. Pomelli, J. W. Ochterski, 
 R. L. Martin, K. Morokuma, V. G. Zakrzewski, G. A. Voth, 
 P. Salvador, J. J. Dannenberg, S. Dapprich, A. D. Daniels, 
 O. Farkas, J. B. Foresman, J. V. Ortiz, J. Cioslowski, 
 and D. J. Fox, Gaussian, Inc., Wallingford CT, 2013.
 
 ******************************************
 Gaussian 09:  ES64L-G09RevE.01 30-Nov-2015
                22-Feb-2017 
 ******************************************
 %chk=h10.chk
 ----------------------------------------------------------------------
 #uhf/gen scf(tight,novaracc,noincfock,fulldiag) stable(crhf) guess=rea
 d geom=nocrowd test
 ----------------------------------------------------------------------
 1/38=1/1;
 2/12=1,17=6,18=5,40=1/2;
 3/5=7,16=1,25=1,30=1,116=2/1,2,3;
 4/5=1/1;
 5/5=100002,16=1,32=2,38=6/2;
 8/6=1,10=90,11=11/1,4;
 9/8=4,13=1/2;
 6/7=2,8=2,9=2,10=2,28=1/1;
 99/5=1,9=1/99;
 ----------------------------------------------------------------------
 hf stability analysis of h10 triangular lattice, y= 0.6299221068523126
 5 alpha= 34.500000000000000
 ----------------------------------------------------------------------
 Symbolic Z-matrix:
 Charge =  0 Multiplicity = 1
 H
 H                    1     1.11214 
 H                    1     1.11214  2     111. 
 H                    2     1.11214  1     69.      3     0.       0
 H                    3     1.11214  1     180.     2     0.       0
 H                    4     1.11214  2     180.     1     0.       0
 H                    5     1.11214  3     180.     2     0.       0
 H                    6     1.11214  4     180.     1     0.       0
 H                    7     1.11214  5     180.     2     0.       0
 H                    8     1.11214  6     180.     1     0.       0
 
                          Input orientation:                          
 ---------------------------------------------------------------------
 Center     Atomic      Atomic             Coordinates (Angstroms)
 Number     Number       Type             X           Y           Z
 ---------------------------------------------------------------------
      1          1           0        0.000000    0.000000    0.000000
      2          1           0        0.000000    0.000000    1.112138
      3          1           0        1.038271    0.000000   -0.398555
      4          1           0        1.038271    0.000000    0.713584
      5          1           0        2.076541    0.000000   -0.797109
      6          1           0        2.076541    0.000000    0.315029
      7          1           0        3.114812    0.000000   -1.195664
      8          1           0        3.114812    0.000000   -0.083526
      9          1           0        4.153082    0.000000   -1.594219
     10          1           0        4.153082    0.000000   -0.482081
 ---------------------------------------------------------------------
                    Distance matrix (angstroms):
                    1          2          3          4          5
     1  H    0.000000
     2  H    1.112138   0.000000
     3  H    1.112138   1.833085   0.000000
     4  H    1.259844   1.112138   1.112138   0.000000
     5  H    2.224277   2.820860   1.112138   1.833085   0.000000
     6  H    2.100302   2.224277   1.259844   1.112138   1.112138
     7  H    3.336415   3.876597   2.224277   2.820860   1.112138
     8  H    3.115931   3.336415   2.100302   2.224277   1.259844
     9  H    4.448553   4.957062   3.336415   3.876597   2.224277
    10  H    4.180968   4.448553   3.115931   3.336415   2.100302
                    6          7          8          9         10
     6  H    0.000000
     7  H    1.833085   0.000000
     8  H    1.112138   1.112138   0.000000
     9  H    2.820860   1.112138   1.833085   0.000000
    10  H    2.224277   1.259844   1.112138   1.112138   0.000000
 Stoichiometry    H10
 Framework group  C2H[SGH(H10)]
 Deg. of freedom     9
 Full point group                 C2H     NOp   4
 Largest Abelian subgroup         C2H     NOp   4
 Largest concise Abelian subgroup C2      NOp   2
                         Standard orientation:                         
 ---------------------------------------------------------------------
 Center     Atomic      Atomic             Coordinates (Angstroms)
 Number     Number       Type             X           Y           Z
 ---------------------------------------------------------------------
      1          1           0        2.076541   -0.241040    0.000000
      2          1           0        2.076541   -1.353179    0.000000
      3          1           0        1.038271    0.157514    0.000000
      4          1           0        1.038271   -0.954624    0.000000
      5          1           0       -0.000000    0.556069    0.000000
      6          1           0       -0.000000   -0.556069    0.000000
      7          1           0       -1.038271    0.954624   -0.000000
      8          1           0       -1.038271   -0.157514   -0.000000
      9          1           0       -2.076541    1.353179   -0.000000
     10          1           0       -2.076541    0.241040   -0.000000
 ---------------------------------------------------------------------
 Rotational constants (GHZ):    189.4127011     19.9134395     18.0190508
 General basis read from cards:  (5D, 7F)
 There are     5 symmetry adapted cartesian basis functions of AG  symmetry.
 There are     0 symmetry adapted cartesian basis functions of BG  symmetry.
 There are     0 symmetry adapted cartesian basis functions of AU  symmetry.
 There are     5 symmetry adapted cartesian basis functions of BU  symmetry.
 There are     5 symmetry adapted basis functions of AG  symmetry.
 There are     0 symmetry adapted basis functions of BG  symmetry.
 There are     0 symmetry adapted basis functions of AU  symmetry.
 There are     5 symmetry adapted basis functions of BU  symmetry.
    10 basis functions,   100 primitive gaussians,    10 cartesian basis functions
     5 alpha electrons        5 beta electrons
       nuclear repulsion energy        13.4849422239 Hartrees.
 NAtoms=   10 NActive=   10 NUniq=    5 SFac= 4.00D+00 NAtFMM=   60 NAOKFM=F Big=F
 Integral buffers will be    131072 words long.
 Regular integral format.
 Two-electron integral symmetry is turned on.
 One-electron integrals computed using PRISM.
 NBasis=    10 RedAO= T EigKep=  1.54D-01  NBF=     5     0     0     5
 NBsUse=    10 1.00D-06 EigRej= -1.00D+00 NBFU=     5     0     0     5
 Initial guess from the checkpoint file:  "h10.chk"
 B after Tr=     0.000000    0.000000    0.000000
         Rot=    0.999992    0.000000   -0.000000   -0.003879 Ang=  -0.44 deg.
 Initial guess orbital symmetries:
 Alpha Orbitals:
       Occupied  (BG) (BG) (BG) (BG) (BG)
       Virtual   (BG) (BG) (BG) (BG) (BG)
 Beta  Orbitals:
       Occupied  (BG) (BG) (BG) (BG) (BG)
       Virtual   (BG) (BG) (BG) (BG) (BG)
 Initial guess <Sx>= 0.0000 <Sy>= 0.0000 <Sz>= 0.0000 <S**2>= 1.3183 S= 0.7523
 Keep R1 and R2 ints in memory in symmetry-blocked form, NReq=879509.
 Requested convergence on RMS density matrix=1.00D-08 within 128 cycles.
 Requested convergence on MAX density matrix=1.00D-06.
 Requested convergence on             energy=1.00D-06.
 No special actions if energy rises.
 An orbital has undefined symmetry, so N**3 symmetry is turned off.
 Density matrix breaks symmetry, PCut= 1.00D-04
 Density matrix has no symmetry -- integrals replicated.
 Density matrix breaks symmetry, PCut= 1.00D-07
 Density matrix has no symmetry -- integrals replicated.
 Density matrix breaks symmetry, PCut= 1.00D-07
 Density matrix has no symmetry -- integrals replicated.
 Density matrix breaks symmetry, PCut= 1.00D-07
 Density matrix has no symmetry -- integrals replicated.
 Density matrix breaks symmetry, PCut= 1.00D-07
 Density matrix has no symmetry -- integrals replicated.
 Density matrix breaks symmetry, PCut= 1.00D-07
 Density matrix has no symmetry -- integrals replicated.
 Density matrix breaks symmetry, PCut= 1.00D-07
 Density matrix has no symmetry -- integrals replicated.
 Density matrix breaks symmetry, PCut= 1.00D-07
 Density matrix has no symmetry -- integrals replicated.
 Density matrix breaks symmetry, PCut= 1.00D-07
 Density matrix has no symmetry -- integrals replicated.
 Density matrix breaks symmetry, PCut= 1.00D-07
 Density matrix has no symmetry -- integrals replicated.
 Density matrix breaks symmetry, PCut= 1.00D-07
 Density matrix has no symmetry -- integrals replicated.
 Density matrix breaks symmetry, PCut= 1.00D-07
 Density matrix has no symmetry -- integrals replicated.
 Density matrix breaks symmetry, PCut= 1.00D-07
 Density matrix has no symmetry -- integrals replicated.
 SCF Done:  E(UHF) =  -4.92697090066     A.U. after   12 cycles
            NFock= 12  Conv=0.88D-08     -V/T= 1.9351
 <Sx>= 0.0000 <Sy>= 0.0000 <Sz>= 0.0000 <S**2>= 1.3253 S= 0.7551
 <L.S>= 0.000000000000E+00
 Annihilation of the first spin contaminant:
 S**2 before annihilation     1.3253,   after     2.5610
 Range of M.O.s used for correlation:     1    10
 NBasis=    10 NAE=     5 NBE=     5 NFC=     0 NFV=     0
 NROrb=     10 NOA=     5 NOB=     5 NVA=     5 NVB=     5
 Semi-Direct transformation.
 ModeAB=           2 MOrb=             5 LenV=     134107123
 LASXX=         1030 LTotXX=        1030 LenRXX=        1030
 LTotAB=        1825 MaxLAS=        2750 LenRXY=        2750
 NonZer=        2750 LenScr=      655360 LnRSAI=           0
 LnScr1=           0 LExtra=           0 Total=       659140
 MaxDsk=          -1 SrtSym=           F ITran=            3
 JobTyp=1 Pass  1:  I=   1 to   5.
 (rs|ai) integrals will be sorted in core.
 ModeAB=           2 MOrb=             5 LenV=     134107123
 LASXX=         1030 LTotXX=        1030 LenRXX=        2750
 LTotAB=         225 MaxLAS=        2750 LenRXY=         225
 NonZer=        2750 LenScr=      655360 LnRSAI=           0
 LnScr1=           0 LExtra=           0 Total=       658335
 MaxDsk=          -1 SrtSym=           F ITran=            3
 JobTyp=2 Pass  1:  I=   1 to   5.
 (rs|ai) integrals will be sorted in core.
 SymMOI:  orbitals are not symmetric.
 Spin components of T(2) and E(2):
     alpha-alpha T2 =       0.2662989432D-02 E2=     -0.3988077087D-02
     alpha-beta  T2 =       0.2863038872D-01 E2=     -0.4695165210D-01
     beta-beta   T2 =       0.2662989432D-02 E2=     -0.3988077087D-02
 ANorm=    0.1016836451D+01
 E2 =    -0.5492780628D-01 EUMP2 =    -0.49818987069403D+01
 (S**2,0)=  0.13253D+01           (S**2,1)=  0.12050D+01
 E(PUHF)=      -0.50661679466D+01        E(PMP2)=      -0.51187148024D+01
 Second order stability test of a single determinant UHF wave function:
 Stabil:  MDV=134217728
 ***********************************************************************
 Matrix         Lowest Root    Major Pairs
 ***********************************************************************
 Internal UHF     0.0825921    Stable
 RUHF --> CUHF (A)0.1308161    Stable
 RUHF --> CUHF (B)0.1308161    Stable
 RUHF --> GHF     0.           Zero root
 Stable under the perturbations considered.
 ***********************************************************************

 **********************************************************************

            Population analysis using the SCF density.

 **********************************************************************

 Orbital symmetries:
 Alpha Orbitals:
       Occupied  (BG) (BG) (BG) (BG) (BG)
       Virtual   (BG) (BG) (BG) (BG) (BG)
 Beta  Orbitals:
       Occupied  (BG) (BG) (BG) (BG) (BG)
       Virtual   (BG) (BG) (BG) (BG) (BG)
 Unable to determine electronic state:  partially filled degenerate orbitals.
 Alpha  occ. eigenvalues --   -0.86012  -0.74444  -0.56192  -0.41264  -0.36744
 Alpha virt. eigenvalues --    0.05013   0.22069   0.31177   0.54893   0.73164
  Beta  occ. eigenvalues --   -0.86012  -0.74444  -0.56192  -0.41264  -0.36744
  Beta virt. eigenvalues --    0.05013   0.22069   0.31177   0.54893   0.73164
          Condensed to atoms (all electrons):
               1          2          3          4          5          6
     1  H    0.957931   0.151978   0.162281  -0.166131  -0.006277  -0.106610
     2  H    0.151978   0.871857  -0.137793   0.098403  -0.012579  -0.022050
     3  H    0.162281  -0.137793   1.121647  -0.049772   0.177008  -0.116321
     4  H   -0.166131   0.098403  -0.049772   0.967882  -0.105826   0.269130
     5  H   -0.006277  -0.012579   0.177008  -0.105826   0.959037  -0.020734
     6  H   -0.106610  -0.022050  -0.116321   0.269130  -0.020734   0.959037
     7  H    0.002650   0.003612  -0.024751  -0.019124   0.269130  -0.105826
     8  H    0.004531   0.006129  -0.093793  -0.024751  -0.116321   0.177008
     9  H   -0.000609  -0.000175   0.006129   0.003612  -0.022050  -0.012579
    10  H    0.001462  -0.000609   0.004531   0.002650  -0.106610  -0.006277
               7          8          9         10
     1  H    0.002650   0.004531  -0.000609   0.001462
     2  H    0.003612   0.006129  -0.000175  -0.000609
     3  H   -0.024751  -0.093793   0.006129   0.004531
     4  H   -0.019124  -0.024751   0.003612   0.002650
     5  H    0.269130  -0.116321  -0.022050  -0.106610
     6  H   -0.105826   0.177008  -0.012579  -0.006277
     7  H    0.967882  -0.049772   0.098403  -0.166131
     8  H   -0.049772   1.121647  -0.137793   0.162281
     9  H    0.098403  -0.137793   0.871857   0.151978
    10  H   -0.166131   0.162281   0.151978   0.957931
          Atomic-Atomic Spin Densities.
               1          2          3          4          5          6
     1  H    0.717233   0.098652  -0.091977  -0.192953   0.003084  -0.032929
     2  H    0.098652  -0.691154   0.115338  -0.096894  -0.008687  -0.002044
     3  H   -0.091977   0.115338  -0.755918  -0.026495   0.165560   0.093088
     4  H   -0.192953  -0.096894  -0.026495   0.758577  -0.066896   0.148703
     5  H    0.003084  -0.008687   0.165560  -0.066896   0.406863   0.000000
     6  H   -0.032929  -0.002044   0.093088   0.148703   0.000000  -0.406863
     7  H    0.001768  -0.003853   0.040949  -0.000000  -0.148703   0.066896
     8  H    0.015560   0.002114  -0.000000  -0.040949  -0.093088  -0.165560
     9  H   -0.001360   0.000000  -0.002114   0.003853   0.002044   0.008687
    10  H    0.000000   0.001360  -0.015560  -0.001768   0.032929  -0.003084
               7          8          9         10
     1  H    0.001768   0.015560  -0.001360   0.000000
     2  H   -0.003853   0.002114   0.000000   0.001360
     3  H    0.040949  -0.000000  -0.002114  -0.015560
     4  H   -0.000000  -0.040949   0.003853  -0.001768
     5  H   -0.148703  -0.093088   0.002044   0.032929
     6  H    0.066896  -0.165560   0.008687  -0.003084
     7  H   -0.758577   0.026495   0.096894   0.192953
     8  H    0.026495   0.755918  -0.115338   0.091977
     9  H    0.096894  -0.115338   0.691154  -0.098652
    10  H    0.192953   0.091977  -0.098652  -0.717233
 Mulliken charges and spin densities:
               1          2
     1  H   -0.001207   0.517079
     2  H    0.041226  -0.585167
     3  H   -0.049167  -0.477131
     4  H    0.023926   0.485178
     5  H   -0.014778   0.293106
     6  H   -0.014778  -0.293106
     7  H    0.023926  -0.485178
     8  H   -0.049167   0.477131
     9  H    0.041226   0.585167
    10  H   -0.001207  -0.517079
 Sum of Mulliken charges =  -0.00000   0.00000
 Mulliken charges and spin densities with hydrogens summed into heavy atoms:
               1          2
 Electronic spatial extent (au):  <R**2>=            129.7710
 Charge=             -0.0000 electrons
 Dipole moment (field-independent basis, Debye):
    X=             -0.0000    Y=             -0.0000    Z=             -0.0000  Tot=              0.0000
 Quadrupole moment (field-independent basis, Debye-Ang):
   XX=            -13.8527   YY=            -14.1780   ZZ=            -12.8466
   XY=             -1.8002   XZ=             -0.0000   YZ=             -0.0000
 Traceless Quadrupole moment (field-independent basis, Debye-Ang):
   XX=             -0.2269   YY=             -0.5522   ZZ=              0.7791
   XY=             -1.8002   XZ=             -0.0000   YZ=             -0.0000
 Octapole moment (field-independent basis, Debye-Ang**2):
  XXX=             -0.0000  YYY=             -0.0000  ZZZ=              0.0000  XYY=              0.0000
  XXY=             -0.0000  XXZ=              0.0000  XZZ=             -0.0000  YZZ=             -0.0000
  YYZ=              0.0000  XYZ=              0.0000
 Hexadecapole moment (field-independent basis, Debye-Ang**3):
 XXXX=           -201.1343 YYYY=            -69.5205 ZZZZ=            -15.4502 XXXY=             29.0588
 XXXZ=             -0.0000 YYYX=             30.6383 YYYZ=              0.0000 ZZZX=             -0.0000
 ZZZY=              0.0000 XXYY=            -41.6535 XXZZ=            -34.1384 YYZZ=            -14.0916
 XXYZ=              0.0000 YYXZ=             -0.0000 ZZXY=             10.4472
 N-N= 1.348494222386D+01 E-N=-3.619949444532D+01  KE= 5.268812465239D+00
 Symmetry AG   KE= 2.337078526318D+00
 Symmetry BG   KE= 0.000000000000D+00
 Symmetry AU   KE= 0.000000000000D+00
 Symmetry BU   KE= 2.931733938920D+00
                          Isotropic Fermi Contact Couplings
        Atom                 a.u.       MegaHertz       Gauss      10(-4) cm-1
     1  H(1)               0.19866     444.00208     158.43098     148.10315
     2  H(1)              -0.20484    -457.79903    -163.35407    -152.70532
     3  H(1)              -0.20648    -461.47511    -164.66579    -153.93153
     4  H(1)               0.20841     465.79241     166.20631     155.37163
     5  H(1)               0.11332     253.25854      90.36894      84.47795
     6  H(1)              -0.11332    -253.25854     -90.36894     -84.47795
     7  H(1)              -0.20841    -465.79241    -166.20631    -155.37163
     8  H(1)               0.20648     461.47511     164.66579     153.93153
     9  H(1)               0.20484     457.79903     163.35407     152.70532
    10  H(1)              -0.19866    -444.00208    -158.43098    -148.10315
 --------------------------------------------------------
       Center         ----  Spin Dipole Couplings  ----
                      3XX-RR        3YY-RR        3ZZ-RR
 --------------------------------------------------------
     1   Atom       -0.012456     -0.049171      0.061627
     2   Atom        0.012171      0.049521     -0.061692
     3   Atom        0.054115      0.024301     -0.078416
     4   Atom       -0.021779     -0.047552      0.069332
     5   Atom       -0.063100      0.001651      0.061449
     6   Atom        0.063100     -0.001651     -0.061449
     7   Atom        0.021779      0.047552     -0.069332
     8   Atom       -0.054115     -0.024301      0.078416
     9   Atom       -0.012171     -0.049521      0.061692
    10   Atom        0.012456      0.049171     -0.061627
 --------------------------------------------------------
                        XY            XZ            YZ
 --------------------------------------------------------
     1   Atom        0.067993      0.000000      0.000000
     2   Atom       -0.001376      0.000000     -0.000000
     3   Atom       -0.044779      0.000000      0.000000
     4   Atom        0.071288      0.000000     -0.000000
     5   Atom        0.076279     -0.000000      0.000000
     6   Atom       -0.076279      0.000000     -0.000000
     7   Atom       -0.071288     -0.000000     -0.000000
     8   Atom        0.044779     -0.000000      0.000000
     9   Atom        0.001376     -0.000000     -0.000000
    10   Atom       -0.067993      0.000000     -0.000000
 --------------------------------------------------------


 ---------------------------------------------------------------------------------
              Anisotropic Spin Dipole Couplings in Principal Axis System
 ---------------------------------------------------------------------------------

       Atom             a.u.   MegaHertz   Gauss  10(-4) cm-1        Axes

              Baa    -0.1012   -54.017   -19.275   -18.018 -0.6080  0.7939  0.0000
     1 H(1)   Bbb     0.0396    21.136     7.542     7.050  0.7939  0.6080 -0.0000
              Bcc     0.0616    32.881    11.733    10.968  0.0000  0.0000  1.0000
 
              Baa    -0.0617   -32.916   -11.745   -10.979  0.0000  0.0000  1.0000
     2 H(1)   Bbb     0.0121     6.467     2.308     2.157  0.9993  0.0368  0.0000
              Bcc     0.0496    26.449     9.438     8.822 -0.0368  0.9993  0.0000
 
              Baa    -0.0784   -41.839   -14.929   -13.956  0.0000  0.0000  1.0000
     3 H(1)   Bbb    -0.0080    -4.261    -1.521    -1.421  0.5849  0.8111 -0.0000
              Bcc     0.0864    46.100    16.450    15.377  0.8111 -0.5849  0.0000
 
              Baa    -0.1071   -57.148   -20.392   -19.063 -0.6411  0.7674  0.0000
     4 H(1)   Bbb     0.0378    20.156     7.192     6.723  0.7674  0.6411  0.0000
              Bcc     0.0693    36.992    13.200    12.339  0.0000  0.0000  1.0000
 
              Baa    -0.1136   -60.606   -21.626   -20.216  0.8339 -0.5520  0.0000
     5 H(1)   Bbb     0.0521    27.820     9.927     9.280  0.5520  0.8339  0.0000
              Bcc     0.0614    32.786    11.699    10.936  0.0000  0.0000  1.0000
 
              Baa    -0.0614   -32.786   -11.699   -10.936  0.0000  0.0000  1.0000
     6 H(1)   Bbb    -0.0521   -27.820    -9.927    -9.280  0.5520  0.8339  0.0000
              Bcc     0.1136    60.606    21.626    20.216  0.8339 -0.5520  0.0000
 
              Baa    -0.0693   -36.992   -13.200   -12.339  0.0000  0.0000  1.0000
     7 H(1)   Bbb    -0.0378   -20.156    -7.192    -6.723  0.7674  0.6411  0.0000
              Bcc     0.1071    57.148    20.392    19.063 -0.6411  0.7674 -0.0000
 
              Baa    -0.0864   -46.100   -16.450   -15.377  0.8111 -0.5849  0.0000
     8 H(1)   Bbb     0.0080     4.261     1.521     1.421  0.5849  0.8111  0.0000
              Bcc     0.0784    41.839    14.929    13.956  0.0000  0.0000  1.0000
 
              Baa    -0.0496   -26.449    -9.438    -8.822 -0.0368  0.9993 -0.0000
     9 H(1)   Bbb    -0.0121    -6.467    -2.308    -2.157  0.9993  0.0368  0.0000
              Bcc     0.0617    32.916    11.745    10.979  0.0000  0.0000  1.0000
 
              Baa    -0.0616   -32.881   -11.733   -10.968  0.0000  0.0000  1.0000
    10 H(1)   Bbb    -0.0396   -21.136    -7.542    -7.050  0.7939  0.6080  0.0000
              Bcc     0.1012    54.017    19.275    18.018 -0.6080  0.7939  0.0000
 

 ---------------------------------------------------------------------------------


 Test job not archived.
 1\1\GINC-SULU\Stability\UHF\Gen\H10\LCJ1\22-Feb-2017\0\\#uhf/gen scf(t
 ight,novaracc,noincfock,fulldiag) stable(crhf) guess=read geom=nocrowd
  test\\hf stability analysis of h10 triangular lattice, y= 0.629922106
 85231265 alpha= 34.500000000000000\\0,1\H\H,1,1.1121383389\H,1,1.11213
 83389,2,111.\H,2,1.1121383389,1,69.,3,0.,0\H,3,1.1121383389,1,180.,2,0
 .,0\H,4,1.1121383389,2,180.,1,0.,0\H,5,1.1121383389,3,180.,2,0.,0\H,6,
 1.1121383389,4,180.,1,0.,0\H,7,1.1121383389,5,180.,2,0.,0\H,8,1.112138
 3389,6,180.,1,0.,0\\Version=ES64L-G09RevE.01\HF=-4.9269709\MP2=-4.9818
 987\PUHF=-5.0661679\PMP2-0=-5.1187148\S2=1.325328\S2-1=1.205025\S2A=2.
 560972\RMSD=8.832e-09\Dipole=0.,0.,0.\Quadrupole=-0.1687081,0.5792664,
 -0.4105583,0.,-1.3384286,0.\PG=C02H [SGH(H10)]\\@


 DESK:  A WASTEBASKET WITH DRAWERS.
 Job cpu time:       0 days  0 hours  0 minutes  1.3 seconds.
 File lengths (MBytes):  RWF=     94 Int=      0 D2E=      0 Chk=      2 Scr=      2
 Normal termination of Gaussian 09 at Wed Feb 22 15:17:49 2017.
