 Entering Gaussian System, Link 0=g09
 AtFile(1): H.gbs
            H     0
            S   10   1.00
               1000.000000000000            0.000068713567
                316.227766000000            0.000169141320
                100.000000000000            0.000823394812
                 31.622776600000            0.003425569236
                 10.000000000000            0.013951996000
                  3.162277660000            0.056909313560
                  1.000000000000            0.198286399900
                  0.316227766000            0.496922426700
                  0.100000000000            0.369846276400
                  0.031622776600            0.003752720039
            ****
 Initial command:
 /projects/guscus/apps/gau/g09-e1/g09/l1.exe "/users/lcj1/gaussian/h10/rhfstability/2rows/zmat/guessfrommix/alpha25/fwd/Gau-29506.inp" -scrdir="/users/lcj1/gaussian/h10/rhfstability/2rows/zmat/guessfrommix/alpha25/fwd/"
 Entering Link 1 = /projects/guscus/apps/gau/g09-e1/g09/l1.exe PID=     29507.
  
 Copyright (c) 1988,1990,1992,1993,1995,1998,2003,2009,2015,
            Gaussian, Inc.  All Rights Reserved.
  
 This is part of the Gaussian(R) 09 program.  It is based on
 the Gaussian(R) 03 system (copyright 2003, Gaussian, Inc.),
 the Gaussian(R) 98 system (copyright 1998, Gaussian, Inc.),
 the Gaussian(R) 94 system (copyright 1995, Gaussian, Inc.),
 the Gaussian 92(TM) system (copyright 1992, Gaussian, Inc.),
 the Gaussian 90(TM) system (copyright 1990, Gaussian, Inc.),
 the Gaussian 88(TM) system (copyright 1988, Gaussian, Inc.),
 the Gaussian 86(TM) system (copyright 1986, Carnegie Mellon
 University), and the Gaussian 82(TM) system (copyright 1983,
 Carnegie Mellon University). Gaussian is a federally registered
 trademark of Gaussian, Inc.
  
 This software contains proprietary and confidential information,
 including trade secrets, belonging to Gaussian, Inc.
  
 This software is provided under written license and may be
 used, copied, transmitted, or stored only in accord with that
 written license.
  
 The following legend is applicable only to US Government
 contracts under FAR:
  
                    RESTRICTED RIGHTS LEGEND
  
 Use, reproduction and disclosure by the US Government is
 subject to restrictions as set forth in subparagraphs (a)
 and (c) of the Commercial Computer Software - Restricted
 Rights clause in FAR 52.227-19.
  
 Gaussian, Inc.
 340 Quinnipiac St., Bldg. 40, Wallingford CT 06492
  
  
 ---------------------------------------------------------------
 Warning -- This program may not be used in any manner that
 competes with the business of Gaussian, Inc. or will provide
 assistance to any competitor of Gaussian, Inc.  The licensee
 of this program is prohibited from giving any competitor of
 Gaussian, Inc. access to this program.  By using this program,
 the user acknowledges that Gaussian, Inc. is engaged in the
 business of creating and licensing software in the field of
 computational chemistry and represents and warrants to the
 licensee that it is not a competitor of Gaussian, Inc. and that
 it will not use this program in any manner prohibited above.
 ---------------------------------------------------------------
  

 Cite this work as:
 Gaussian 09, Revision E.01,
 M. J. Frisch, G. W. Trucks, H. B. Schlegel, G. E. Scuseria, 
 M. A. Robb, J. R. Cheeseman, G. Scalmani, V. Barone, B. Mennucci, 
 G. A. Petersson, H. Nakatsuji, M. Caricato, X. Li, H. P. Hratchian, 
 A. F. Izmaylov, J. Bloino, G. Zheng, J. L. Sonnenberg, M. Hada, 
 M. Ehara, K. Toyota, R. Fukuda, J. Hasegawa, M. Ishida, T. Nakajima, 
 Y. Honda, O. Kitao, H. Nakai, T. Vreven, J. A. Montgomery, Jr., 
 J. E. Peralta, F. Ogliaro, M. Bearpark, J. J. Heyd, E. Brothers, 
 K. N. Kudin, V. N. Staroverov, T. Keith, R. Kobayashi, J. Normand, 
 K. Raghavachari, A. Rendell, J. C. Burant, S. S. Iyengar, J. Tomasi, 
 M. Cossi, N. Rega, J. M. Millam, M. Klene, J. E. Knox, J. B. Cross, 
 V. Bakken, C. Adamo, J. Jaramillo, R. Gomperts, R. E. Stratmann, 
 O. Yazyev, A. J. Austin, R. Cammi, C. Pomelli, J. W. Ochterski, 
 R. L. Martin, K. Morokuma, V. G. Zakrzewski, G. A. Voth, 
 P. Salvador, J. J. Dannenberg, S. Dapprich, A. D. Daniels, 
 O. Farkas, J. B. Foresman, J. V. Ortiz, J. Cioslowski, 
 and D. J. Fox, Gaussian, Inc., Wallingford CT, 2013.
 
 ******************************************
 Gaussian 09:  ES64L-G09RevE.01 30-Nov-2015
                13-Feb-2017 
 ******************************************
 %chk=h10.chk
 ----------------------------------------------------------------------
 #rhf/gen scf(symm,tight,novaracc,noincfock,fulldiag) stable(crhf) gues
 s=read geom=nocrowd test
 ----------------------------------------------------------------------
 1/38=1/1;
 2/12=1,17=6,18=5,40=1/2;
 3/5=7,16=1,25=1,30=1,116=1/1,2,3;
 4/5=1,9=4/1;
 5/5=100002,15=2,16=1,32=2,38=6/2;
 8/6=1,10=90,11=11/1,4;
 9/8=4,13=1/2;
 6/7=2,8=2,9=2,10=2,28=1/1;
 99/5=1,9=1/99;
 ----------------------------------------------------------------------
 hf stability analysis of h10 triangular lattice, y= 1.2948927059181552
 ----------------------------------------------------------------------
 Symbolic Z-matrix:
 Charge =  0 Multiplicity = 1
 H
 H                    1     1.36951 
 H                    1     1.36951  2     38. 
 H                    2     1.36951  1     142.     3     0.       0
 H                    3     1.36951  1     180.     2     0.       0
 H                    4     1.36951  2     180.     1     0.       0
 H                    5     1.36951  3     180.     2     0.       0
 H                    6     1.36951  4     180.     1     0.       0
 H                    7     1.36951  5     180.     2     0.       0
 H                    8     1.36951  6     180.     1     0.       0
 
                          Input orientation:                          
 ---------------------------------------------------------------------
 Center     Atomic      Atomic             Coordinates (Angstroms)
 Number     Number       Type             X           Y           Z
 ---------------------------------------------------------------------
      1          1           0        0.000000    0.000000    0.000000
      2          1           0        0.000000    0.000000    1.369505
      3          1           0        0.843152    0.000000    1.079185
      4          1           0        0.843152    0.000000    2.448690
      5          1           0        1.686303    0.000000    2.158370
      6          1           0        1.686303    0.000000    3.527875
      7          1           0        2.529455    0.000000    3.237555
      8          1           0        2.529455    0.000000    4.607060
      9          1           0        3.372607    0.000000    4.316740
     10          1           0        3.372607    0.000000    5.686245
 ---------------------------------------------------------------------
                    Distance matrix (angstroms):
                    1          2          3          4          5
     1  H    0.000000
     2  H    1.369505   0.000000
     3  H    1.369505   0.891735   0.000000
     4  H    2.589785   1.369505   1.369505   0.000000
     5  H    2.739011   1.861700   1.369505   0.891735   0.000000
     6  H    3.910182   2.739011   2.589785   1.369505   1.369505
     7  H    4.108516   3.144479   2.739011   1.861700   1.369505
     8  H    5.255772   4.108516   3.910182   2.739011   2.589785
     9  H    5.478021   4.478913   4.108516   3.144479   2.739011
    10  H    6.611192   5.478021   5.255772   4.108516   3.910182
                    6          7          8          9         10
     6  H    0.000000
     7  H    0.891735   0.000000
     8  H    1.369505   1.369505   0.000000
     9  H    1.861700   1.369505   0.891735   0.000000
    10  H    2.739011   2.589785   1.369505   1.369505   0.000000
 Stoichiometry    H10
 Framework group  C2H[SGH(H10)]
 Deg. of freedom     9
 Full point group                 C2H     NOp   4
 Largest Abelian subgroup         C2H     NOp   4
 Largest concise Abelian subgroup C2      NOp   2
                         Standard orientation:                         
 ---------------------------------------------------------------------
 Center     Atomic      Atomic             Coordinates (Angstroms)
 Number     Number       Type             X           Y           Z
 ---------------------------------------------------------------------
      1          1           0        1.686303    2.843122   -0.000000
      2          1           0        1.686303    1.473617   -0.000000
      3          1           0        0.843152    1.763938   -0.000000
      4          1           0        0.843152    0.394432   -0.000000
      5          1           0        0.000000    0.684753    0.000000
      6          1           0       -0.000000   -0.684753    0.000000
      7          1           0       -0.843152   -0.394432   -0.000000
      8          1           0       -0.843152   -1.763938   -0.000000
      9          1           0       -1.686303   -1.473617   -0.000000
     10          1           0       -1.686303   -2.843122   -0.000000
 ---------------------------------------------------------------------
 Rotational constants (GHZ):    305.0546613     12.3645303     11.8828908
 General basis read from cards:  (5D, 7F)
 There are     5 symmetry adapted cartesian basis functions of AG  symmetry.
 There are     0 symmetry adapted cartesian basis functions of BG  symmetry.
 There are     0 symmetry adapted cartesian basis functions of AU  symmetry.
 There are     5 symmetry adapted cartesian basis functions of BU  symmetry.
 There are     5 symmetry adapted basis functions of AG  symmetry.
 There are     0 symmetry adapted basis functions of BG  symmetry.
 There are     0 symmetry adapted basis functions of AU  symmetry.
 There are     5 symmetry adapted basis functions of BU  symmetry.
    10 basis functions,   100 primitive gaussians,    10 cartesian basis functions
     5 alpha electrons        5 beta electrons
       nuclear repulsion energy        12.0767010619 Hartrees.
 NAtoms=   10 NActive=   10 NUniq=    5 SFac= 4.00D+00 NAtFMM=   60 NAOKFM=F Big=F
 Integral buffers will be    131072 words long.
 Regular integral format.
 Two-electron integral symmetry is turned on.
 One-electron integrals computed using PRISM.
 NBasis=    10 RedAO= T EigKep=  1.84D-01  NBF=     5     0     0     5
 NBsUse=    10 1.00D-06 EigRej= -1.00D+00 NBFU=     5     0     0     5
 Initial guess from the checkpoint file:  "h10.chk"
 B after Tr=     0.000000    0.000000    0.000000
         Rot=    0.999880    0.000000    0.000000   -0.015514 Ang=  -1.78 deg.
 Initial guess orbital symmetries:
       Occupied  (AG) (BU) (AG) (BU) (BU)
       Virtual   (AG) (AG) (BU) (BU) (AG)
 Keep R1 ints in memory in symmetry-blocked form, NReq=876711.
 Requested convergence on RMS density matrix=1.00D-08 within 128 cycles.
 Requested convergence on MAX density matrix=1.00D-06.
 Requested convergence on             energy=1.00D-06.
 No special actions if energy rises.
 SCF Done:  E(RHF) =  -4.70802478095     A.U. after   12 cycles
            NFock= 12  Conv=0.31D-08     -V/T= 1.9320
 Range of M.O.s used for correlation:     1    10
 NBasis=    10 NAE=     5 NBE=     5 NFC=     0 NFV=     0
 NROrb=     10 NOA=     5 NOB=     5 NVA=     5 NVB=     5
 Semi-Direct transformation.
 ModeAB=           4 MOrb=             5 LenV=     134110088
 LASXX=         1030 LTotXX=        1030 LenRXX=        2480
 LTotAB=        1450 MaxLAS=        1500 LenRXY=           0
 NonZer=        3510 LenScr=      655360 LnRSAI=        1500
 LnScr1=      655360 LExtra=           0 Total=      1314700
 MaxDsk=          -1 SrtSym=           T ITran=            3
 JobTyp=0 Pass  1:  I=   1 to   5.
 (rs|ai) integrals will be sorted in core.
 Spin components of T(2) and E(2):
     alpha-alpha T2 =       0.6927927760D-02 E2=     -0.6879819072D-02
     alpha-beta  T2 =       0.1840523894D+00 E2=     -0.1305934320D+00
     beta-beta   T2 =       0.6927927760D-02 E2=     -0.6879819072D-02
 ANorm=    0.1094489947D+01
 E2 =    -0.1443530701D+00 EUMP2 =    -0.48523778510589D+01
 Second order stability test of a single determinant RHF wave function:
 Stabil:  MDV=134217728
 ***********************************************************************
 Matrix         Lowest Root    Major Pairs
 ***********************************************************************
 Internal RHF    -0.0129961    5A=6A 5A=8A 4A=8A 4A=6A
 RRHF --> CRHF   -0.0579884    5A=6A
 RRHF --> RUHF   -0.2141978    5A=6B
 Not stable.
 ***********************************************************************

 **********************************************************************

            Population analysis using the SCF density.

 **********************************************************************

 Orbital symmetries:
       Occupied  (AG) (BU) (AG) (BU) (BU)
       Virtual   (AG) (BU) (AG) (BU) (AG)
 The electronic state is 1-AG.
 Alpha  occ. eigenvalues --   -0.76623  -0.71197  -0.55089  -0.35441  -0.13934
 Alpha virt. eigenvalues --   -0.00931   0.13451   0.17899   0.41108   0.64719
          Condensed to atoms (all electrons):
               1          2          3          4          5          6
     1  H    0.786695   0.047026   0.171008  -0.071854  -0.013430  -0.001897
     2  H    0.047026   1.025682   0.021594   0.121668  -0.226453   0.058454
     3  H    0.171008   0.021594   0.573189  -0.058855   0.186231  -0.055586
     4  H   -0.071854   0.121668  -0.058855   0.919919   0.110149   0.118922
     5  H   -0.013430  -0.226453   0.186231   0.110149   1.453288  -0.428008
     6  H   -0.001897   0.058454  -0.055586   0.118922  -0.428008   1.453288
     7  H    0.005018  -0.020018   0.007664  -0.132629   0.118922   0.110149
     8  H   -0.000105   0.004156  -0.002641   0.007664  -0.055586   0.186231
     9  H    0.000263  -0.003343   0.004156  -0.020018   0.058454  -0.226453
    10  H   -0.000058   0.000263  -0.000105   0.005018  -0.001897  -0.013430
               7          8          9         10
     1  H    0.005018  -0.000105   0.000263  -0.000058
     2  H   -0.020018   0.004156  -0.003343   0.000263
     3  H    0.007664  -0.002641   0.004156  -0.000105
     4  H   -0.132629   0.007664  -0.020018   0.005018
     5  H    0.118922  -0.055586   0.058454  -0.001897
     6  H    0.110149   0.186231  -0.226453  -0.013430
     7  H    0.919919  -0.058855   0.121668  -0.071854
     8  H   -0.058855   0.573189   0.021594   0.171008
     9  H    0.121668   0.021594   1.025682   0.047026
    10  H   -0.071854   0.171008   0.047026   0.786695
 Mulliken charges:
               1
     1  H    0.077336
     2  H   -0.029027
     3  H    0.153346
     4  H    0.000016
     5  H   -0.201670
     6  H   -0.201670
     7  H    0.000016
     8  H    0.153346
     9  H   -0.029027
    10  H    0.077336
 Sum of Mulliken charges =  -0.00000
 Mulliken charges with hydrogens summed into heavy atoms:
               1
 Electronic spatial extent (au):  <R**2>=            173.8092
 Charge=             -0.0000 electrons
 Dipole moment (field-independent basis, Debye):
    X=              0.0000    Y=              0.0000    Z=             -0.0000  Tot=              0.0000
 Quadrupole moment (field-independent basis, Debye-Ang):
   XX=            -12.1349   YY=             -5.8025   ZZ=            -13.1478
   XY=              5.0471   XZ=              0.0000   YZ=              0.0000
 Traceless Quadrupole moment (field-independent basis, Debye-Ang):
   XX=             -1.7732   YY=              4.5592   ZZ=             -2.7861
   XY=              5.0471   XZ=              0.0000   YZ=              0.0000
 Octapole moment (field-independent basis, Debye-Ang**2):
  XXX=              0.0000  YYY=             -0.0000  ZZZ=              0.0000  XYY=             -0.0000
  XXY=             -0.0000  XXZ=              0.0000  XZZ=              0.0000  YZZ=              0.0000
  YYZ=              0.0000  XYZ=             -0.0000
 Hexadecapole moment (field-independent basis, Debye-Ang**3):
 XXXX=           -130.3893 YYYY=           -170.9075 ZZZZ=            -16.1069 XXXY=            -61.9101
 XXXZ=             -0.0000 YYYX=            -33.3046 YYYZ=             -0.0000 ZZZX=             -0.0000
 ZZZY=             -0.0000 XXYY=            -41.6414 XXZZ=            -24.5026 YYZZ=            -41.8224
 XXYZ=             -0.0000 YYXZ=              0.0000 ZZXY=            -23.3712
 N-N= 1.207670106189D+01 E-N=-3.357541169629D+01  KE= 5.051640964136D+00
 Symmetry AG   KE= 1.431183622840D+00
 Symmetry BG   KE= 0.000000000000D+00
 Symmetry AU   KE= 0.000000000000D+00
 Symmetry BU   KE= 3.620457341296D+00

 Test job not archived.
 1\1\GINC-SULU\Stability\RHF\Gen\H10\LCJ1\13-Feb-2017\0\\#rhf/gen scf(s
 ymm,tight,novaracc,noincfock,fulldiag) stable(crhf) guess=read geom=no
 crowd test\\hf stability analysis of h10 triangular lattice, y= 1.2948
 927059181552\\0,1\H\H,1,1.3695052894\H,1,1.3695052894,2,38.\H,2,1.3695
 052894,1,142.,3,0.,0\H,3,1.3695052894,1,180.,2,0.,0\H,4,1.3695052894,2
 ,180.,1,0.,0\H,5,1.3695052894,3,180.,2,0.,0\H,6,1.3695052894,4,180.,1,
 0.,0\H,7,1.3695052894,5,180.,2,0.,0\H,8,1.3695052894,6,180.,1,0.,0\\Ve
 rsion=ES64L-G09RevE.01\State=1-AG\HF=-4.7080248\MP2=-4.8523779\RMSD=3.
 122e-09\Dipole=0.,0.,0.\Quadrupole=-1.3183058,-2.0713817,3.3896875,0.,
 3.7523811,0.\PG=C02H [SGH(H10)]\\@


 The hours that make us happy make us wise.
                         -- John Masefield
 Job cpu time:       0 days  0 hours  0 minutes  0.7 seconds.
 File lengths (MBytes):  RWF=     84 Int=      0 D2E=      0 Chk=      2 Scr=      2
 Normal termination of Gaussian 09 at Mon Feb 13 14:33:25 2017.
