 Entering Gaussian System, Link 0=g09
 AtFile(1): H.gbs
            H     0
            S   10   1.00
               1000.000000000000            0.000068713567
                316.227766000000            0.000169141320
                100.000000000000            0.000823394812
                 31.622776600000            0.003425569236
                 10.000000000000            0.013951996000
                  3.162277660000            0.056909313560
                  1.000000000000            0.198286399900
                  0.316227766000            0.496922426700
                  0.100000000000            0.369846276400
                  0.031622776600            0.003752720039
            ****
 Initial command:
 /projects/guscus/apps/gau/g09-e1/g09/l1.exe "/users/lcj1/gaussian/h8/Gau-20353.inp" -scrdir="/users/lcj1/gaussian/h8/"
 Entering Link 1 = /projects/guscus/apps/gau/g09-e1/g09/l1.exe PID=     20354.
  
 Copyright (c) 1988,1990,1992,1993,1995,1998,2003,2009,2015,
            Gaussian, Inc.  All Rights Reserved.
  
 This is part of the Gaussian(R) 09 program.  It is based on
 the Gaussian(R) 03 system (copyright 2003, Gaussian, Inc.),
 the Gaussian(R) 98 system (copyright 1998, Gaussian, Inc.),
 the Gaussian(R) 94 system (copyright 1995, Gaussian, Inc.),
 the Gaussian 92(TM) system (copyright 1992, Gaussian, Inc.),
 the Gaussian 90(TM) system (copyright 1990, Gaussian, Inc.),
 the Gaussian 88(TM) system (copyright 1988, Gaussian, Inc.),
 the Gaussian 86(TM) system (copyright 1986, Carnegie Mellon
 University), and the Gaussian 82(TM) system (copyright 1983,
 Carnegie Mellon University). Gaussian is a federally registered
 trademark of Gaussian, Inc.
  
 This software contains proprietary and confidential information,
 including trade secrets, belonging to Gaussian, Inc.
  
 This software is provided under written license and may be
 used, copied, transmitted, or stored only in accord with that
 written license.
  
 The following legend is applicable only to US Government
 contracts under FAR:
  
                    RESTRICTED RIGHTS LEGEND
  
 Use, reproduction and disclosure by the US Government is
 subject to restrictions as set forth in subparagraphs (a)
 and (c) of the Commercial Computer Software - Restricted
 Rights clause in FAR 52.227-19.
  
 Gaussian, Inc.
 340 Quinnipiac St., Bldg. 40, Wallingford CT 06492
  
  
 ---------------------------------------------------------------
 Warning -- This program may not be used in any manner that
 competes with the business of Gaussian, Inc. or will provide
 assistance to any competitor of Gaussian, Inc.  The licensee
 of this program is prohibited from giving any competitor of
 Gaussian, Inc. access to this program.  By using this program,
 the user acknowledges that Gaussian, Inc. is engaged in the
 business of creating and licensing software in the field of
 computational chemistry and represents and warrants to the
 licensee that it is not a competitor of Gaussian, Inc. and that
 it will not use this program in any manner prohibited above.
 ---------------------------------------------------------------
  

 Cite this work as:
 Gaussian 09, Revision E.01,
 M. J. Frisch, G. W. Trucks, H. B. Schlegel, G. E. Scuseria, 
 M. A. Robb, J. R. Cheeseman, G. Scalmani, V. Barone, B. Mennucci, 
 G. A. Petersson, H. Nakatsuji, M. Caricato, X. Li, H. P. Hratchian, 
 A. F. Izmaylov, J. Bloino, G. Zheng, J. L. Sonnenberg, M. Hada, 
 M. Ehara, K. Toyota, R. Fukuda, J. Hasegawa, M. Ishida, T. Nakajima, 
 Y. Honda, O. Kitao, H. Nakai, T. Vreven, J. A. Montgomery, Jr., 
 J. E. Peralta, F. Ogliaro, M. Bearpark, J. J. Heyd, E. Brothers, 
 K. N. Kudin, V. N. Staroverov, T. Keith, R. Kobayashi, J. Normand, 
 K. Raghavachari, A. Rendell, J. C. Burant, S. S. Iyengar, J. Tomasi, 
 M. Cossi, N. Rega, J. M. Millam, M. Klene, J. E. Knox, J. B. Cross, 
 V. Bakken, C. Adamo, J. Jaramillo, R. Gomperts, R. E. Stratmann, 
 O. Yazyev, A. J. Austin, R. Cammi, C. Pomelli, J. W. Ochterski, 
 R. L. Martin, K. Morokuma, V. G. Zakrzewski, G. A. Voth, 
 P. Salvador, J. J. Dannenberg, S. Dapprich, A. D. Daniels, 
 O. Farkas, J. B. Foresman, J. V. Ortiz, J. Cioslowski, 
 and D. J. Fox, Gaussian, Inc., Wallingford CT, 2013.
 
 ******************************************
 Gaussian 09:  ES64L-G09RevE.01 30-Nov-2015
                25-Jan-2017 
 ******************************************
 %chk=h8.chk
 ----------------------------------------------------------------------
 #t casscf(8,8,nroot=3,fulldiag)/gen scf(tight,novaracc,noincfock) geom
 =nocrowd test
 ----------------------------------------------------------------------
 ----------------------------------------------------------------------
 mbs casscf calculation for a triangular lattice of 8 H atoms (made up 
 of 10 iscosceles triangles h=2.9995b=.384964)
 ----------------------------------------------------------------------
 Symbolic Z-matrix:
 Charge =  0 Multiplicity = 1
 H                     0.        0.        2.9995 
 H                     0.19248   0.        0. 
 H                    -0.19248   0.        0. 
 H                     0.        0.       -2.9995 
 H                     0.38496   0.       -2.9995 
 H                    -0.38496   0.       -2.9995 
 H                     0.19248   0.       -5.999 
 H                    -0.19248   0.       -5.999 
 
                    Distance matrix (angstroms):
                    1          2          3          4          5
     1  H    0.000000
     2  H    3.005670   0.000000
     3  H    3.005670   0.384964   0.000000
     4  H    5.999000   3.005670   3.005670   0.000000
     5  H    6.011339   3.005670   3.054578   0.384964   0.000000
     6  H    6.011339   3.054578   3.005670   0.384964   0.769928
     7  H    9.000558   5.999000   6.011339   3.005670   3.005670
     8  H    9.000558   6.011339   5.999000   3.005670   3.054578
                    6          7          8
     6  H    0.000000
     7  H    3.054578   0.000000
     8  H    3.005670   0.384964   0.000000
 Framework group  C2V[C2(HH),SGV(H6)]
 Deg. of freedom     7
                         Standard orientation:                         
 ---------------------------------------------------------------------
 Center     Atomic      Atomic             Coordinates (Angstroms)
 Number     Number       Type             X           Y           Z
 ---------------------------------------------------------------------
      1          1           0        0.000000    0.000000    5.249125
      2          1           0        0.000000    0.192482    2.249625
      3          1           0       -0.000000   -0.192482    2.249625
      4          1           0        0.000000    0.000000   -0.749875
      5          1           0        0.000000    0.384964   -0.749875
      6          1           0       -0.000000   -0.384964   -0.749875
      7          1           0        0.000000    0.192482   -3.749375
      8          1           0       -0.000000   -0.192482   -3.749375
 ---------------------------------------------------------------------
 Rotational constants (GHZ):   1127.8999090      7.4314414      7.3827980
     8 basis functions,    80 primitive gaussians,     8 cartesian basis functions
     4 alpha electrons        4 beta electrons
       nuclear repulsion energy         9.3736658822 Hartrees.
 NAtoms=    8 NActive=    8 NUniq=    5 SFac= 2.56D+00 NAtFMM=   60 NAOKFM=F Big=F
 ExpMin= 3.16D-02 ExpMax= 1.00D+03 ExpMxC= 1.00D+01 IAcc=3 IRadAn=         5 AccDes= 0.00D+00
 Harris functional with IExCor=  205 and IRadAn=       5 diagonalized for initial guess.
 HarFok:  IExCor=  205 AccDes= 0.00D+00 IRadAn=         5 IDoV= 1 UseB2=F ITyADJ=14
 ICtDFT=  3500011 ScaDFX=  1.000000  1.000000  1.000000  1.000000
 FoFCou: FMM=F IPFlag=           0 FMFlag=      100000 FMFlg1=           0
         NFxFlg=           0 DoJE=T BraDBF=F KetDBF=T FulRan=T
         wScrn=  0.000000 ICntrl=     500 IOpCl=  0 I1Cent=   200000004 NGrid=           0
         NMat0=    1 NMatS0=      1 NMatT0=    0 NMatD0=    1 NMtDS0=    0 NMtDT0=    0
 Petite list used in FoFCou.
 Initial guess orbital symmetries:
       Occupied  (A1) (A1) (A1) (A1)
       Virtual   (B2) (B2) (B2) (A1)
 The electronic state of the initial guess is 1-A1.
          Truncation Level=               99999
          a=  4          b=  0          c=  4
          a=N/2 - s   b=2s   c=n- (a+b)
          no. active orbitals (n)  8
          no. active ELECTRONS (N)=  8
                                                  IRREPS TO BE RETAINED = 1 2 3 4
                                                  GROUP IRREP. MULT. TABLE
                                                      1    2    3    4
                                                      2    1    4    3
                                                      3    4    1    2
                                                      4    3    2    1
                                                  IRREP. LABELS FOR ORBITALS
                                                   1 1 1 1 4 4 4 1
          BOTTOM WEIGHT= 20     TOP WEIGHT= 52
          Configuration         1 Symmetry 1 11110000
          Configuration         2 Symmetry 4 111ab000
          Configuration         3 Symmetry 1 11101000
          Configuration         4 Symmetry 4 11a1b000
          Configuration         5 Symmetry 4 111a0b00
          Configuration         6 Symmetry 1 11ab1000
          Configuration         7 Symmetry 1 1110ab00
          Configuration         8 Symmetry 4 1a11b000
          Configuration         9 Symmetry 4 11a10b00
          Configuration        10 Symmetry 4 111a00b0
          Configuration        11 Symmetry 1 11011000
          Configuration        12 Symmetry 1 1a1b1000
          Configuration        13 Symmetry 1 11abab00
          Configuration        14 Symmetry 1 11100100
          Configuration        15 Symmetry 1 1110a0b0
          Configuration        16 Symmetry 4 a111b000
          Configuration        17 Symmetry 4 1a110b00
          Configuration        18 Symmetry 1 11aabb00
          Configuration        19 Symmetry 4 11a100b0
          Configuration        20 Symmetry 1 111a000b
          Configuration        21 Symmetry 1 1ab11000
          Configuration        22 Symmetry 1 1101ab00
          Configuration        23 Symmetry 1 a11b1000
          Configuration        24 Symmetry 1 1a1bab00
          Configuration        25 Symmetry 1 11ab0100
          Configuration        26 Symmetry 4 11a01b00
          Configuration        27 Symmetry 1 11aba0b0
          Configuration        28 Symmetry 1 11100ab0
          Configuration        29 Symmetry 4 1110a00b
          Configuration        30 Symmetry 4 a1110b00
          Configuration        31 Symmetry 1 1a1abb00
          Configuration        32 Symmetry 4 1a1100b0
          Configuration        33 Symmetry 1 11aab0b0
          Configuration        34 Symmetry 1 11a1000b
          Configuration        35 Symmetry 1 10111000
          Configuration        36 Symmetry 1 a1b11000
          Configuration        37 Symmetry 1 1ab1ab00
          Configuration        38 Symmetry 1 11010100
          Configuration        39 Symmetry 4 110a1b00
          Configuration        40 Symmetry 1 1101a0b0
          Configuration        41 Symmetry 1 a11bab00
          Configuration        42 Symmetry 1 1a1b0100
          Configuration        43 Symmetry 4 1a101b00
          Configuration        44 Symmetry 1 1a1ba0b0
          Configuration        45 Symmetry 4 11a0b100
          Configuration        46 Symmetry 1 11ab0ab0
          Configuration        47 Symmetry 4 11a010b0
          Configuration        48 Symmetry 4 11aba00b
          Configuration        49 Symmetry 1 11100010
          Configuration        50 Symmetry 4 11100a0b
          Configuration        51 Symmetry 1 a11abb00
          Configuration        52 Symmetry 4 a11100b0
          Configuration        53 Symmetry 1 1aa1bb00
          Configuration        54 Symmetry 1 1a1ab0b0
          Configuration        55 Symmetry 1 1a11000b
          Configuration        56 Symmetry 1 11aa0bb0
          Configuration        57 Symmetry 4 11aab00b
          Configuration        58 Symmetry 1 ab111000
          Configuration        59 Symmetry 1 1011ab00
          Configuration        60 Symmetry 1 a1b1ab00
          Configuration        61 Symmetry 1 1ab10100
          Configuration        62 Symmetry 4 1aba1b00
          Configuration        63 Symmetry 1 1ab1a0b0
          Configuration        64 Symmetry 4 110ab100
          Configuration        65 Symmetry 1 11010ab0
          Configuration        66 Symmetry 4 110a10b0
          Configuration        67 Symmetry 4 1101a00b
          Configuration        68 Symmetry 1 a11b0100
          Configuration        69 Symmetry 4 a1101b00
          Configuration        70 Symmetry 1 a11ba0b0
          Configuration        71 Symmetry 4 1a10b100
          Configuration        72 Symmetry 1 1a1b0ab0
          Configuration        73 Symmetry 4 1aab1b00
          Configuration        74 Symmetry 4 1a1010b0
          Configuration        75 Symmetry 4 1a1ba00b
          Configuration        76 Symmetry 4 11a0bab0
          Configuration        77 Symmetry 1 11ab0010
          Configuration        78 Symmetry 4 11ab0a0b
          Configuration        79 Symmetry 4 11a0abb0
          Configuration        80 Symmetry 1 11a0100b
          Configuration        81 Symmetry 4 111000ab
          Configuration        82 Symmetry 1 a1a1bb00
          Configuration        83 Symmetry 1 a11ab0b0
          Configuration        84 Symmetry 1 a111000b
          Configuration        85 Symmetry 1 1aa1b0b0
          Configuration        86 Symmetry 1 1a1a0bb0
          Configuration        87 Symmetry 4 1a1ab00b
          Configuration        88 Symmetry 4 11aa0b0b
          Configuration        89 Symmetry 1 01111000
          Configuration        90 Symmetry 1 ab11ab00
          Configuration        91 Symmetry 1 10110100
          Configuration        92 Symmetry 4 101a1b00
          Configuration        93 Symmetry 1 1011a0b0
          Configuration        94 Symmetry 1 a1b10100
          Configuration        95 Symmetry 4 a1ba1b00
          Configuration        96 Symmetry 1 a1b1a0b0
          Configuration        97 Symmetry 4 1abab100
          Configuration        98 Symmetry 1 1ab10ab0
          Configuration        99 Symmetry 4 1a011b00
          Configuration       100 Symmetry 4 1aba10b0
          Configuration       101 Symmetry 4 1ab1a00b
          Configuration       102 Symmetry 1 11001100
          Configuration       103 Symmetry 4 110abab0
          Configuration       104 Symmetry 1 11010010
          Configuration       105 Symmetry 4 11010a0b
          Configuration       106 Symmetry 4 110aabb0
          Configuration       107 Symmetry 1 110a100b
          Configuration       108 Symmetry 4 a110b100
          Configuration       109 Symmetry 1 a11b0ab0
          Configuration       110 Symmetry 4 a1ab1b00
          Configuration       111 Symmetry 4 a11010b0
          Configuration       112 Symmetry 4 a11ba00b
          Configuration       113 Symmetry 4 1aabb100
          Configuration       114 Symmetry 4 1a10bab0
          Configuration       115 Symmetry 1 1a1b0010
          Configuration       116 Symmetry 4 1a1b0a0b
          Configuration       117 Symmetry 4 1aab10b0
          Configuration       118 Symmetry 4 1a10abb0
          Configuration       119 Symmetry 1 1a10100b
          Configuration       120 Symmetry 4 11a0b010
          Configuration       121 Symmetry 4 11a001b0
          Configuration       122 Symmetry 1 11a0ba0b
          Configuration       123 Symmetry 4 11ab00ab
          Configuration       124 Symmetry 1 11a0ab0b
          Configuration       125 Symmetry 1 11100001
          Configuration       126 Symmetry 1 aa11bb00
          Configuration       127 Symmetry 1 a1a1b0b0
          Configuration       128 Symmetry 1 a11a0bb0
          Configuration       129 Symmetry 4 a11ab00b
          Configuration       130 Symmetry 1 1aa10bb0
          Configuration       131 Symmetry 4 1aa1b00b
          Configuration       132 Symmetry 4 1a1a0b0b
          Configuration       133 Symmetry 4 11aa00bb
          Configuration       134 Symmetry 1 0111ab00
          Configuration       135 Symmetry 1 ab110100
          Configuration       136 Symmetry 4 ab1a1b00
          Configuration       137 Symmetry 1 ab11a0b0
          Configuration       138 Symmetry 4 101ab100
          Configuration       139 Symmetry 1 10110ab0
          Configuration       140 Symmetry 4 10a11b00
          Configuration       141 Symmetry 4 101a10b0
          Configuration       142 Symmetry 4 1011a00b
          Configuration       143 Symmetry 4 a1bab100
          Configuration       144 Symmetry 1 a1b10ab0
          Configuration       145 Symmetry 4 a1011b00
          Configuration       146 Symmetry 4 a1ba10b0
          Configuration       147 Symmetry 4 a1b1a00b
          Configuration       148 Symmetry 1 1ab01100
          Configuration       149 Symmetry 4 1a01b100
          Configuration       150 Symmetry 4 1ababab0
          Configuration       151 Symmetry 1 1ab10010
          Configuration       152 Symmetry 4 1ab10a0b
          Configuration       153 Symmetry 4 1a0110b0
          Configuration       154 Symmetry 4 1abaabb0
          Configuration       155 Symmetry 1 1aba100b
          Configuration       156 Symmetry 1 11001ab0
          Configuration       157 Symmetry 4 110ab010
          Configuration       158 Symmetry 4 110a01b0
          Configuration       159 Symmetry 1 110aba0b
          Configuration       160 Symmetry 4 110100ab
          Configuration       161 Symmetry 1 110aab0b
          Configuration       162 Symmetry 4 a1abb100
          Configuration       163 Symmetry 4 a110bab0
          Configuration       164 Symmetry 1 a11b0010
          Configuration       165 Symmetry 4 a11b0a0b
          Configuration       166 Symmetry 4 aa1b1b00
          Configuration       167 Symmetry 4 a1ab10b0
          Configuration       168 Symmetry 4 a110abb0
          Configuration       169 Symmetry 1 a110100b
          Configuration       170 Symmetry 4 1aabbab0
          Configuration       171 Symmetry 4 1a10b010
          Configuration       172 Symmetry 4 1a1001b0
          Configuration       173 Symmetry 1 1a10ba0b
          Configuration       174 Symmetry 4 1a1b00ab
          Configuration       175 Symmetry 4 1aababb0
          Configuration       176 Symmetry 1 1aab100b
          Configuration       177 Symmetry 1 1a10ab0b
          Configuration       178 Symmetry 4 11a00b10
          Configuration       179 Symmetry 1 11a0b0ab
          Configuration       180 Symmetry 1 11a0010b
          Configuration       181 Symmetry 1 11ab0001
          Configuration       182 Symmetry 1 11a0a0bb
          Configuration       183 Symmetry 1 aa11b0b0
          Configuration       184 Symmetry 1 a1a10bb0
          Configuration       185 Symmetry 4 a1a1b00b
          Configuration       186 Symmetry 4 a11a0b0b
          Configuration       187 Symmetry 4 1aaabbb0
          Configuration       188 Symmetry 4 1aa10b0b
          Configuration       189 Symmetry 4 1a1a00bb
          Configuration       190 Symmetry 1 01110100
          Configuration       191 Symmetry 4 011a1b00
          Configuration       192 Symmetry 1 0111a0b0
          Configuration       193 Symmetry 4 ab1ab100
          Configuration       194 Symmetry 1 ab110ab0
          Configuration       195 Symmetry 4 aba11b00
          Configuration       196 Symmetry 4 ab1a10b0
          Configuration       197 Symmetry 4 ab11a00b
          Configuration       198 Symmetry 1 10101100
          Configuration       199 Symmetry 4 10a1b100
          Configuration       200 Symmetry 4 101abab0
          Configuration       201 Symmetry 1 10110010
          Configuration       202 Symmetry 4 10110a0b
          Configuration       203 Symmetry 4 10a110b0
          Configuration       204 Symmetry 4 101aabb0
          Configuration       205 Symmetry 1 101a100b
          Configuration       206 Symmetry 1 a1b01100
          Configuration       207 Symmetry 4 a101b100
          Configuration       208 Symmetry 4 a1babab0
          Configuration       209 Symmetry 1 a1b10010
          Configuration       210 Symmetry 4 a1b10a0b
          Configuration       211 Symmetry 4 aab11b00
          Configuration       212 Symmetry 4 a10110b0
          Configuration       213 Symmetry 4 a1baabb0
          Configuration       214 Symmetry 1 a1ba100b
          Configuration       215 Symmetry 1 1a0b1100
          Configuration       216 Symmetry 1 1ab01ab0
          Configuration       217 Symmetry 4 1a01bab0
          Configuration       218 Symmetry 4 1abab010
          Configuration       219 Symmetry 4 1aba01b0
          Configuration       220 Symmetry 1 1ababa0b
          Configuration       221 Symmetry 4 1ab100ab
          Configuration       222 Symmetry 4 1a01abb0
          Configuration       223 Symmetry 1 1a01100b
          Configuration       224 Symmetry 1 1abaab0b
          Configuration       225 Symmetry 1 11001010
          Configuration       226 Symmetry 1 1100a1b0
          Configuration       227 Symmetry 4 11001a0b
          Configuration       228 Symmetry 4 110a0b10
          Configuration       229 Symmetry 1 110ab0ab
          Configuration       230 Symmetry 1 110a010b
          Configuration       231 Symmetry 1 11010001
          Configuration       232 Symmetry 1 110aa0bb
          Configuration       233 Symmetry 4 aa1bb100
          Configuration       234 Symmetry 4 a1abbab0
          Configuration       235 Symmetry 4 a110b010
          Configuration       236 Symmetry 4 a11001b0
          Configuration       237 Symmetry 1 a110ba0b
          Configuration       238 Symmetry 4 a11b00ab
          Configuration       239 Symmetry 4 aa1b10b0
          Configuration       240 Symmetry 4 a1ababb0
          Configuration       241 Symmetry 1 a1ab100b
          Configuration       242 Symmetry 1 a110ab0b
          Configuration       243 Symmetry 4 1aabb010
          Configuration       244 Symmetry 4 1aab01b0
          Configuration       245 Symmetry 1 1aabba0b
          Configuration       246 Symmetry 4 1a100b10
          Configuration       247 Symmetry 1 1a10b0ab
          Configuration       248 Symmetry 1 1a10010b
          Configuration       249 Symmetry 1 1a1b0001
          Configuration       250 Symmetry 1 1aa01bb0
          Configuration       251 Symmetry 1 1aabab0b
          Configuration       252 Symmetry 1 1a10a0bb
          Configuration       253 Symmetry 1 11a00bab
          Configuration       254 Symmetry 4 11a0b001
          Configuration       255 Symmetry 1 11a00abb
          Configuration       256 Symmetry 1 aa110bb0
          Configuration       257 Symmetry 4 aa11b00b
          Configuration       258 Symmetry 4 a1aabbb0
          Configuration       259 Symmetry 4 a1a10b0b
          Configuration       260 Symmetry 4 a11a00bb
          Configuration       261 Symmetry 1 1aaabb0b
          Configuration       262 Symmetry 4 1aa100bb
          Configuration       263 Symmetry 4 011ab100
          Configuration       264 Symmetry 1 01110ab0
          Configuration       265 Symmetry 4 01a11b00
          Configuration       266 Symmetry 4 011a10b0
          Configuration       267 Symmetry 4 0111a00b
          Configuration       268 Symmetry 1 ab101100
          Configuration       269 Symmetry 4 aba1b100
          Configuration       270 Symmetry 4 ab1abab0
          Configuration       271 Symmetry 1 ab110010
          Configuration       272 Symmetry 4 ab110a0b
          Configuration       273 Symmetry 4 a0111b00
          Configuration       274 Symmetry 4 aba110b0
          Configuration       275 Symmetry 4 ab1aabb0
          Configuration       276 Symmetry 1 ab1a100b
          Configuration       277 Symmetry 1 10ab1100
          Configuration       278 Symmetry 1 10101ab0
          Configuration       279 Symmetry 4 10a1bab0
          Configuration       280 Symmetry 4 101ab010
          Configuration       281 Symmetry 4 101a01b0
          Configuration       282 Symmetry 1 101aba0b
          Configuration       283 Symmetry 4 101100ab
          Configuration       284 Symmetry 4 10a1abb0
          Configuration       285 Symmetry 1 10a1100b
          Configuration       286 Symmetry 1 101aab0b
          Configuration       287 Symmetry 1 a10b1100
          Configuration       288 Symmetry 1 a1b01ab0
          Configuration       289 Symmetry 4 aab1b100
          Configuration       290 Symmetry 4 a101bab0
          Configuration       291 Symmetry 4 a1bab010
          Configuration       292 Symmetry 4 a1ba01b0
          Configuration       293 Symmetry 1 a1baba0b
          Configuration       294 Symmetry 4 a1b100ab
          Configuration       295 Symmetry 4 aab110b0
          Configuration       296 Symmetry 4 a101abb0
          Configuration       297 Symmetry 1 a101100b
          Configuration       298 Symmetry 1 a1baab0b
          Configuration       299 Symmetry 1 1a0b1ab0
          Configuration       300 Symmetry 1 1ab01010
          Configuration       301 Symmetry 1 1ab0a1b0
          Configuration       302 Symmetry 4 1ab01a0b
          Configuration       303 Symmetry 4 1a01b010
          Configuration       304 Symmetry 4 1a0101b0
          Configuration       305 Symmetry 1 1a01ba0b
          Configuration       306 Symmetry 4 1aba0b10
          Configuration       307 Symmetry 1 1abab0ab
          Configuration       308 Symmetry 1 1aba010b
          Configuration       309 Symmetry 1 1ab10001
          Configuration       310 Symmetry 1 1a0a1bb0
          Configuration       311 Symmetry 1 1a01ab0b
          Configuration       312 Symmetry 1 1abaa0bb
          Configuration       313 Symmetry 1 1100ab10
          Configuration       314 Symmetry 4 110010ab
          Configuration       315 Symmetry 4 1100a10b
          Configuration       316 Symmetry 1 110a0bab
          Configuration       317 Symmetry 4 110ab001
          Configuration       318 Symmetry 1 110a0abb
          Configuration       319 Symmetry 4 aa1bbab0
          Configuration       320 Symmetry 4 a1abb010
          Configuration       321 Symmetry 4 a1ab01b0
          Configuration       322 Symmetry 1 a1abba0b
          Configuration       323 Symmetry 4 a1100b10
          Configuration       324 Symmetry 1 a110b0ab
          Configuration       325 Symmetry 1 a110010b
          Configuration       326 Symmetry 1 a11b0001
          Configuration       327 Symmetry 4 aa1babb0
          Configuration       328 Symmetry 1 aa1b100b
          Configuration       329 Symmetry 1 a1a01bb0
          Configuration       330 Symmetry 1 a1abab0b
          Configuration       331 Symmetry 1 a110a0bb
          Configuration       332 Symmetry 4 1aab0b10
          Configuration       333 Symmetry 1 1aabb0ab
          Configuration       334 Symmetry 1 1aa0b1b0
          Configuration       335 Symmetry 1 1aab010b
          Configuration       336 Symmetry 1 1a100bab
          Configuration       337 Symmetry 4 1a10b001
          Configuration       338 Symmetry 1 1a100abb
          Configuration       339 Symmetry 4 1aa01b0b
          Configuration       340 Symmetry 1 1aaba0bb
          Configuration       341 Symmetry 4 11a00b01
          Configuration       342 Symmetry 1 11a0001b
          Configuration       343 Symmetry 4 aa1abbb0
          Configuration       344 Symmetry 4 aa110b0b
          Configuration       345 Symmetry 1 a1aabb0b
          Configuration       346 Symmetry 4 a1a100bb
          Configuration       347 Symmetry 1 1aaab0bb
          Configuration       348 Symmetry 1 01101100
          Configuration       349 Symmetry 4 01a1b100
          Configuration       350 Symmetry 4 011abab0
          Configuration       351 Symmetry 1 01110010
          Configuration       352 Symmetry 4 01110a0b
          Configuration       353 Symmetry 4 0a111b00
          Configuration       354 Symmetry 4 01a110b0
          Configuration       355 Symmetry 4 011aabb0
          Configuration       356 Symmetry 1 011a100b
          Configuration       357 Symmetry 1 abab1100
          Configuration       358 Symmetry 1 ab101ab0
          Configuration       359 Symmetry 4 a011b100
          Configuration       360 Symmetry 4 aba1bab0
          Configuration       361 Symmetry 4 ab1ab010
          Configuration       362 Symmetry 4 ab1a01b0
          Configuration       363 Symmetry 1 ab1aba0b
          Configuration       364 Symmetry 4 ab1100ab
          Configuration       365 Symmetry 4 a01110b0
          Configuration       366 Symmetry 4 aba1abb0
          Configuration       367 Symmetry 1 aba1100b
          Configuration       368 Symmetry 1 ab1aab0b
          Configuration       369 Symmetry 1 10011100
          Configuration       370 Symmetry 1 10ab1ab0
          Configuration       371 Symmetry 1 10101010
          Configuration       372 Symmetry 1 1010a1b0
          Configuration       373 Symmetry 4 10101a0b
          Configuration       374 Symmetry 4 10a1b010
          Configuration       375 Symmetry 4 10a101b0
          Configuration       376 Symmetry 1 10a1ba0b
          Configuration       377 Symmetry 4 101a0b10
          Configuration       378 Symmetry 1 101ab0ab
          Configuration       379 Symmetry 1 101a010b
          Configuration       380 Symmetry 1 10110001
          Configuration       381 Symmetry 1 10aa1bb0
          Configuration       382 Symmetry 1 10a1ab0b
          Configuration       383 Symmetry 1 101aa0bb
          Configuration       384 Symmetry 1 aabb1100
          Configuration       385 Symmetry 1 a10b1ab0
          Configuration       386 Symmetry 1 a1b01010
          Configuration       387 Symmetry 1 a1b0a1b0
          Configuration       388 Symmetry 4 a1b01a0b
          Configuration       389 Symmetry 4 aab1bab0
          Configuration       390 Symmetry 4 a101b010
          Configuration       391 Symmetry 4 a10101b0
          Configuration       392 Symmetry 1 a101ba0b
          Configuration       393 Symmetry 4 a1ba0b10
          Configuration       394 Symmetry 1 a1bab0ab
          Configuration       395 Symmetry 1 a1ba010b
          Configuration       396 Symmetry 1 a1b10001
          Configuration       397 Symmetry 4 aab1abb0
          Configuration       398 Symmetry 1 aab1100b
          Configuration       399 Symmetry 1 a10a1bb0
          Configuration       400 Symmetry 1 a101ab0b
          Configuration       401 Symmetry 1 a1baa0bb
          Configuration       402 Symmetry 1 1a0b1010
          Configuration       403 Symmetry 1 1a0ba1b0
          Configuration       404 Symmetry 4 1a0b1a0b
          Configuration       405 Symmetry 1 1ab0ab10
          Configuration       406 Symmetry 4 1ab010ab
          Configuration       407 Symmetry 4 1ab0a10b
          Configuration       408 Symmetry 4 1a010b10
          Configuration       409 Symmetry 1 1a01b0ab
          Configuration       410 Symmetry 1 1a0ab1b0
          Configuration       411 Symmetry 1 1a01010b
          Configuration       412 Symmetry 1 1aba0bab
          Configuration       413 Symmetry 4 1abab001
          Configuration       414 Symmetry 1 1aba0abb
          Configuration       415 Symmetry 4 1a0a1b0b
          Configuration       416 Symmetry 1 1a01a0bb
          Configuration       417 Symmetry 1 11000110
          Configuration       418 Symmetry 4 1100abab
          Configuration       419 Symmetry 1 11001001
          Configuration       420 Symmetry 4 1100aabb
          Configuration       421 Symmetry 4 110a0b01
          Configuration       422 Symmetry 1 110a001b
          Configuration       423 Symmetry 4 aa1bb010
          Configuration       424 Symmetry 4 aa1b01b0
          Configuration       425 Symmetry 1 aa1bba0b
          Configuration       426 Symmetry 4 a1ab0b10
          Configuration       427 Symmetry 1 a1abb0ab
          Configuration       428 Symmetry 1 a1a0b1b0
          Configuration       429 Symmetry 1 a1ab010b
          Configuration       430 Symmetry 1 a1100bab
          Configuration       431 Symmetry 4 a110b001
          Configuration       432 Symmetry 1 a1100abb
          Configuration       433 Symmetry 1 aa101bb0
          Configuration       434 Symmetry 1 aa1bab0b
          Configuration       435 Symmetry 4 a1a01b0b
          Configuration       436 Symmetry 1 a1aba0bb
          Configuration       437 Symmetry 1 1aa0bb10
          Configuration       438 Symmetry 1 1aab0bab
          Configuration       439 Symmetry 4 1aabb001
          Configuration       440 Symmetry 4 1aa0b10b
          Configuration       441 Symmetry 1 1aab0abb
          Configuration       442 Symmetry 4 1a100b01
          Configuration       443 Symmetry 1 1a10001b
          Configuration       444 Symmetry 4 1aa010bb
          Configuration       445 Symmetry 4 11a000b1
          Configuration       446 Symmetry 4 aaa1bbb0
          Configuration       447 Symmetry 1 aa1abb0b
          Configuration       448 Symmetry 4 aa1100bb
          Configuration       449 Symmetry 1 a1aab0bb
          Configuration       450 Symmetry 1 1aaa0bbb
          Configuration       451 Symmetry 1 01ab1100
          Configuration       452 Symmetry 1 01101ab0
          Configuration       453 Symmetry 4 0a11b100
          Configuration       454 Symmetry 4 01a1bab0
          Configuration       455 Symmetry 4 011ab010
          Configuration       456 Symmetry 4 011a01b0
          Configuration       457 Symmetry 1 011aba0b
          Configuration       458 Symmetry 4 011100ab
          Configuration       459 Symmetry 4 0a1110b0
          Configuration       460 Symmetry 4 01a1abb0
          Configuration       461 Symmetry 1 01a1100b
          Configuration       462 Symmetry 1 011aab0b
          Configuration       463 Symmetry 1 ab011100
          Configuration       464 Symmetry 1 a01b1100
          Configuration       465 Symmetry 1 abab1ab0
          Configuration       466 Symmetry 1 ab101010
          Configuration       467 Symmetry 1 ab10a1b0
          Configuration       468 Symmetry 4 ab101a0b
          Configuration       469 Symmetry 4 a011bab0
          Configuration       470 Symmetry 4 aba1b010
          Configuration       471 Symmetry 4 aba101b0
          Configuration       472 Symmetry 1 aba1ba0b
          Configuration       473 Symmetry 4 ab1a0b10
          Configuration       474 Symmetry 1 ab1ab0ab
          Configuration       475 Symmetry 1 ab1a010b
          Configuration       476 Symmetry 1 ab110001
          Configuration       477 Symmetry 4 a011abb0
          Configuration       478 Symmetry 1 a011100b
          Configuration       479 Symmetry 1 abaa1bb0
          Configuration       480 Symmetry 1 aba1ab0b
          Configuration       481 Symmetry 1 ab1aa0bb
          Configuration       482 Symmetry 1 10011ab0
          Configuration       483 Symmetry 1 10ab1010
          Configuration       484 Symmetry 1 10aba1b0
          Configuration       485 Symmetry 4 10ab1a0b
          Configuration       486 Symmetry 1 1010ab10
          Configuration       487 Symmetry 4 101010ab
          Configuration       488 Symmetry 4 1010a10b
          Configuration       489 Symmetry 4 10a10b10
          Configuration       490 Symmetry 1 10a1b0ab
          Configuration       491 Symmetry 1 10aab1b0
          Configuration       492 Symmetry 1 10a1010b
          Configuration       493 Symmetry 1 101a0bab
          Configuration       494 Symmetry 4 101ab001
          Configuration       495 Symmetry 1 101a0abb
          Configuration       496 Symmetry 4 10aa1b0b
          Configuration       497 Symmetry 1 10a1a0bb
          Configuration       498 Symmetry 1 aabb1ab0
          Configuration       499 Symmetry 1 a10b1010
          Configuration       500 Symmetry 1 a10ba1b0
          Configuration       501 Symmetry 4 a10b1a0b
          Configuration       502 Symmetry 1 a1b0ab10
          Configuration       503 Symmetry 4 a1b010ab
          Configuration       504 Symmetry 4 a1b0a10b
          Configuration       505 Symmetry 4 aab1b010
          Configuration       506 Symmetry 4 aab101b0
          Configuration       507 Symmetry 1 aab1ba0b
          Configuration       508 Symmetry 4 a1010b10
          Configuration       509 Symmetry 1 a101b0ab
          Configuration       510 Symmetry 1 a10ab1b0
          Configuration       511 Symmetry 1 a101010b
          Configuration       512 Symmetry 1 a1ba0bab
          Configuration       513 Symmetry 4 a1bab001
          Configuration       514 Symmetry 1 a1ba0abb
          Configuration       515 Symmetry 1 aaba1bb0
          Configuration       516 Symmetry 1 aab1ab0b
          Configuration       517 Symmetry 4 a10a1b0b
          Configuration       518 Symmetry 1 a101a0bb
          Configuration       519 Symmetry 1 1a0bab10
          Configuration       520 Symmetry 4 1a0b10ab
          Configuration       521 Symmetry 4 1a0011b0
          Configuration       522 Symmetry 4 1a0ba10b
          Configuration       523 Symmetry 1 1ab00110
          Configuration       524 Symmetry 4 1ab0abab
          Configuration       525 Symmetry 1 1ab01001
          Configuration       526 Symmetry 4 1ab0aabb
          Configuration       527 Symmetry 1 1a0abb10
          Configuration       528 Symmetry 1 1a010bab
          Configuration       529 Symmetry 4 1a01b001
          Configuration       530 Symmetry 4 1a0ab10b
          Configuration       531 Symmetry 1 1a010abb
          Configuration       532 Symmetry 4 1aba0b01
          Configuration       533 Symmetry 1 1aba001b
          Configuration       534 Symmetry 4 1a0a10bb
          Configuration       535 Symmetry 4 110001ab
          Configuration       536 Symmetry 1 1100ab01
          Configuration       537 Symmetry 4 1100a01b
          Configuration       538 Symmetry 4 110a00b1
          Configuration       539 Symmetry 4 aa1b0b10
          Configuration       540 Symmetry 1 aa1bb0ab
          Configuration       541 Symmetry 1 aa10b1b0
          Configuration       542 Symmetry 1 aa1b010b
          Configuration       543 Symmetry 1 a1a0bb10
          Configuration       544 Symmetry 1 a1ab0bab
          Configuration       545 Symmetry 4 a1abb001
          Configuration       546 Symmetry 4 a1a0b10b
          Configuration       547 Symmetry 1 a1ab0abb
          Configuration       548 Symmetry 4 a1100b01
          Configuration       549 Symmetry 1 a110001b
          Configuration       550 Symmetry 1 aaab1bb0
          Configuration       551 Symmetry 4 aa101b0b
          Configuration       552 Symmetry 1 aa1ba0bb
          Configuration       553 Symmetry 4 a1a010bb
          Configuration       554 Symmetry 4 1aa0bbab
          Configuration       555 Symmetry 4 1aab0b01
          Configuration       556 Symmetry 1 1aab001b
          Configuration       557 Symmetry 4 1aa0babb
          Configuration       558 Symmetry 4 1a1000b1
          Configuration       559 Symmetry 4 1aa0abbb
          Configuration       560 Symmetry 1 aaa1bb0b
          Configuration       561 Symmetry 1 aa1ab0bb
          Configuration       562 Symmetry 1 a1aa0bbb
          Configuration       563 Symmetry 1 01011100
          Configuration       564 Symmetry 1 0a1b1100
          Configuration       565 Symmetry 1 01ab1ab0
          Configuration       566 Symmetry 1 01101010
          Configuration       567 Symmetry 1 0110a1b0
          Configuration       568 Symmetry 4 01101a0b
          Configuration       569 Symmetry 4 0a11bab0
          Configuration       570 Symmetry 4 01a1b010
          Configuration       571 Symmetry 4 01a101b0
          Configuration       572 Symmetry 1 01a1ba0b
          Configuration       573 Symmetry 4 011a0b10
          Configuration       574 Symmetry 1 011ab0ab
          Configuration       575 Symmetry 1 011a010b
          Configuration       576 Symmetry 1 01110001
          Configuration       577 Symmetry 4 0a11abb0
          Configuration       578 Symmetry 1 0a11100b
          Configuration       579 Symmetry 1 01aa1bb0
          Configuration       580 Symmetry 1 01a1ab0b
          Configuration       581 Symmetry 1 011aa0bb
          Configuration       582 Symmetry 1 a0b11100
          Configuration       583 Symmetry 1 ab011ab0
          Configuration       584 Symmetry 1 a01b1ab0
          Configuration       585 Symmetry 1 abab1010
          Configuration       586 Symmetry 1 ababa1b0
          Configuration       587 Symmetry 4 abab1a0b
          Configuration       588 Symmetry 1 ab10ab10
          Configuration       589 Symmetry 4 ab1010ab
          Configuration       590 Symmetry 4 ab10a10b
          Configuration       591 Symmetry 4 a011b010
          Configuration       592 Symmetry 4 a01101b0
          Configuration       593 Symmetry 1 a011ba0b
          Configuration       594 Symmetry 4 aba10b10
          Configuration       595 Symmetry 1 aba1b0ab
          Configuration       596 Symmetry 1 abaab1b0
          Configuration       597 Symmetry 1 aba1010b
          Configuration       598 Symmetry 1 ab1a0bab
          Configuration       599 Symmetry 4 ab1ab001
          Configuration       600 Symmetry 1 ab1a0abb
          Configuration       601 Symmetry 1 a01a1bb0
          Configuration       602 Symmetry 1 a011ab0b
          Configuration       603 Symmetry 4 abaa1b0b
          Configuration       604 Symmetry 1 aba1a0bb
          Configuration       605 Symmetry 1 10011010
          Configuration       606 Symmetry 1 1001a1b0
          Configuration       607 Symmetry 4 10011a0b
          Configuration       608 Symmetry 1 10abab10
          Configuration       609 Symmetry 4 10ab10ab
          Configuration       610 Symmetry 4 10a011b0
          Configuration       611 Symmetry 4 10aba10b
          Configuration       612 Symmetry 1 10100110
          Configuration       613 Symmetry 4 1010abab
          Configuration       614 Symmetry 1 10101001
          Configuration       615 Symmetry 4 1010aabb
          Configuration       616 Symmetry 1 10aabb10
          Configuration       617 Symmetry 1 10a10bab
          Configuration       618 Symmetry 4 10a1b001
          Configuration       619 Symmetry 4 10aab10b
          Configuration       620 Symmetry 1 10a10abb
          Configuration       621 Symmetry 4 101a0b01
          Configuration       622 Symmetry 1 101a001b
          Configuration       623 Symmetry 4 10aa10bb
          Configuration       624 Symmetry 1 aabb1010
          Configuration       625 Symmetry 1 aabba1b0
          Configuration       626 Symmetry 4 aabb1a0b
          Configuration       627 Symmetry 1 a10bab10
          Configuration       628 Symmetry 4 a10b10ab
          Configuration       629 Symmetry 4 a10011b0
          Configuration       630 Symmetry 4 a10ba10b
          Configuration       631 Symmetry 1 a1b00110
          Configuration       632 Symmetry 4 a1b0abab
          Configuration       633 Symmetry 1 a1b01001
          Configuration       634 Symmetry 4 a1b0aabb
          Configuration       635 Symmetry 4 aab10b10
          Configuration       636 Symmetry 1 aab1b0ab
          Configuration       637 Symmetry 1 aabab1b0
          Configuration       638 Symmetry 1 aab1010b
          Configuration       639 Symmetry 1 a10abb10
          Configuration       640 Symmetry 1 a1010bab
          Configuration       641 Symmetry 4 a101b001
          Configuration       642 Symmetry 4 a10ab10b
          Configuration       643 Symmetry 1 a1010abb
          Configuration       644 Symmetry 4 a1ba0b01
          Configuration       645 Symmetry 1 a1ba001b
          Configuration       646 Symmetry 1 aa011bb0
          Configuration       647 Symmetry 4 aaba1b0b
          Configuration       648 Symmetry 1 aab1a0bb
          Configuration       649 Symmetry 4 a10a10bb
          Configuration       650 Symmetry 1 1a0b0110
          Configuration       651 Symmetry 4 1a001b10
          Configuration       652 Symmetry 4 1a0babab
          Configuration       653 Symmetry 1 1a0b1001
          Configuration       654 Symmetry 1 1a00110b
          Configuration       655 Symmetry 4 1a0baabb
          Configuration       656 Symmetry 4 1ab001ab
          Configuration       657 Symmetry 1 1ab0ab01
          Configuration       658 Symmetry 4 1ab0a01b
          Configuration       659 Symmetry 4 1a0abbab
          Configuration       660 Symmetry 4 1a010b01
          Configuration       661 Symmetry 1 1a01001b
          Configuration       662 Symmetry 4 1a0ababb
          Configuration       663 Symmetry 4 1aba00b1
          Configuration       664 Symmetry 4 1a0aabbb
          Configuration       665 Symmetry 1 11000101
          Configuration       666 Symmetry 4 11000a1b
          Configuration       667 Symmetry 1 1100a0b1
          Configuration       668 Symmetry 1 aa10bb10
          Configuration       669 Symmetry 1 aa1b0bab
          Configuration       670 Symmetry 4 aa1bb001
          Configuration       671 Symmetry 1 aaabb1b0
          Configuration       672 Symmetry 4 aa10b10b
          Configuration       673 Symmetry 1 aa1b0abb
          Configuration       674 Symmetry 4 a1a0bbab
          Configuration       675 Symmetry 4 a1ab0b01
          Configuration       676 Symmetry 1 a1ab001b
          Configuration       677 Symmetry 4 a1a0babb
          Configuration       678 Symmetry 4 a11000b1
          Configuration       679 Symmetry 4 aaab1b0b
          Configuration       680 Symmetry 4 aa1010bb
          Configuration       681 Symmetry 4 a1a0abbb
          Configuration       682 Symmetry 1 1aa0bb01
          Configuration       683 Symmetry 4 1aa0b01b
          Configuration       684 Symmetry 4 1aab00b1
          Configuration       685 Symmetry 4 1aa001bb
          Configuration       686 Symmetry 1 aaa1b0bb
          Configuration       687 Symmetry 1 aa1a0bbb
          Configuration       688 Symmetry 1 0ab11100
          Configuration       689 Symmetry 1 01011ab0
          Configuration       690 Symmetry 1 0a1b1ab0
          Configuration       691 Symmetry 1 01ab1010
          Configuration       692 Symmetry 1 01aba1b0
          Configuration       693 Symmetry 4 01ab1a0b
          Configuration       694 Symmetry 1 0110ab10
          Configuration       695 Symmetry 4 011010ab
          Configuration       696 Symmetry 4 0110a10b
          Configuration       697 Symmetry 4 0a11b010
          Configuration       698 Symmetry 4 0a1101b0
          Configuration       699 Symmetry 1 0a11ba0b
          Configuration       700 Symmetry 4 01a10b10
          Configuration       701 Symmetry 1 01a1b0ab
          Configuration       702 Symmetry 1 01aab1b0
          Configuration       703 Symmetry 1 01a1010b
          Configuration       704 Symmetry 1 011a0bab
          Configuration       705 Symmetry 4 011ab001
          Configuration       706 Symmetry 1 011a0abb
          Configuration       707 Symmetry 1 0a1a1bb0
          Configuration       708 Symmetry 1 0a11ab0b
          Configuration       709 Symmetry 4 01aa1b0b
          Configuration       710 Symmetry 1 01a1a0bb
          Configuration       711 Symmetry 1 a0b11ab0
          Configuration       712 Symmetry 1 ab011010
          Configuration       713 Symmetry 1 ab01a1b0
          Configuration       714 Symmetry 4 ab011a0b
          Configuration       715 Symmetry 1 a01b1010
          Configuration       716 Symmetry 1 a01ba1b0
          Configuration       717 Symmetry 4 a01b1a0b
          Configuration       718 Symmetry 1 ababab10
          Configuration       719 Symmetry 4 abab10ab
          Configuration       720 Symmetry 4 aba011b0
          Configuration       721 Symmetry 4 ababa10b
          Configuration       722 Symmetry 1 ab100110
          Configuration       723 Symmetry 4 ab10abab
          Configuration       724 Symmetry 1 ab101001
          Configuration       725 Symmetry 4 ab10aabb
          Configuration       726 Symmetry 4 a0110b10
          Configuration       727 Symmetry 1 a011b0ab
          Configuration       728 Symmetry 1 a01ab1b0
          Configuration       729 Symmetry 1 a011010b
          Configuration       730 Symmetry 1 abaabb10
          Configuration       731 Symmetry 1 aba10bab
          Configuration       732 Symmetry 4 aba1b001
          Configuration       733 Symmetry 4 abaab10b
          Configuration       734 Symmetry 1 aba10abb
          Configuration       735 Symmetry 4 ab1a0b01
          Configuration       736 Symmetry 1 ab1a001b
          Configuration       737 Symmetry 1 a0a11bb0
          Configuration       738 Symmetry 4 a01a1b0b
          Configuration       739 Symmetry 1 a011a0bb
          Configuration       740 Symmetry 4 abaa10bb
          Configuration       741 Symmetry 1 1001ab10
          Configuration       742 Symmetry 4 100110ab
          Configuration       743 Symmetry 4 100a11b0
          Configuration       744 Symmetry 4 1001a10b
          Configuration       745 Symmetry 1 10ab0110
          Configuration       746 Symmetry 4 10a01b10
          Configuration       747 Symmetry 4 10ababab
          Configuration       748 Symmetry 1 10ab1001
          Configuration       749 Symmetry 1 10a0110b
          Configuration       750 Symmetry 4 10abaabb
          Configuration       751 Symmetry 4 101001ab
          Configuration       752 Symmetry 1 1010ab01
          Configuration       753 Symmetry 4 1010a01b
          Configuration       754 Symmetry 4 10aabbab
          Configuration       755 Symmetry 4 10a10b01
          Configuration       756 Symmetry 1 10a1001b
          Configuration       757 Symmetry 4 10aababb
          Configuration       758 Symmetry 4 101a00b1
          Configuration       759 Symmetry 4 10aaabbb
          Configuration       760 Symmetry 1 aabbab10
          Configuration       761 Symmetry 4 aabb10ab
          Configuration       762 Symmetry 4 aab011b0
          Configuration       763 Symmetry 4 aabba10b
          Configuration       764 Symmetry 1 a10b0110
          Configuration       765 Symmetry 4 a1001b10
          Configuration       766 Symmetry 4 a10babab
          Configuration       767 Symmetry 1 a10b1001
          Configuration       768 Symmetry 1 a100110b
          Configuration       769 Symmetry 4 a10baabb
          Configuration       770 Symmetry 4 a1b001ab
          Configuration       771 Symmetry 1 a1b0ab01
          Configuration       772 Symmetry 4 a1b0a01b
          Configuration       773 Symmetry 1 aababb10
          Configuration       774 Symmetry 1 aab10bab
          Configuration       775 Symmetry 4 aab1b001
          Configuration       776 Symmetry 1 aa01b1b0
          Configuration       777 Symmetry 4 aabab10b
          Configuration       778 Symmetry 1 aab10abb
          Configuration       779 Symmetry 4 a10abbab
          Configuration       780 Symmetry 4 a1010b01
          Configuration       781 Symmetry 1 a101001b
          Configuration       782 Symmetry 4 a10ababb
          Configuration       783 Symmetry 4 a1ba00b1
          Configuration       784 Symmetry 4 aa011b0b
          Configuration       785 Symmetry 4 aaba10bb
          Configuration       786 Symmetry 4 a10aabbb
          Configuration       787 Symmetry 4 1a00b110
          Configuration       788 Symmetry 4 1a0b01ab
          Configuration       789 Symmetry 1 1a001bab
          Configuration       790 Symmetry 1 1a0bab01
          Configuration       791 Symmetry 4 1a0ba01b
          Configuration       792 Symmetry 1 1a001abb
          Configuration       793 Symmetry 1 1ab00101
          Configuration       794 Symmetry 4 1ab00a1b
          Configuration       795 Symmetry 1 1ab0a0b1
          Configuration       796 Symmetry 1 1a0abb01
          Configuration       797 Symmetry 4 1a0ab01b
          Configuration       798 Symmetry 4 1a0100b1
          Configuration       799 Symmetry 4 1a0a01bb
          Configuration       800 Symmetry 1 11000ab1
          Configuration       801 Symmetry 1 aaabbb10
          Configuration       802 Symmetry 4 aa10bbab
          Configuration       803 Symmetry 4 aa1b0b01
          Configuration       804 Symmetry 1 aa1b001b
          Configuration       805 Symmetry 4 aaabb10b
          Configuration       806 Symmetry 4 aa10babb
          Configuration       807 Symmetry 1 a1a0bb01
          Configuration       808 Symmetry 4 a1a0b01b
          Configuration       809 Symmetry 4 a1ab00b1
          Configuration       810 Symmetry 4 a1a001bb
          Configuration       811 Symmetry 4 aaab10bb
          Configuration       812 Symmetry 4 aa10abbb
          Configuration       813 Symmetry 1 1aa0b0b1
          Configuration       814 Symmetry 4 1aa00b1b
          Configuration       815 Symmetry 1 aaa10bbb
          Configuration       816 Symmetry 1 00111100
          Configuration       817 Symmetry 1 0ab11ab0
          Configuration       818 Symmetry 1 01011010
          Configuration       819 Symmetry 1 0101a1b0
          Configuration       820 Symmetry 4 01011a0b
          Configuration       821 Symmetry 1 0a1b1010
          Configuration       822 Symmetry 1 0a1ba1b0
          Configuration       823 Symmetry 4 0a1b1a0b
          Configuration       824 Symmetry 1 01abab10
          Configuration       825 Symmetry 4 01ab10ab
          Configuration       826 Symmetry 4 01a011b0
          Configuration       827 Symmetry 4 01aba10b
          Configuration       828 Symmetry 1 01100110
          Configuration       829 Symmetry 4 0110abab
          Configuration       830 Symmetry 1 01101001
          Configuration       831 Symmetry 4 0110aabb
          Configuration       832 Symmetry 4 0a110b10
          Configuration       833 Symmetry 1 0a11b0ab
          Configuration       834 Symmetry 1 0a1ab1b0
          Configuration       835 Symmetry 1 0a11010b
          Configuration       836 Symmetry 1 01aabb10
          Configuration       837 Symmetry 1 01a10bab
          Configuration       838 Symmetry 4 01a1b001
          Configuration       839 Symmetry 4 01aab10b
          Configuration       840 Symmetry 1 01a10abb
          Configuration       841 Symmetry 4 011a0b01
          Configuration       842 Symmetry 1 011a001b
          Configuration       843 Symmetry 1 0aa11bb0
          Configuration       844 Symmetry 4 0a1a1b0b
          Configuration       845 Symmetry 1 0a11a0bb
          Configuration       846 Symmetry 4 01aa10bb
          Configuration       847 Symmetry 1 a0b11010
          Configuration       848 Symmetry 1 a0b1a1b0
          Configuration       849 Symmetry 4 a0b11a0b
          Configuration       850 Symmetry 1 ab01ab10
          Configuration       851 Symmetry 4 ab0110ab
          Configuration       852 Symmetry 4 ab0a11b0
          Configuration       853 Symmetry 4 ab01a10b
          Configuration       854 Symmetry 1 a01bab10
          Configuration       855 Symmetry 4 a01b10ab
          Configuration       856 Symmetry 4 a01011b0
          Configuration       857 Symmetry 4 a01ba10b
          Configuration       858 Symmetry 1 abab0110
          Configuration       859 Symmetry 4 aba01b10
          Configuration       860 Symmetry 4 abababab
          Configuration       861 Symmetry 1 abab1001
          Configuration       862 Symmetry 1 aba0110b
          Configuration       863 Symmetry 4 ababaabb
          Configuration       864 Symmetry 4 ab1001ab
          Configuration       865 Symmetry 1 ab10ab01
          Configuration       866 Symmetry 4 ab10a01b
          Configuration       867 Symmetry 1 a01abb10
          Configuration       868 Symmetry 1 a0110bab
          Configuration       869 Symmetry 4 a011b001
          Configuration       870 Symmetry 1 a0a1b1b0
          Configuration       871 Symmetry 4 a01ab10b
          Configuration       872 Symmetry 1 a0110abb
          Configuration       873 Symmetry 4 abaabbab
          Configuration       874 Symmetry 4 aba10b01
          Configuration       875 Symmetry 1 aba1001b
          Configuration       876 Symmetry 4 abaababb
          Configuration       877 Symmetry 4 ab1a00b1
          Configuration       878 Symmetry 4 a0a11b0b
          Configuration       879 Symmetry 4 a01a10bb
          Configuration       880 Symmetry 4 abaaabbb
          Configuration       881 Symmetry 1 10010110
          Configuration       882 Symmetry 4 100a1b10
          Configuration       883 Symmetry 4 1001abab
          Configuration       884 Symmetry 1 10011001
          Configuration       885 Symmetry 1 100a110b
          Configuration       886 Symmetry 4 1001aabb
          Configuration       887 Symmetry 4 10a0b110
          Configuration       888 Symmetry 4 10ab01ab
          Configuration       889 Symmetry 1 10a01bab
          Configuration       890 Symmetry 1 10abab01
          Configuration       891 Symmetry 4 10aba01b
          Configuration       892 Symmetry 1 10a01abb
          Configuration       893 Symmetry 1 10100101
          Configuration       894 Symmetry 4 10100a1b
          Configuration       895 Symmetry 1 1010a0b1
          Configuration       896 Symmetry 1 10aabb01
          Configuration       897 Symmetry 4 10aab01b
          Configuration       898 Symmetry 4 10a100b1
          Configuration       899 Symmetry 4 10aa01bb
          Configuration       900 Symmetry 1 aabb0110
          Configuration       901 Symmetry 4 aab01b10
          Configuration       902 Symmetry 4 aabbabab
          Configuration       903 Symmetry 1 aabb1001
          Configuration       904 Symmetry 4 aa0b11b0
          Configuration       905 Symmetry 1 aab0110b
          Configuration       906 Symmetry 4 aabbaabb
          Configuration       907 Symmetry 4 a100b110
          Configuration       908 Symmetry 4 a10b01ab
          Configuration       909 Symmetry 1 a1001bab
          Configuration       910 Symmetry 1 a10bab01
          Configuration       911 Symmetry 4 a10ba01b
          Configuration       912 Symmetry 1 a1001abb
          Configuration       913 Symmetry 1 a1b00101
          Configuration       914 Symmetry 4 a1b00a1b
          Configuration       915 Symmetry 1 a1b0a0b1
          Configuration       916 Symmetry 1 aa01bb10
          Configuration       917 Symmetry 4 aababbab
          Configuration       918 Symmetry 4 aab10b01
          Configuration       919 Symmetry 1 aab1001b
          Configuration       920 Symmetry 4 aa01b10b
          Configuration       921 Symmetry 4 aabababb
          Configuration       922 Symmetry 1 a10abb01
          Configuration       923 Symmetry 4 a10ab01b
          Configuration       924 Symmetry 4 a10100b1
          Configuration       925 Symmetry 4 a10a01bb
          Configuration       926 Symmetry 4 aa0110bb
          Configuration       927 Symmetry 4 aabaabbb
          Configuration       928 Symmetry 1 1a00b1ab
          Configuration       929 Symmetry 1 1a0b0101
          Configuration       930 Symmetry 4 1a0b0a1b
          Configuration       931 Symmetry 4 1a001b01
          Configuration       932 Symmetry 1 1a00101b
          Configuration       933 Symmetry 1 1a0ba0b1
          Configuration       934 Symmetry 1 1a00a1bb
          Configuration       935 Symmetry 1 1ab00ab1
          Configuration       936 Symmetry 1 1a0ab0b1
          Configuration       937 Symmetry 4 1a0a0b1b
          Configuration       938 Symmetry 1 11000011
          Configuration       939 Symmetry 4 aaabbbab
          Configuration       940 Symmetry 1 aa10bb01
          Configuration       941 Symmetry 4 aa10b01b
          Configuration       942 Symmetry 4 aa1b00b1
          Configuration       943 Symmetry 4 aaabbabb
          Configuration       944 Symmetry 4 aa1001bb
          Configuration       945 Symmetry 1 a1a0b0b1
          Configuration       946 Symmetry 4 a1a00b1b
          Configuration       947 Symmetry 4 aaababbb
          Configuration       948 Symmetry 1 1aa00bb1
          Configuration       949 Symmetry 4 aaaabbbb
          Configuration       950 Symmetry 1 00111ab0
          Configuration       951 Symmetry 1 0ab11010
          Configuration       952 Symmetry 1 0ab1a1b0
          Configuration       953 Symmetry 4 0ab11a0b
          Configuration       954 Symmetry 1 0101ab10
          Configuration       955 Symmetry 4 010110ab
          Configuration       956 Symmetry 4 010a11b0
          Configuration       957 Symmetry 4 0101a10b
          Configuration       958 Symmetry 1 0a1bab10
          Configuration       959 Symmetry 4 0a1b10ab
          Configuration       960 Symmetry 4 0a1011b0
          Configuration       961 Symmetry 4 0a1ba10b
          Configuration       962 Symmetry 1 01ab0110
          Configuration       963 Symmetry 4 01a01b10
          Configuration       964 Symmetry 4 01ababab
          Configuration       965 Symmetry 1 01ab1001
          Configuration       966 Symmetry 1 01a0110b
          Configuration       967 Symmetry 4 01abaabb
          Configuration       968 Symmetry 4 011001ab
          Configuration       969 Symmetry 1 0110ab01
          Configuration       970 Symmetry 4 0110a01b
          Configuration       971 Symmetry 1 0a1abb10
          Configuration       972 Symmetry 1 0a110bab
          Configuration       973 Symmetry 4 0a11b001
          Configuration       974 Symmetry 1 0aa1b1b0
          Configuration       975 Symmetry 4 0a1ab10b
          Configuration       976 Symmetry 1 0a110abb
          Configuration       977 Symmetry 4 01aabbab
          Configuration       978 Symmetry 4 01a10b01
          Configuration       979 Symmetry 1 01a1001b
          Configuration       980 Symmetry 4 01aababb
          Configuration       981 Symmetry 4 011a00b1
          Configuration       982 Symmetry 4 0aa11b0b
          Configuration       983 Symmetry 4 0a1a10bb
          Configuration       984 Symmetry 4 01aaabbb
          Configuration       985 Symmetry 1 a0b1ab10
          Configuration       986 Symmetry 4 a0b110ab
          Configuration       987 Symmetry 4 a0ba11b0
          Configuration       988 Symmetry 4 a0b1a10b
          Configuration       989 Symmetry 1 ab010110
          Configuration       990 Symmetry 4 ab0a1b10
          Configuration       991 Symmetry 4 ab01abab
          Configuration       992 Symmetry 1 ab011001
          Configuration       993 Symmetry 1 ab0a110b
          Configuration       994 Symmetry 4 ab01aabb
          Configuration       995 Symmetry 1 a01b0110
          Configuration       996 Symmetry 4 a0101b10
          Configuration       997 Symmetry 4 a01babab
          Configuration       998 Symmetry 1 a01b1001
          Configuration       999 Symmetry 4 a0ab11b0
          Configuration      1000 Symmetry 1 a010110b
          Configuration      1001 Symmetry 4 a01baabb
          Configuration      1002 Symmetry 4 aba0b110
          Configuration      1003 Symmetry 4 abab01ab
          Configuration      1004 Symmetry 1 aba01bab
          Configuration      1005 Symmetry 1 ababab01
          Configuration      1006 Symmetry 4 ababa01b
          Configuration      1007 Symmetry 1 aba01abb
          Configuration      1008 Symmetry 1 ab100101
          Configuration      1009 Symmetry 4 ab100a1b
          Configuration      1010 Symmetry 1 ab10a0b1
          Configuration      1011 Symmetry 1 a0a1bb10
          Configuration      1012 Symmetry 4 a01abbab
          Configuration      1013 Symmetry 4 a0110b01
          Configuration      1014 Symmetry 1 a011001b
          Configuration      1015 Symmetry 4 a0a1b10b
          Configuration      1016 Symmetry 4 a01ababb
          Configuration      1017 Symmetry 1 abaabb01
          Configuration      1018 Symmetry 4 abaab01b
          Configuration      1019 Symmetry 4 aba100b1
          Configuration      1020 Symmetry 4 abaa01bb
          Configuration      1021 Symmetry 4 a0a110bb
          Configuration      1022 Symmetry 4 a01aabbb
          Configuration      1023 Symmetry 4 100ab110
          Configuration      1024 Symmetry 4 100101ab
          Configuration      1025 Symmetry 1 100a1bab
          Configuration      1026 Symmetry 1 1001ab01
          Configuration      1027 Symmetry 4 1001a01b
          Configuration      1028 Symmetry 1 100a1abb
          Configuration      1029 Symmetry 1 10a0b1ab
          Configuration      1030 Symmetry 1 10ab0101
          Configuration      1031 Symmetry 4 10ab0a1b
          Configuration      1032 Symmetry 4 10a01b01
          Configuration      1033 Symmetry 1 10a0101b
          Configuration      1034 Symmetry 1 10aba0b1
          Configuration      1035 Symmetry 1 10a0a1bb
          Configuration      1036 Symmetry 1 10100ab1
          Configuration      1037 Symmetry 1 10aab0b1
          Configuration      1038 Symmetry 4 10aa0b1b
          Configuration      1039 Symmetry 4 aab0b110
          Configuration      1040 Symmetry 4 aabb01ab
          Configuration      1041 Symmetry 4 aa0b1b10
          Configuration      1042 Symmetry 1 aab01bab
          Configuration      1043 Symmetry 1 aabbab01
          Configuration      1044 Symmetry 4 aabba01b
          Configuration      1045 Symmetry 1 aa0b110b
          Configuration      1046 Symmetry 1 aab01abb
          Configuration      1047 Symmetry 1 a100b1ab
          Configuration      1048 Symmetry 1 a10b0101
          Configuration      1049 Symmetry 4 a10b0a1b
          Configuration      1050 Symmetry 4 a1001b01
          Configuration      1051 Symmetry 1 a100101b
          Configuration      1052 Symmetry 1 a10ba0b1
          Configuration      1053 Symmetry 1 a100a1bb
          Configuration      1054 Symmetry 1 a1b00ab1
          Configuration      1055 Symmetry 4 aa01bbab
          Configuration      1056 Symmetry 1 aababb01
          Configuration      1057 Symmetry 4 aabab01b
          Configuration      1058 Symmetry 4 aab100b1
          Configuration      1059 Symmetry 4 aa01babb
          Configuration      1060 Symmetry 4 aaba01bb
          Configuration      1061 Symmetry 1 a10ab0b1
          Configuration      1062 Symmetry 4 a10a0b1b
          Configuration      1063 Symmetry 4 aa01abbb
          Configuration      1064 Symmetry 4 1a00b101
          Configuration      1065 Symmetry 1 1a00ba1b
          Configuration      1066 Symmetry 1 1a0b0ab1
          Configuration      1067 Symmetry 4 1a0010b1
          Configuration      1068 Symmetry 1 1a00ab1b
          Configuration      1069 Symmetry 1 1ab00011
          Configuration      1070 Symmetry 1 1a0a0bb1
          Configuration      1071 Symmetry 1 aaabbb01
          Configuration      1072 Symmetry 4 aaabb01b
          Configuration      1073 Symmetry 1 aa10b0b1
          Configuration      1074 Symmetry 4 aa100b1b
          Configuration      1075 Symmetry 4 aaab01bb
          Configuration      1076 Symmetry 1 a1a00bb1
          Configuration      1077 Symmetry 1 aaa01bbb
          Configuration      1078 Symmetry 1 00111010
          Configuration      1079 Symmetry 1 0011a1b0
          Configuration      1080 Symmetry 4 00111a0b
          Configuration      1081 Symmetry 1 0ab1ab10
          Configuration      1082 Symmetry 4 0ab110ab
          Configuration      1083 Symmetry 4 0aba11b0
          Configuration      1084 Symmetry 4 0ab1a10b
          Configuration      1085 Symmetry 1 01010110
          Configuration      1086 Symmetry 4 010a1b10
          Configuration      1087 Symmetry 4 0101abab
          Configuration      1088 Symmetry 1 01011001
          Configuration      1089 Symmetry 1 010a110b
          Configuration      1090 Symmetry 4 0101aabb
          Configuration      1091 Symmetry 1 0a1b0110
          Configuration      1092 Symmetry 4 0a101b10
          Configuration      1093 Symmetry 4 0a1babab
          Configuration      1094 Symmetry 1 0a1b1001
          Configuration      1095 Symmetry 4 0aab11b0
          Configuration      1096 Symmetry 1 0a10110b
          Configuration      1097 Symmetry 4 0a1baabb
          Configuration      1098 Symmetry 4 01a0b110
          Configuration      1099 Symmetry 4 01ab01ab
          Configuration      1100 Symmetry 1 01a01bab
          Configuration      1101 Symmetry 1 01abab01
          Configuration      1102 Symmetry 4 01aba01b
          Configuration      1103 Symmetry 1 01a01abb
          Configuration      1104 Symmetry 1 01100101
          Configuration      1105 Symmetry 4 01100a1b
          Configuration      1106 Symmetry 1 0110a0b1
          Configuration      1107 Symmetry 1 0aa1bb10
          Configuration      1108 Symmetry 4 0a1abbab
          Configuration      1109 Symmetry 4 0a110b01
          Configuration      1110 Symmetry 1 0a11001b
          Configuration      1111 Symmetry 4 0aa1b10b
          Configuration      1112 Symmetry 4 0a1ababb
          Configuration      1113 Symmetry 1 01aabb01
          Configuration      1114 Symmetry 4 01aab01b
          Configuration      1115 Symmetry 4 01a100b1
          Configuration      1116 Symmetry 4 01aa01bb
          Configuration      1117 Symmetry 4 0aa110bb
          Configuration      1118 Symmetry 4 0a1aabbb
          Configuration      1119 Symmetry 1 a0b10110
          Configuration      1120 Symmetry 4 a0ba1b10
          Configuration      1121 Symmetry 4 a0b1abab
          Configuration      1122 Symmetry 1 a0b11001
          Configuration      1123 Symmetry 4 a00111b0
          Configuration      1124 Symmetry 1 a0ba110b
          Configuration      1125 Symmetry 4 a0b1aabb
          Configuration      1126 Symmetry 4 ab0ab110
          Configuration      1127 Symmetry 4 ab0101ab
          Configuration      1128 Symmetry 1 ab0a1bab
          Configuration      1129 Symmetry 1 ab01ab01
          Configuration      1130 Symmetry 4 ab01a01b
          Configuration      1131 Symmetry 1 ab0a1abb
          Configuration      1132 Symmetry 4 a010b110
          Configuration      1133 Symmetry 4 a01b01ab
          Configuration      1134 Symmetry 4 a0ab1b10
          Configuration      1135 Symmetry 1 a0101bab
          Configuration      1136 Symmetry 1 a01bab01
          Configuration      1137 Symmetry 4 a01ba01b
          Configuration      1138 Symmetry 1 a0ab110b
          Configuration      1139 Symmetry 1 a0101abb
          Configuration      1140 Symmetry 1 aba0b1ab
          Configuration      1141 Symmetry 1 abab0101
          Configuration      1142 Symmetry 4 abab0a1b
          Configuration      1143 Symmetry 4 aba01b01
          Configuration      1144 Symmetry 1 aba0101b
          Configuration      1145 Symmetry 1 ababa0b1
          Configuration      1146 Symmetry 1 aba0a1bb
          Configuration      1147 Symmetry 1 ab100ab1
          Configuration      1148 Symmetry 4 a0a1bbab
          Configuration      1149 Symmetry 1 a01abb01
          Configuration      1150 Symmetry 4 a01ab01b
          Configuration      1151 Symmetry 4 a01100b1
          Configuration      1152 Symmetry 4 a0a1babb
          Configuration      1153 Symmetry 4 a01a01bb
          Configuration      1154 Symmetry 1 abaab0b1
          Configuration      1155 Symmetry 4 abaa0b1b
          Configuration      1156 Symmetry 4 a0a1abbb
          Configuration      1157 Symmetry 1 10001110
          Configuration      1158 Symmetry 1 100ab1ab
          Configuration      1159 Symmetry 1 10010101
          Configuration      1160 Symmetry 4 10010a1b
          Configuration      1161 Symmetry 4 100a1b01
          Configuration      1162 Symmetry 1 100a101b
          Configuration      1163 Symmetry 1 1001a0b1
          Configuration      1164 Symmetry 1 100aa1bb
          Configuration      1165 Symmetry 4 10a0b101
          Configuration      1166 Symmetry 1 10a0ba1b
          Configuration      1167 Symmetry 1 10ab0ab1
          Configuration      1168 Symmetry 4 10a010b1
          Configuration      1169 Symmetry 1 10a0ab1b
          Configuration      1170 Symmetry 1 10100011
          Configuration      1171 Symmetry 1 10aa0bb1
          Configuration      1172 Symmetry 4 aa0bb110
          Configuration      1173 Symmetry 1 aab0b1ab
          Configuration      1174 Symmetry 1 aabb0101
          Configuration      1175 Symmetry 4 aabb0a1b
          Configuration      1176 Symmetry 1 aa0b1bab
          Configuration      1177 Symmetry 4 aab01b01
          Configuration      1178 Symmetry 1 aab0101b
          Configuration      1179 Symmetry 1 aabba0b1
          Configuration      1180 Symmetry 1 aa0b1abb
          Configuration      1181 Symmetry 1 aab0a1bb
          Configuration      1182 Symmetry 4 a100b101
          Configuration      1183 Symmetry 1 a100ba1b
          Configuration      1184 Symmetry 1 a10b0ab1
          Configuration      1185 Symmetry 4 a10010b1
          Configuration      1186 Symmetry 1 a100ab1b
          Configuration      1187 Symmetry 1 a1b00011
          Configuration      1188 Symmetry 1 aa01bb01
          Configuration      1189 Symmetry 4 aa01b01b
          Configuration      1190 Symmetry 1 aabab0b1
          Configuration      1191 Symmetry 4 aaba0b1b
          Configuration      1192 Symmetry 4 aa0101bb
          Configuration      1193 Symmetry 1 a10a0bb1
          Configuration      1194 Symmetry 1 aa0a1bbb
          Configuration      1195 Symmetry 4 1a00bab1
          Configuration      1196 Symmetry 1 1a00011b
          Configuration      1197 Symmetry 1 1a0b0011
          Configuration      1198 Symmetry 4 1a00abb1
          Configuration      1199 Symmetry 1 aaabb0b1
          Configuration      1200 Symmetry 4 aaab0b1b
          Configuration      1201 Symmetry 1 aa100bb1
          Configuration      1202 Symmetry 1 aaa0b1bb
          Configuration      1203 Symmetry 1 0011ab10
          Configuration      1204 Symmetry 4 001110ab
          Configuration      1205 Symmetry 4 001a11b0
          Configuration      1206 Symmetry 4 0011a10b
          Configuration      1207 Symmetry 1 0ab10110
          Configuration      1208 Symmetry 4 0aba1b10
          Configuration      1209 Symmetry 4 0ab1abab
          Configuration      1210 Symmetry 1 0ab11001
          Configuration      1211 Symmetry 4 0a0111b0
          Configuration      1212 Symmetry 1 0aba110b
          Configuration      1213 Symmetry 4 0ab1aabb
          Configuration      1214 Symmetry 4 010ab110
          Configuration      1215 Symmetry 4 010101ab
          Configuration      1216 Symmetry 1 010a1bab
          Configuration      1217 Symmetry 1 0101ab01
          Configuration      1218 Symmetry 4 0101a01b
          Configuration      1219 Symmetry 1 010a1abb
          Configuration      1220 Symmetry 4 0a10b110
          Configuration      1221 Symmetry 4 0a1b01ab
          Configuration      1222 Symmetry 4 0aab1b10
          Configuration      1223 Symmetry 1 0a101bab
          Configuration      1224 Symmetry 1 0a1bab01
          Configuration      1225 Symmetry 4 0a1ba01b
          Configuration      1226 Symmetry 1 0aab110b
          Configuration      1227 Symmetry 1 0a101abb
          Configuration      1228 Symmetry 1 01a0b1ab
          Configuration      1229 Symmetry 1 01ab0101
          Configuration      1230 Symmetry 4 01ab0a1b
          Configuration      1231 Symmetry 4 01a01b01
          Configuration      1232 Symmetry 1 01a0101b
          Configuration      1233 Symmetry 1 01aba0b1
          Configuration      1234 Symmetry 1 01a0a1bb
          Configuration      1235 Symmetry 1 01100ab1
          Configuration      1236 Symmetry 4 0aa1bbab
          Configuration      1237 Symmetry 1 0a1abb01
          Configuration      1238 Symmetry 4 0a1ab01b
          Configuration      1239 Symmetry 4 0a1100b1
          Configuration      1240 Symmetry 4 0aa1babb
          Configuration      1241 Symmetry 4 0a1a01bb
          Configuration      1242 Symmetry 1 01aab0b1
          Configuration      1243 Symmetry 4 01aa0b1b
          Configuration      1244 Symmetry 4 0aa1abbb
          Configuration      1245 Symmetry 4 a0bab110
          Configuration      1246 Symmetry 4 a0b101ab
          Configuration      1247 Symmetry 4 a0011b10
          Configuration      1248 Symmetry 1 a0ba1bab
          Configuration      1249 Symmetry 1 a0b1ab01
          Configuration      1250 Symmetry 4 a0b1a01b
          Configuration      1251 Symmetry 1 a001110b
          Configuration      1252 Symmetry 1 a0ba1abb
          Configuration      1253 Symmetry 1 ab001110
          Configuration      1254 Symmetry 1 ab0ab1ab
          Configuration      1255 Symmetry 1 ab010101
          Configuration      1256 Symmetry 4 ab010a1b
          Configuration      1257 Symmetry 4 ab0a1b01
          Configuration      1258 Symmetry 1 ab0a101b
          Configuration      1259 Symmetry 1 ab01a0b1
          Configuration      1260 Symmetry 1 ab0aa1bb
          Configuration      1261 Symmetry 4 a0abb110
          Configuration      1262 Symmetry 1 a010b1ab
          Configuration      1263 Symmetry 1 a01b0101
          Configuration      1264 Symmetry 4 a01b0a1b
          Configuration      1265 Symmetry 1 a0ab1bab
          Configuration      1266 Symmetry 4 a0101b01
          Configuration      1267 Symmetry 1 a010101b
          Configuration      1268 Symmetry 1 a01ba0b1
          Configuration      1269 Symmetry 1 a0ab1abb
          Configuration      1270 Symmetry 1 a010a1bb
          Configuration      1271 Symmetry 4 aba0b101
          Configuration      1272 Symmetry 1 aba0ba1b
          Configuration      1273 Symmetry 1 abab0ab1
          Configuration      1274 Symmetry 4 aba010b1
          Configuration      1275 Symmetry 1 aba0ab1b
          Configuration      1276 Symmetry 1 ab100011
          Configuration      1277 Symmetry 1 a0a1bb01
          Configuration      1278 Symmetry 4 a0a1b01b
          Configuration      1279 Symmetry 1 a01ab0b1
          Configuration      1280 Symmetry 4 a01a0b1b
          Configuration      1281 Symmetry 4 a0a101bb
          Configuration      1282 Symmetry 1 abaa0bb1
          Configuration      1283 Symmetry 1 a0aa1bbb
          Configuration      1284 Symmetry 4 100011ab
          Configuration      1285 Symmetry 4 100ab101
          Configuration      1286 Symmetry 1 100aba1b
          Configuration      1287 Symmetry 1 10010ab1
          Configuration      1288 Symmetry 4 100a10b1
          Configuration      1289 Symmetry 1 100aab1b
          Configuration      1290 Symmetry 4 10a0bab1
          Configuration      1291 Symmetry 1 10a0011b
          Configuration      1292 Symmetry 1 10ab0011
          Configuration      1293 Symmetry 4 10a0abb1
          Configuration      1294 Symmetry 1 aa0bb1ab
          Configuration      1295 Symmetry 4 aab0b101
          Configuration      1296 Symmetry 1 aab0ba1b
          Configuration      1297 Symmetry 1 aabb0ab1
          Configuration      1298 Symmetry 4 aa0b1b01
          Configuration      1299 Symmetry 1 aa0b101b
          Configuration      1300 Symmetry 4 aab010b1
          Configuration      1301 Symmetry 1 aab0ab1b
          Configuration      1302 Symmetry 1 aa0ba1bb
          Configuration      1303 Symmetry 4 a100bab1
          Configuration      1304 Symmetry 1 a100011b
          Configuration      1305 Symmetry 1 a10b0011
          Configuration      1306 Symmetry 4 a100abb1
          Configuration      1307 Symmetry 1 aa01b0b1
          Configuration      1308 Symmetry 4 aa010b1b
          Configuration      1309 Symmetry 1 aaba0bb1
          Configuration      1310 Symmetry 1 aa0ab1bb
          Configuration      1311 Symmetry 4 1a00b011
          Configuration      1312 Symmetry 4 1a0001b1
          Configuration      1313 Symmetry 1 aaab0bb1
[...]
          Configuration      1479 Symmetry 4 a010bab1
          Configuration      1480 Symmetry 1 a010011b
          Configuration      1481 Symmetry 1 a01b0011
          Configuration      1482 Symmetry 4 a0ab10b1
          Configuration      1483 Symmetry 1 a0abab1b
          Configuration      1484 Symmetry 4 a010abb1
          Configuration      1485 Symmetry 4 a0a011bb
          Configuration      1486 Symmetry 4 aba0b011
          Configuration      1487 Symmetry 4 aba001b1
          Configuration      1488 Symmetry 1 a0a10bb1
          Configuration      1489 Symmetry 1 a0aabb1b
          Configuration      1490 Symmetry 1 10001ab1
          Configuration      1491 Symmetry 4 1000a11b
          Configuration      1492 Symmetry 4 100ab011
          Configuration      1493 Symmetry 4 100a01b1
          Configuration      1494 Symmetry 4 10a00b11
          Configuration      1495 Symmetry 4 aa0bbab1
          Configuration      1496 Symmetry 1 aa0b011b
          Configuration      1497 Symmetry 4 aab0b011
          Configuration      1498 Symmetry 4 aab001b1
          Configuration      1499 Symmetry 4 aa0babb1
          Configuration      1500 Symmetry 4 aa001b1b
          Configuration      1501 Symmetry 4 a1000b11
          Configuration      1502 Symmetry 4 aa0abbb1
          Configuration      1503 Symmetry 1 00101110
          Configuration      1504 Symmetry 4 00a1b110
          Configuration      1505 Symmetry 1 001ab1ab
          Configuration      1506 Symmetry 1 00110101
          Configuration      1507 Symmetry 4 00110a1b
          Configuration      1508 Symmetry 1 00a11bab
          Configuration      1509 Symmetry 4 001a1b01
          Configuration      1510 Symmetry 1 001a101b
          Configuration      1511 Symmetry 1 0011a0b1
          Configuration      1512 Symmetry 1 00a11abb
          Configuration      1513 Symmetry 1 001aa1bb
          Configuration      1514 Symmetry 1 0a0b1110
          Configuration      1515 Symmetry 4 0ab011ab
          Configuration      1516 Symmetry 1 0a01b1ab
          Configuration      1517 Symmetry 4 0abab101
          Configuration      1518 Symmetry 1 0ababa1b
          Configuration      1519 Symmetry 1 0ab10ab1
          Configuration      1520 Symmetry 4 0a011b01
          Configuration      1521 Symmetry 1 0a01101b
          Configuration      1522 Symmetry 4 0aba10b1
          Configuration      1523 Symmetry 1 0abaab1b
          Configuration      1524 Symmetry 1 0a01a1bb
          Configuration      1525 Symmetry 1 01001101
          Configuration      1526 Symmetry 4 01001a1b
          Configuration      1527 Symmetry 4 010abab1
          Configuration      1528 Symmetry 1 010a011b
          Configuration      1529 Symmetry 1 01010011
          Configuration      1530 Symmetry 4 010aabb1
          Configuration      1531 Symmetry 4 0aabb101
          Configuration      1532 Symmetry 1 0aabba1b
          Configuration      1533 Symmetry 4 0a10bab1
          Configuration      1534 Symmetry 1 0a10011b
          Configuration      1535 Symmetry 1 0a1b0011
          Configuration      1536 Symmetry 4 0aab10b1
          Configuration      1537 Symmetry 1 0aabab1b
          Configuration      1538 Symmetry 4 0a10abb1
          Configuration      1539 Symmetry 4 0aa011bb
          Configuration      1540 Symmetry 4 01a0b011
          Configuration      1541 Symmetry 4 01a001b1
          Configuration      1542 Symmetry 1 0aa10bb1
          Configuration      1543 Symmetry 1 0aaabb1b
          Configuration      1544 Symmetry 4 a00b11ab
          Configuration      1545 Symmetry 1 a0b01101
          Configuration      1546 Symmetry 4 a0b01a1b
          Configuration      1547 Symmetry 4 a001b101
          Configuration      1548 Symmetry 1 a001ba1b
          Configuration      1549 Symmetry 4 a0babab1
          Configuration      1550 Symmetry 1 a0ba011b
          Configuration      1551 Symmetry 1 a0b10011
          Configuration      1552 Symmetry 4 a00110b1
          Configuration      1553 Symmetry 1 a001ab1b
          Configuration      1554 Symmetry 4 a0baabb1
          Configuration      1555 Symmetry 4 a00a11bb
          Configuration      1556 Symmetry 1 ab001ab1
          Configuration      1557 Symmetry 4 ab00a11b
          Configuration      1558 Symmetry 4 ab0ab011
          Configuration      1559 Symmetry 4 ab0a01b1
          Configuration      1560 Symmetry 4 a0abbab1
          Configuration      1561 Symmetry 1 a0ab011b
          Configuration      1562 Symmetry 4 a010b011
          Configuration      1563 Symmetry 4 a01001b1
          Configuration      1564 Symmetry 4 a0ababb1
          Configuration      1565 Symmetry 4 a0a01b1b
          Configuration      1566 Symmetry 4 aba00b11
          Configuration      1567 Symmetry 4 a0aabbb1
          Configuration      1568 Symmetry 1 10001011
          Configuration      1569 Symmetry 1 1000a1b1
          Configuration      1570 Symmetry 4 100a0b11
          Configuration      1571 Symmetry 4 aa0bb011
          Configuration      1572 Symmetry 4 aa0b01b1
          Configuration      1573 Symmetry 4 aa00b11b
          Configuration      1574 Symmetry 4 aab00b11
          Configuration      1575 Symmetry 1 aa001bb1
          Configuration      1576 Symmetry 1 00ab1110
          Configuration      1577 Symmetry 4 001011ab
          Configuration      1578 Symmetry 1 00a1b1ab
          Configuration      1579 Symmetry 4 001ab101
          Configuration      1580 Symmetry 1 001aba1b
          Configuration      1581 Symmetry 1 00110ab1
          Configuration      1582 Symmetry 4 00a11b01
          Configuration      1583 Symmetry 1 00a1101b
          Configuration      1584 Symmetry 4 001a10b1
          Configuration      1585 Symmetry 1 001aab1b
          Configuration      1586 Symmetry 1 00a1a1bb
          Configuration      1587 Symmetry 4 0a0b11ab
          Configuration      1588 Symmetry 1 0ab01101
          Configuration      1589 Symmetry 4 0ab01a1b
          Configuration      1590 Symmetry 4 0a01b101
          Configuration      1591 Symmetry 1 0a01ba1b
          Configuration      1592 Symmetry 4 0ababab1
          Configuration      1593 Symmetry 1 0aba011b
          Configuration      1594 Symmetry 1 0ab10011
          Configuration      1595 Symmetry 4 0a0110b1
          Configuration      1596 Symmetry 1 0a01ab1b
          Configuration      1597 Symmetry 4 0abaabb1
          Configuration      1598 Symmetry 4 0a0a11bb
          Configuration      1599 Symmetry 1 01001ab1
          Configuration      1600 Symmetry 4 0100a11b
          Configuration      1601 Symmetry 4 010ab011
          Configuration      1602 Symmetry 4 010a01b1
          Configuration      1603 Symmetry 4 0aabbab1
          Configuration      1604 Symmetry 1 0aab011b
          Configuration      1605 Symmetry 4 0a10b011
          Configuration      1606 Symmetry 4 0a1001b1
          Configuration      1607 Symmetry 4 0aababb1
          Configuration      1608 Symmetry 4 0aa01b1b
          Configuration      1609 Symmetry 4 01a00b11
          Configuration      1610 Symmetry 4 0aaabbb1
          Configuration      1611 Symmetry 1 a00b1101
          Configuration      1612 Symmetry 4 a00b1a1b
          Configuration      1613 Symmetry 1 a0b01ab1
          Configuration      1614 Symmetry 4 a0b0a11b
          Configuration      1615 Symmetry 4 a001bab1
          Configuration      1616 Symmetry 1 a001011b
          Configuration      1617 Symmetry 4 a0bab011
          Configuration      1618 Symmetry 4 a0ba01b1
          Configuration      1619 Symmetry 4 a001abb1
          Configuration      1620 Symmetry 4 a00a1b1b
          Configuration      1621 Symmetry 1 ab001011
          Configuration      1622 Symmetry 1 ab00a1b1
          Configuration      1623 Symmetry 4 ab0a0b11
          Configuration      1624 Symmetry 4 a0abb011
          Configuration      1625 Symmetry 4 a0ab01b1
          Configuration      1626 Symmetry 4 a0a0b11b
          Configuration      1627 Symmetry 4 a0100b11
          Configuration      1628 Symmetry 1 a0a01bb1
          Configuration      1629 Symmetry 1 1000ab11
          Configuration      1630 Symmetry 4 aa0b0b11
          Configuration      1631 Symmetry 1 aa00b1b1
          Configuration      1632 Symmetry 1 00011110
          Configuration      1633 Symmetry 4 00ab11ab
          Configuration      1634 Symmetry 1 00101101
          Configuration      1635 Symmetry 4 00101a1b
          Configuration      1636 Symmetry 4 00a1b101
          Configuration      1637 Symmetry 1 00a1ba1b
          Configuration      1638 Symmetry 4 001abab1
          Configuration      1639 Symmetry 1 001a011b
          Configuration      1640 Symmetry 1 00110011
          Configuration      1641 Symmetry 4 00a110b1
          Configuration      1642 Symmetry 1 00a1ab1b
          Configuration      1643 Symmetry 4 001aabb1
          Configuration      1644 Symmetry 4 00aa11bb
          Configuration      1645 Symmetry 1 0a0b1101
          Configuration      1646 Symmetry 4 0a0b1a1b
          Configuration      1647 Symmetry 1 0ab01ab1
          Configuration      1648 Symmetry 4 0ab0a11b
          Configuration      1649 Symmetry 4 0a01bab1
          Configuration      1650 Symmetry 1 0a01011b
          Configuration      1651 Symmetry 4 0abab011
          Configuration      1652 Symmetry 4 0aba01b1
          Configuration      1653 Symmetry 4 0a01abb1
          Configuration      1654 Symmetry 4 0a0a1b1b
          Configuration      1655 Symmetry 1 01001011
          Configuration      1656 Symmetry 1 0100a1b1
          Configuration      1657 Symmetry 4 010a0b11
          Configuration      1658 Symmetry 4 0aabb011
          Configuration      1659 Symmetry 4 0aab01b1
          Configuration      1660 Symmetry 4 0aa0b11b
          Configuration      1661 Symmetry 4 0a100b11
          Configuration      1662 Symmetry 1 0aa01bb1
          Configuration      1663 Symmetry 1 a00b1ab1
          Configuration      1664 Symmetry 4 a00ba11b
          Configuration      1665 Symmetry 1 a0b01011
          Configuration      1666 Symmetry 1 a0b0a1b1
          Configuration      1667 Symmetry 4 a001b011
          Configuration      1668 Symmetry 4 a00101b1
          Configuration      1669 Symmetry 4 a00ab11b
          Configuration      1670 Symmetry 4 a0ba0b11
          Configuration      1671 Symmetry 1 a00a1bb1
          Configuration      1672 Symmetry 1 ab00ab11
          Configuration      1673 Symmetry 4 a0ab0b11
          Configuration      1674 Symmetry 1 a0a0b1b1
          Configuration      1675 Symmetry 1 10000111
          Configuration      1676 Symmetry 1 aa00bb11
          Configuration      1677 Symmetry 4 000111ab
          Configuration      1678 Symmetry 1 00ab1101
          Configuration      1679 Symmetry 4 00ab1a1b
          Configuration      1680 Symmetry 1 00101ab1
          Configuration      1681 Symmetry 4 0010a11b
          Configuration      1682 Symmetry 4 00a1bab1
          Configuration      1683 Symmetry 1 00a1011b
          Configuration      1684 Symmetry 4 001ab011
          Configuration      1685 Symmetry 4 001a01b1
          Configuration      1686 Symmetry 4 00a1abb1
          Configuration      1687 Symmetry 4 00aa1b1b
          Configuration      1688 Symmetry 1 0a0b1ab1
          Configuration      1689 Symmetry 4 0a0ba11b
          Configuration      1690 Symmetry 1 0ab01011
          Configuration      1691 Symmetry 1 0ab0a1b1
          Configuration      1692 Symmetry 4 0a01b011
          Configuration      1693 Symmetry 4 0a0101b1
          Configuration      1694 Symmetry 4 0a0ab11b
          Configuration      1695 Symmetry 4 0aba0b11
          Configuration      1696 Symmetry 1 0a0a1bb1
          Configuration      1697 Symmetry 1 0100ab11
          Configuration      1698 Symmetry 4 0aab0b11
          Configuration      1699 Symmetry 1 0aa0b1b1
          Configuration      1700 Symmetry 1 a00b1011
          Configuration      1701 Symmetry 1 a00ba1b1
          Configuration      1702 Symmetry 1 a000111b
          Configuration      1703 Symmetry 1 a0b0ab11
          Configuration      1704 Symmetry 4 a0010b11
          Configuration      1705 Symmetry 1 a00ab1b1
          Configuration      1706 Symmetry 1 ab000111
          Configuration      1707 Symmetry 1 a0a0bb11
          Configuration      1708 Symmetry 1 00011101
          Configuration      1709 Symmetry 4 00011a1b
          Configuration      1710 Symmetry 1 00ab1ab1
          Configuration      1711 Symmetry 4 00aba11b
          Configuration      1712 Symmetry 1 00101011
          Configuration      1713 Symmetry 1 0010a1b1
          Configuration      1714 Symmetry 4 00a1b011
          Configuration      1715 Symmetry 4 00a101b1
          Configuration      1716 Symmetry 4 00aab11b
          Configuration      1717 Symmetry 4 001a0b11
          Configuration      1718 Symmetry 1 00aa1bb1
          Configuration      1719 Symmetry 1 0a0b1011
          Configuration      1720 Symmetry 1 0a0ba1b1
          Configuration      1721 Symmetry 1 0a00111b
          Configuration      1722 Symmetry 1 0ab0ab11
          Configuration      1723 Symmetry 4 0a010b11
          Configuration      1724 Symmetry 1 0a0ab1b1
          Configuration      1725 Symmetry 1 01000111
          Configuration      1726 Symmetry 1 0aa0bb11
          Configuration      1727 Symmetry 1 a00bab11
          Configuration      1728 Symmetry 4 a00011b1
          Configuration      1729 Symmetry 1 a0b00111
          Configuration      1730 Symmetry 1 a00abb11
          Configuration      1731 Symmetry 1 00011ab1
          Configuration      1732 Symmetry 4 0001a11b
          Configuration      1733 Symmetry 1 00ab1011
          Configuration      1734 Symmetry 1 00aba1b1
          Configuration      1735 Symmetry 1 00a0111b
          Configuration      1736 Symmetry 1 0010ab11
          Configuration      1737 Symmetry 4 00a10b11
          Configuration      1738 Symmetry 1 00aab1b1
          Configuration      1739 Symmetry 1 0a0bab11
          Configuration      1740 Symmetry 4 0a0011b1
          Configuration      1741 Symmetry 1 0ab00111
          Configuration      1742 Symmetry 1 0a0abb11
          Configuration      1743 Symmetry 1 a00b0111
          Configuration      1744 Symmetry 4 a0001b11
          Configuration      1745 Symmetry 1 00011011
          Configuration      1746 Symmetry 1 0001a1b1
          Configuration      1747 Symmetry 1 000a111b
          Configuration      1748 Symmetry 1 00abab11
          Configuration      1749 Symmetry 4 00a011b1
          Configuration      1750 Symmetry 1 00100111
          Configuration      1751 Symmetry 1 00aabb11
          Configuration      1752 Symmetry 1 0a0b0111
          Configuration      1753 Symmetry 4 0a001b11
          Configuration      1754 Symmetry 4 a000b111
          Configuration      1755 Symmetry 1 0001ab11
          Configuration      1756 Symmetry 4 000a11b1
          Configuration      1757 Symmetry 1 00ab0111
          Configuration      1758 Symmetry 4 00a01b11
          Configuration      1759 Symmetry 4 0a00b111
          Configuration      1760 Symmetry 1 00010111
          Configuration      1761 Symmetry 4 000a1b11
          Configuration      1762 Symmetry 4 00a0b111
          Configuration      1763 Symmetry 4 000ab111
          Configuration      1764 Symmetry 1 00001111
          NO OF BASIS FUNCTIONS =      1764 NO TO BE DELETED =    0
 CI Matrix Elements calculated here
          NO. OF CONFIGURATIONS IN REFERENCE SPACE =    1
                                   SECONDARY SPACE = 1764
                                   TERTIARY SPACE = 1764
          NO. OF ORBITALS =    8
          NO. OF ELECTRONS =    8
          NO. OF WEIGHTS =   33
          REFERENCE STATE CONFIGURATIONS ARE:     0
          NO. OF CORE ORBITALS =    0
          OPTION:  NON-DIAGONAL HOLE LINE INTERACTIONS INCLUDED
 Len28=     2415590 LenMCI=     1821312.
 Enter MCSCF program.
 NO. OF ORBITALS =  8     NO. OF CORE-ORBITALS =  0
 NO. OF VALENCE-ORBITALS =  8      NO. OF VIRTUAL-ORBITALS =  0
 USED ACCURACY IN CHECKING CONVERGENCE =  1.00D-08
  Memory needed for Incore Integrals:                  262810
  Integrals KEPT IN MEMORY
 IBUJAK length=                    2664
 Integral file not found: evaluate integrals 
 FoFCou: FMM=F IPFlag=           0 FMFlag=           0 FMFlg1=           0
         NFxFlg=           0 DoJE=F BraDBF=F KetDBF=F FulRan=T
         wScrn=  0.000000 ICntrl=     600 IOpCl=  0 I1Cent=           0 NGrid=           0
         NMat0=    1 NMatS0=      1 NMatT0=    0 NMatD0=    1 NMtDS0=    0 NMtDT0=    0
 Symmetry not used in FoFCou.
 Defining IBUGAM
 2ND ORD PT ENERGY     CV    0.000000   CU    0.000000   UV    0.000000
 TOTAL                      -1.830080
 ITN=  1 MaxIt= 64 E=     -1.8300799304 DE=-1.83D+00 Acc= 1.00D-08 Lan=  0
 ITN=  2 MaxIt= 64 E=     -1.8300799304 DE= 2.66D-14 Acc= 1.00D-08 Lan=  0
 ... Do an extra-iteration for final printing.
 Final one electron symbolic density matrix:
                1             2             3             4             5 
      1  0.199909D+01
      2  0.384145D-05  0.199246D+01
      3  0.115086D-04 -0.215145D-04  0.199242D+01
      4 -0.659870D-04  0.366371D-03  0.240173D-03  0.483241D-04
      5  0.769773D-16  0.437647D-16  0.404500D-16 -0.819581D-14  0.199852D+01
      6  0.596561D-15 -0.136088D-14  0.166244D-14  0.767638D-18  0.560061D-09
      7  0.568499D-15  0.108088D-14 -0.281946D-15 -0.189429D-17  0.955361D-10
      8 -0.439082D-03  0.745510D-05 -0.110925D-03 -0.685761D-05 -0.391343D-14
                6             7             8 
      6  0.757578D-02
      7 -0.296509D-04  0.757368D-02
      8  0.269498D-19  0.104671D-16  0.231995D-02
 MCSCF converged.

 **********************************************************************

            Population analysis using the SCF density.

 **********************************************************************

 Orbital symmetries:
       Occupied  (A1) (A1) (A1) (A1)
       Virtual   (B2) (B2) (B2) (A1)
 The electronic state is 1-A1.
 Alpha  occ. eigenvalues --    0.00000   0.00000   0.00000   0.00000
 Alpha virt. eigenvalues --    0.00000   0.00000   0.00000   0.00000
          Condensed to atoms (all electrons):
 Mulliken charges:
               1
     1  H    0.998293
     2  H   -0.001764
     3  H   -0.001764
     4  H   -0.755459
     5  H   -0.118162
     6  H   -0.118162
     7  H   -0.001491
     8  H   -0.001491
 Sum of Mulliken charges =  -0.00000
 Mulliken charges with hydrogens summed into heavy atoms:
               1
 Electronic spatial extent (au):  <R**2>=            171.3178
 Charge=             -0.0000 electrons
 Dipole moment (field-independent basis, Debye):
    X=              0.0000    Y=             -0.0000    Z=             28.7574  Tot=             28.7574

 Test job not archived.
 1\1\GINC-SULU\SP\CASSCF\Gen\H8\LCJ1\25-Jan-2017\0\\#t casscf(8,8,nroot
 =3,fulldiag)/gen scf(tight,novaracc,noincfock) geom=nocrowd test\\mbs 
 casscf calculation for a triangular lattice of 8 H atoms (made up of 1
 0 iscosceles triangles h=2.9995b=.384964)\\0,1\H,0,0.,0.,2.9995\H,0,0.
 192482,0.,0.\H,0,-0.192482,0.,0.\H,0,0.,0.,-2.9995\H,0,0.384964,0.,-2.
 9995\H,0,-0.384964,0.,-2.9995\H,0,0.192482,0.,-5.999\H,0,-0.192482,0.,
 -5.999\\Version=ES64L-G09RevE.01\State=1-A1\HF=-1.8300799\RMSD=0.000e+
 00\Dipole=0.,0.,11.3140193\Quadrupole=-33.4865238,-31.1991372,64.68566
 1,0.,0.,0.\PG=C02V [C2(H1H1),SGV(H6)]\\@


 CHINESE FORTUNE COOKIE OF JAN 1 1967 SAY....
 ALL THINGS ARE DIFFICULT BEFORE THEY ARE EASY.
 WE LEARN SO LITTLE AND FORGET SO MUCH.
 YOU WILL OVERCOME OBSTACLES TO ACHIEVE SUCCESS.
 AH SO.
 Job cpu time:       0 days  0 hours  2 minutes  5.1 seconds.
 File lengths (MBytes):  RWF=    178 Int=      0 D2E=      0 Chk=      2 Scr=      2
 Normal termination of Gaussian 09 at Wed Jan 25 03:01:57 2017.
