 Entering Gaussian System, Link 0=g09
 AtFile(1): H.gbs
            H     0
            S   10   1.00
               1000.000000000000            0.000068713567
                316.227766000000            0.000169141320
                100.000000000000            0.000823394812
                 31.622776600000            0.003425569236
                 10.000000000000            0.013951996000
                  3.162277660000            0.056909313560
                  1.000000000000            0.198286399900
                  0.316227766000            0.496922426700
                  0.100000000000            0.369846276400
                  0.031622776600            0.003752720039
            ****
 Initial command:
 /projects/guscus/apps/gau/g09-e1/g09/l1.exe "/users/lcj1/gaussian/h10/2rows_uhf/ag2bu3/triplet/Gau-4443.inp" -scrdir="/users/lcj1/gaussian/h10/2rows_uhf/ag2bu3/triplet/"
 Entering Link 1 = /projects/guscus/apps/gau/g09-e1/g09/l1.exe PID=      4444.
  
 Copyright (c) 1988,1990,1992,1993,1995,1998,2003,2009,2015,
            Gaussian, Inc.  All Rights Reserved.
  
 This is part of the Gaussian(R) 09 program.  It is based on
 the Gaussian(R) 03 system (copyright 2003, Gaussian, Inc.),
 the Gaussian(R) 98 system (copyright 1998, Gaussian, Inc.),
 the Gaussian(R) 94 system (copyright 1995, Gaussian, Inc.),
 the Gaussian 92(TM) system (copyright 1992, Gaussian, Inc.),
 the Gaussian 90(TM) system (copyright 1990, Gaussian, Inc.),
 the Gaussian 88(TM) system (copyright 1988, Gaussian, Inc.),
 the Gaussian 86(TM) system (copyright 1986, Carnegie Mellon
 University), and the Gaussian 82(TM) system (copyright 1983,
 Carnegie Mellon University). Gaussian is a federally registered
 trademark of Gaussian, Inc.
  
 This software contains proprietary and confidential information,
 including trade secrets, belonging to Gaussian, Inc.
  
 This software is provided under written license and may be
 used, copied, transmitted, or stored only in accord with that
 written license.
  
 The following legend is applicable only to US Government
 contracts under FAR:
  
                    RESTRICTED RIGHTS LEGEND
  
 Use, reproduction and disclosure by the US Government is
 subject to restrictions as set forth in subparagraphs (a)
 and (c) of the Commercial Computer Software - Restricted
 Rights clause in FAR 52.227-19.
  
 Gaussian, Inc.
 340 Quinnipiac St., Bldg. 40, Wallingford CT 06492
  
  
 ---------------------------------------------------------------
 Warning -- This program may not be used in any manner that
 competes with the business of Gaussian, Inc. or will provide
 assistance to any competitor of Gaussian, Inc.  The licensee
 of this program is prohibited from giving any competitor of
 Gaussian, Inc. access to this program.  By using this program,
 the user acknowledges that Gaussian, Inc. is engaged in the
 business of creating and licensing software in the field of
 computational chemistry and represents and warrants to the
 licensee that it is not a competitor of Gaussian, Inc. and that
 it will not use this program in any manner prohibited above.
 ---------------------------------------------------------------
  

 Cite this work as:
 Gaussian 09, Revision E.01,
 M. J. Frisch, G. W. Trucks, H. B. Schlegel, G. E. Scuseria, 
 M. A. Robb, J. R. Cheeseman, G. Scalmani, V. Barone, B. Mennucci, 
 G. A. Petersson, H. Nakatsuji, M. Caricato, X. Li, H. P. Hratchian, 
 A. F. Izmaylov, J. Bloino, G. Zheng, J. L. Sonnenberg, M. Hada, 
 M. Ehara, K. Toyota, R. Fukuda, J. Hasegawa, M. Ishida, T. Nakajima, 
 Y. Honda, O. Kitao, H. Nakai, T. Vreven, J. A. Montgomery, Jr., 
 J. E. Peralta, F. Ogliaro, M. Bearpark, J. J. Heyd, E. Brothers, 
 K. N. Kudin, V. N. Staroverov, T. Keith, R. Kobayashi, J. Normand, 
 K. Raghavachari, A. Rendell, J. C. Burant, S. S. Iyengar, J. Tomasi, 
 M. Cossi, N. Rega, J. M. Millam, M. Klene, J. E. Knox, J. B. Cross, 
 V. Bakken, C. Adamo, J. Jaramillo, R. Gomperts, R. E. Stratmann, 
 O. Yazyev, A. J. Austin, R. Cammi, C. Pomelli, J. W. Ochterski, 
 R. L. Martin, K. Morokuma, V. G. Zakrzewski, G. A. Voth, 
 P. Salvador, J. J. Dannenberg, S. Dapprich, A. D. Daniels, 
 O. Farkas, J. B. Foresman, J. V. Ortiz, J. Cioslowski, 
 and D. J. Fox, Gaussian, Inc., Wallingford CT, 2013.
 
 ******************************************
 Gaussian 09:  ES64L-G09RevE.01 30-Nov-2015
                23-Feb-2017 
 ******************************************
 %chk=h10.chk
 ----------------------------------------------------------------------
 #uhf/gen scf(tight,novaracc,noincfock,fulldiag, ) stable(crhf) guess=r
 ead geom=nocrowd test
 ----------------------------------------------------------------------
 1/38=1/1;
 2/12=1,17=6,18=5,40=1/2;
 3/5=7,16=1,25=1,30=1,116=2/1,2,3;
 4/5=1/1;
 5/5=100002,16=1,32=2,38=6/2;
 8/6=1,10=90,11=11/1,4;
 9/8=4,13=1/2;
 6/7=2,8=2,9=2,10=2,28=1/1;
 99/5=1,9=1/99;
 ----------------------------------------------------------------------
 hf stability analysis of h10 triangular lattice, y= 1.5507537964299845
  alpha= 76.500000000000000
 ----------------------------------------------------------------------
 Symbolic Z-matrix:
 Charge =  0 Multiplicity = 3
 H
 H                    1     1.59482 
 H                    1     1.59482  2     27. 
 H                    2     1.59482  1     153.     3     0.       0
 H                    3     1.59482  1     180.     2     0.       0
 H                    4     1.59482  2     180.     1     0.       0
 H                    5     1.59482  3     180.     2     0.       0
 H                    6     1.59482  4     180.     1     0.       0
 H                    7     1.59482  5     180.     2     0.       0
 H                    8     1.59482  6     180.     1     0.       0
 
                          Input orientation:                          
 ---------------------------------------------------------------------
 Center     Atomic      Atomic             Coordinates (Angstroms)
 Number     Number       Type             X           Y           Z
 ---------------------------------------------------------------------
      1          1           0        0.000000    0.000000    0.000000
      2          1           0        0.000000    0.000000    1.594819
      3          1           0        0.724033    0.000000    1.420994
      4          1           0        0.724033    0.000000    3.015813
      5          1           0        1.448065    0.000000    2.841988
      6          1           0        1.448065    0.000000    4.436807
      7          1           0        2.172098    0.000000    4.262982
      8          1           0        2.172098    0.000000    5.857800
      9          1           0        2.896130    0.000000    5.683976
     10          1           0        2.896130    0.000000    7.278794
 ---------------------------------------------------------------------
                    Distance matrix (angstroms):
                    1          2          3          4          5
     1  H    0.000000
     2  H    1.594819   0.000000
     3  H    1.594819   0.744606   0.000000
     4  H    3.101508   1.594819   1.594819   0.000000
     5  H    3.189638   1.911105   1.594819   0.744606   0.000000
     6  H    4.667135   3.189638   3.101508   1.594819   1.594819
     7  H    4.784456   3.440509   3.189638   1.911105   1.594819
     8  H    6.247546   4.784456   4.667135   3.189638   3.101508
     9  H    6.379275   5.010866   4.784456   3.440509   3.189638
    10  H    7.833800   6.379275   6.247546   4.784456   4.667135
                    6          7          8          9         10
     6  H    0.000000
     7  H    0.744606   0.000000
     8  H    1.594819   1.594819   0.000000
     9  H    1.911105   1.594819   0.744606   0.000000
    10  H    3.189638   3.101508   1.594819   1.594819   0.000000
 Stoichiometry    H10(3)
 Framework group  C2H[SGH(H10)]
 Deg. of freedom     9
 Full point group                 C2H     NOp   4
 Largest Abelian subgroup         C2H     NOp   4
 Largest concise Abelian subgroup C2      NOp   2
                         Standard orientation:                         
 ---------------------------------------------------------------------
 Center     Atomic      Atomic             Coordinates (Angstroms)
 Number     Number       Type             X           Y           Z
 ---------------------------------------------------------------------
      1          1           0        1.448065    3.639397    0.000000
      2          1           0        1.448065    2.044578    0.000000
      3          1           0        0.724033    2.218403    0.000000
      4          1           0        0.724033    0.623585    0.000000
      5          1           0       -0.000000    0.797409    0.000000
      6          1           0       -0.000000   -0.797409    0.000000
      7          1           0       -0.724033   -0.623585    0.000000
      8          1           0       -0.724033   -2.218403    0.000000
      9          1           0       -1.448065   -2.044578    0.000000
     10          1           0       -1.448065   -3.639397    0.000000
 ---------------------------------------------------------------------
 Rotational constants (GHZ):    421.5071060      8.9485020      8.7624765
 General basis read from cards:  (5D, 7F)
 There are     5 symmetry adapted cartesian basis functions of AG  symmetry.
 There are     0 symmetry adapted cartesian basis functions of BG  symmetry.
 There are     0 symmetry adapted cartesian basis functions of AU  symmetry.
 There are     5 symmetry adapted cartesian basis functions of BU  symmetry.
 There are     5 symmetry adapted basis functions of AG  symmetry.
 There are     0 symmetry adapted basis functions of BG  symmetry.
 There are     0 symmetry adapted basis functions of AU  symmetry.
 There are     5 symmetry adapted basis functions of BU  symmetry.
    10 basis functions,   100 primitive gaussians,    10 cartesian basis functions
     6 alpha electrons        4 beta electrons
       nuclear repulsion energy        11.2634974401 Hartrees.
 NAtoms=   10 NActive=   10 NUniq=    5 SFac= 4.00D+00 NAtFMM=   60 NAOKFM=F Big=F
 Integral buffers will be    131072 words long.
 Regular integral format.
 Two-electron integral symmetry is turned on.
 One-electron integrals computed using PRISM.
 NBasis=    10 RedAO= T EigKep=  1.67D-01  NBF=     5     0     0     5
 NBsUse=    10 1.00D-06 EigRej= -1.00D+00 NBFU=     5     0     0     5
 Initial guess from the checkpoint file:  "h10.chk"
 B after Tr=     0.000000    0.000000   -0.000000
         Rot=    0.999992   -0.000000   -0.000000   -0.003879 Ang=  -0.44 deg.
 Initial guess orbital symmetries:
 Alpha Orbitals:
       Occupied  (AG) (BU) (AG) (BU) (AG) (BU)
       Virtual   (BU) (AG) (BU) (AG)
 Beta  Orbitals:
       Occupied  (AG) (BU) (AG) (BU)
       Virtual   (AG) (BU) (BU) (AG) (BU) (AG)
 Initial guess <Sx>= 0.0000 <Sy>= 0.0000 <Sz>= 1.0000 <S**2>= 2.0003 S= 1.0001
 Keep R1 and R2 ints in memory in symmetry-blocked form, NReq=874595.
 Requested convergence on RMS density matrix=1.00D-08 within 128 cycles.
 Requested convergence on MAX density matrix=1.00D-06.
 Requested convergence on             energy=1.00D-06.
 No special actions if energy rises.
 SCF Done:  E(UHF) =  -5.16513569261     A.U. after   10 cycles
            NFock= 10  Conv=0.13D-08     -V/T= 1.9884
 <Sx>= 0.0000 <Sy>= 0.0000 <Sz>= 1.0000 <S**2>= 2.0002 S= 1.0001
 <L.S>= 0.000000000000E+00
 Annihilation of the first spin contaminant:
 S**2 before annihilation     2.0002,   after     2.0000
 Range of M.O.s used for correlation:     1    10
 NBasis=    10 NAE=     6 NBE=     4 NFC=     0 NFV=     0
 NROrb=     10 NOA=     6 NOB=     4 NVA=     4 NVB=     6
 Semi-Direct transformation.
 ModeAB=           4 MOrb=             6 LenV=     134111324
 LASXX=         1146 LTotXX=        1146 LenRXX=        3117
 LTotAB=        1971 MaxLAS=        1800 LenRXY=           0
 NonZer=        4263 LenScr=      655360 LnRSAI=        1800
 LnScr1=      655360 LExtra=           0 Total=      1315637
 MaxDsk=          -1 SrtSym=           T ITran=            3
 JobTyp=1 Pass  1:  I=   1 to   6.
 (rs|ai) integrals will be sorted in core.
 ModeAB=           4 MOrb=             4 LenV=     134111324
 LASXX=          831 LTotXX=         831 LenRXX=         931
 LTotAB=         100 MaxLAS=        1200 LenRXY=           0
 NonZer=        1762 LenScr=      655360 LnRSAI=        1200
 LnScr1=      655360 LExtra=           0 Total=      1312851
 MaxDsk=          -1 SrtSym=           T ITran=            3
 JobTyp=2 Pass  1:  I=   1 to   4.
 (rs|ai) integrals will be sorted in core.
 Spin components of T(2) and E(2):
     alpha-alpha T2 =       0.3625402859D-03 E2=     -0.7498476126D-03
     alpha-beta  T2 =       0.2252439257D-01 E2=     -0.4618767309D-01
     beta-beta   T2 =       0.3614251013D-03 E2=     -0.7502641033D-03
 ANorm=    0.1011557392D+01
 E2 =    -0.4768778480D-01 EUMP2 =    -0.52128234774151D+01
 (S**2,0)=  0.20002D+01           (S**2,1)=  0.20001D+01
 E(PUHF)=      -0.51651556293D+01        E(PMP2)=      -0.52128389877D+01
 Second order stability test of a single determinant UHF wave function:
 Stabil:  MDV=134217728
 ***********************************************************************
 Matrix         Lowest Root    Major Pairs
 ***********************************************************************
 Internal UHF     0.1858657    Stable
 RUHF --> CUHF (A)0.3452481    Stable
 RUHF --> CUHF (B)0.381552     Stable
 RUHF --> GHF    -0.0000503    5A=6B 6A=5B 4A=5B 3A=6B 5A=7B 2A=5B
 Not stable.
 ***********************************************************************

 **********************************************************************

            Population analysis using the SCF density.

 **********************************************************************

 Orbital symmetries:
 Alpha Orbitals:
       Occupied  (AG) (BU) (AG) (BU) (AG) (BU)
       Virtual   (BU) (AG) (BU) (AG)
 Beta  Orbitals:
       Occupied  (AG) (BU) (AG) (BU)
       Virtual   (AG) (BU) (BU) (AG) (BU) (AG)
 The electronic state is 3-BU.
 Alpha  occ. eigenvalues --   -0.75361  -0.70917  -0.63078  -0.52882  -0.42774
 Alpha  occ. eigenvalues --   -0.39559
 Alpha virt. eigenvalues --    0.23699   0.33600   0.49071   0.64857
  Beta  occ. eigenvalues --   -0.74449  -0.68379  -0.58669  -0.47210
  Beta virt. eigenvalues --    0.18123   0.18540   0.24213   0.34415   0.49963
  Beta virt. eigenvalues --    0.65359
          Condensed to atoms (all electrons):
               1          2          3          4          5          6
     1  H    1.171988  -0.083668  -0.076638   0.001008   0.002579   0.000016
     2  H   -0.083668   0.725044   0.532211  -0.097598  -0.076910   0.003405
     3  H   -0.076638   0.532211   0.696253  -0.080341  -0.092509   0.002215
     4  H    0.001008  -0.097598  -0.080341   0.772626   0.577838  -0.101640
     5  H    0.002579  -0.076910  -0.092509   0.577838   0.770845  -0.088967
     6  H    0.000016   0.003405   0.002215  -0.101640  -0.088967   0.770845
     7  H   -0.000019   0.003122   0.002999  -0.079760  -0.101640   0.577838
     8  H   -0.000001  -0.000047  -0.000007   0.002999   0.002215  -0.092509
     9  H    0.000000  -0.000067  -0.000047   0.003122   0.003405  -0.076910
    10  H   -0.000000   0.000000  -0.000001  -0.000019   0.000016   0.002579
               7          8          9         10
     1  H   -0.000019  -0.000001   0.000000  -0.000000
     2  H    0.003122  -0.000047  -0.000067   0.000000
     3  H    0.002999  -0.000007  -0.000047  -0.000001
     4  H   -0.079760   0.002999   0.003122  -0.000019
     5  H   -0.101640   0.002215   0.003405   0.000016
     6  H    0.577838  -0.092509  -0.076910   0.002579
     7  H    0.772626  -0.080341  -0.097598   0.001008
     8  H   -0.080341   0.696253   0.532211  -0.076638
     9  H   -0.097598   0.532211   0.725044  -0.083668
    10  H    0.001008  -0.076638  -0.083668   1.171988
          Atomic-Atomic Spin Densities.
               1          2          3          4          5          6
     1  H    1.166618  -0.099615  -0.091704   0.003859   0.005060  -0.000101
     2  H   -0.099615   0.081501   0.048671  -0.005698  -0.008127   0.000407
     3  H   -0.091704   0.048671   0.048974  -0.003788  -0.009028   0.000305
     4  H    0.003859  -0.005698  -0.003788  -0.007096   0.005849  -0.001992
     5  H    0.005060  -0.008127  -0.009028   0.005849   0.024132  -0.003398
     6  H   -0.000101   0.000407   0.000305  -0.001992  -0.003398   0.024132
     7  H   -0.000127   0.000314   0.000326   0.000091  -0.001992   0.005849
     8  H    0.000001  -0.000014  -0.000008   0.000326   0.000305  -0.009028
     9  H    0.000002  -0.000016  -0.000014   0.000314   0.000407  -0.008127
    10  H   -0.000000   0.000002   0.000001  -0.000127  -0.000101   0.005060
               7          8          9         10
     1  H   -0.000127   0.000001   0.000002  -0.000000
     2  H    0.000314  -0.000014  -0.000016   0.000002
     3  H    0.000326  -0.000008  -0.000014   0.000001
     4  H    0.000091   0.000326   0.000314  -0.000127
     5  H   -0.001992   0.000305   0.000407  -0.000101
     6  H    0.005849  -0.009028  -0.008127   0.005060
     7  H   -0.007096  -0.003788  -0.005698   0.003859
     8  H   -0.003788   0.048974   0.048671  -0.091704
     9  H   -0.005698   0.048671   0.081501  -0.099615
    10  H    0.003859  -0.091704  -0.099615   1.166618
 Mulliken charges and spin densities:
               1          2
     1  H   -0.015266   0.983994
     2  H   -0.005492   0.017426
     3  H    0.015865  -0.006265
     4  H    0.001765  -0.008262
     5  H    0.003128   0.013106
     6  H    0.003128   0.013106
     7  H    0.001765  -0.008262
     8  H    0.015865  -0.006265
     9  H   -0.005492   0.017426
    10  H   -0.015266   0.983994
 Sum of Mulliken charges =  -0.00000   2.00000
 Mulliken charges and spin densities with hydrogens summed into heavy atoms:
               1          2
 Electronic spatial extent (au):  <R**2>=            237.4166
 Charge=              0.0000 electrons
 Dipole moment (field-independent basis, Debye):
    X=             -0.0000    Y=              0.0000    Z=             -0.0000  Tot=              0.0000
 Quadrupole moment (field-independent basis, Debye-Ang):
   XX=            -12.4580   YY=            -19.1814   ZZ=            -12.8185
   XY=             -3.2362   XZ=              0.0000   YZ=              0.0000
 Traceless Quadrupole moment (field-independent basis, Debye-Ang):
   XX=              2.3613   YY=             -4.3621   ZZ=              2.0008
   XY=             -3.2362   XZ=              0.0000   YZ=              0.0000
 Octapole moment (field-independent basis, Debye-Ang**2):
  XXX=             -0.0000  YYY=             -0.0000  ZZZ=             -0.0000  XYY=             -0.0000
  XXY=             -0.0000  XXZ=             -0.0000  XZZ=              0.0000  YZZ=             -0.0000
  YYZ=             -0.0000  XYZ=             -0.0000
 Hexadecapole moment (field-independent basis, Debye-Ang**3):
 XXXX=            -93.4558 YYYY=           -513.0803 ZZZZ=            -15.4293 XXXY=            -85.8923
 XXXZ=              0.0000 YYYX=           -134.5453 YYYZ=              0.0000 ZZZX=              0.0000
 ZZZY=              0.0000 XXYY=            -98.7002 XXZZ=            -18.6351 YYZZ=            -67.7429
 XXYZ=              0.0000 YYXZ=              0.0000 ZZXY=            -27.7035
 N-N= 1.126349744008D+01 E-N=-3.215005032324D+01  KE= 5.225577430607D+00
 Symmetry AG   KE= 2.250555502829D+00
 Symmetry BG   KE= 0.000000000000D+00
 Symmetry AU   KE= 0.000000000000D+00
 Symmetry BU   KE= 2.975021927778D+00
                          Isotropic Fermi Contact Couplings
        Atom                 a.u.       MegaHertz       Gauss      10(-4) cm-1
     1  H(1)               0.34766     777.00276     277.25390     259.18022
     2  H(1)               0.02538      56.71329      20.23671      18.91752
     3  H(1)               0.01622      36.24687      12.93378      12.09065
     4  H(1)              -0.00171      -3.82325      -1.36423      -1.27530
     5  H(1)               0.00690      15.43106       5.50618       5.14725
     6  H(1)               0.00690      15.43106       5.50618       5.14725
     7  H(1)              -0.00171      -3.82325      -1.36423      -1.27530
     8  H(1)               0.01622      36.24687      12.93378      12.09065
     9  H(1)               0.02538      56.71329      20.23671      18.91752
    10  H(1)               0.34766     777.00276     277.25390     259.18022
 --------------------------------------------------------
       Center         ----  Spin Dipole Couplings  ----
                      3XX-RR        3YY-RR        3ZZ-RR
 --------------------------------------------------------
     1   Atom        0.005313     -0.013531      0.008218
     2   Atom       -0.009017      0.038409     -0.029393
     3   Atom        0.005600      0.027381     -0.032981
     4   Atom       -0.000756      0.011710     -0.010954
     5   Atom       -0.003276      0.009803     -0.006527
     6   Atom       -0.003276      0.009803     -0.006527
     7   Atom       -0.000756      0.011710     -0.010954
     8   Atom        0.005600      0.027381     -0.032981
     9   Atom       -0.009017      0.038409     -0.029393
    10   Atom        0.005313     -0.013531      0.008218
 --------------------------------------------------------
                        XY            XZ            YZ
 --------------------------------------------------------
     1   Atom       -0.004830      0.000000      0.000000
     2   Atom        0.001132      0.000000     -0.000000
     3   Atom        0.016508     -0.000000      0.000000
     4   Atom        0.006036      0.000000     -0.000000
     5   Atom        0.008101     -0.000000     -0.000000
     6   Atom        0.008101     -0.000000     -0.000000
     7   Atom        0.006036     -0.000000     -0.000000
     8   Atom        0.016508     -0.000000     -0.000000
     9   Atom        0.001132      0.000000     -0.000000
    10   Atom       -0.004830      0.000000      0.000000
 --------------------------------------------------------


 ---------------------------------------------------------------------------------
              Anisotropic Spin Dipole Couplings in Principal Axis System
 ---------------------------------------------------------------------------------

       Atom             a.u.   MegaHertz   Gauss  10(-4) cm-1        Axes

              Baa    -0.0147    -7.841    -2.798    -2.616  0.2346  0.9721  0.0000
     1 H(1)   Bbb     0.0065     3.457     1.233     1.153  0.9721 -0.2346  0.0000
              Bcc     0.0082     4.385     1.565     1.463  0.0000  0.0000  1.0000
 
              Baa    -0.0294   -15.682    -5.596    -5.231  0.0000  0.0000  1.0000
     2 H(1)   Bbb    -0.0090    -4.825    -1.722    -1.610  0.9997 -0.0238  0.0000
              Bcc     0.0384    20.508     7.318     6.841  0.0238  0.9997  0.0000
 
              Baa    -0.0330   -17.597    -6.279    -5.870  0.0000  0.0000  1.0000
     3 H(1)   Bbb    -0.0033    -1.753    -0.626    -0.585  0.8805 -0.4740  0.0000
              Bcc     0.0363    19.350     6.905     6.455  0.4740  0.8805  0.0000
 
              Baa    -0.0110    -5.845    -2.086    -1.950  0.0000  0.0000  1.0000
     4 H(1)   Bbb    -0.0032    -1.707    -0.609    -0.569  0.9269 -0.3752  0.0000
              Bcc     0.0142     7.552     2.695     2.519  0.3752  0.9269  0.0000
 
              Baa    -0.0071    -3.814    -1.361    -1.272  0.9023 -0.4312  0.0000
     5 H(1)   Bbb    -0.0065    -3.482    -1.243    -1.162  0.0000  0.0000  1.0000
              Bcc     0.0137     7.296     2.603     2.434  0.4312  0.9023  0.0000
 
              Baa    -0.0071    -3.814    -1.361    -1.272  0.9023 -0.4312  0.0000
     6 H(1)   Bbb    -0.0065    -3.482    -1.243    -1.162  0.0000  0.0000  1.0000
              Bcc     0.0137     7.296     2.603     2.434  0.4312  0.9023  0.0000
 
              Baa    -0.0110    -5.845    -2.086    -1.950  0.0000  0.0000  1.0000
     7 H(1)   Bbb    -0.0032    -1.707    -0.609    -0.569  0.9269 -0.3752  0.0000
              Bcc     0.0142     7.552     2.695     2.519  0.3752  0.9269  0.0000
 
              Baa    -0.0330   -17.597    -6.279    -5.870  0.0000  0.0000  1.0000
     8 H(1)   Bbb    -0.0033    -1.753    -0.626    -0.585  0.8805 -0.4740  0.0000
              Bcc     0.0363    19.350     6.905     6.455  0.4740  0.8805  0.0000
 
              Baa    -0.0294   -15.682    -5.596    -5.231  0.0000  0.0000  1.0000
     9 H(1)   Bbb    -0.0090    -4.825    -1.722    -1.610  0.9997 -0.0238  0.0000
              Bcc     0.0384    20.508     7.318     6.841  0.0238  0.9997  0.0000
 
              Baa    -0.0147    -7.841    -2.798    -2.616  0.2346  0.9721  0.0000
    10 H(1)   Bbb     0.0065     3.457     1.233     1.153  0.9721 -0.2346  0.0000
              Bcc     0.0082     4.385     1.565     1.463  0.0000  0.0000  1.0000
 

 ---------------------------------------------------------------------------------


 Test job not archived.
 1\1\GINC-SULU\Stability\UHF\Gen\H10(3)\LCJ1\23-Feb-2017\0\\#uhf/gen sc
 f(tight,novaracc,noincfock,fulldiag, ) stable(crhf) guess=read geom=no
 crowd test\\hf stability analysis of h10 triangular lattice, y= 1.5507
 537964299845 alpha= 76.500000000000000\\0,3\H\H,1,1.5948187517\H,1,1.5
 948187517,2,27.\H,2,1.5948187517,1,153.,3,0.,0\H,3,1.5948187517,1,180.
 ,2,0.,0\H,4,1.5948187517,2,180.,1,0.,0\H,5,1.5948187517,3,180.,2,0.,0\
 H,6,1.5948187517,4,180.,1,0.,0\H,7,1.5948187517,5,180.,2,0.,0\H,8,1.59
 48187517,6,180.,1,0.,0\\Version=ES64L-G09RevE.01\State=3-BU\HF=-5.1651
 357\MP2=-5.2128235\PUHF=-5.1651556\PMP2-0=-5.212839\S2=2.000239\S2-1=2
 .000133\S2A=2.\RMSD=1.266e-09\Dipole=0.,0.,0.\Quadrupole=1.7555864,1.4
 875425,-3.2431289,0.,-2.4059998,0.\PG=C02H [SGH(H10)]\\@


 BETTER TO HUNT IN FIELDS, FOR HEALTH UNBOUGHT
 THAN FEE THE DOCTOR FOR A NAUSEOUS DRAUGHT.
 THE WISE, FOR CURE, ON EXERCISE DEPEND;
 GOD NEVER MADE HIS WORK FOR MAN TO MEND.
     -- JOHN DRYDEN (1631-1700)
 Job cpu time:       0 days  0 hours  0 minutes  0.9 seconds.
 File lengths (MBytes):  RWF=     94 Int=      0 D2E=      0 Chk=      2 Scr=      2
 Normal termination of Gaussian 09 at Thu Feb 23 12:28:35 2017.
