 Entering Gaussian System, Link 0=g09
 AtFile(1): H.gbs
            H     0
            S   10   1.00
               1000.000000000000            0.000068713567
                316.227766000000            0.000169141320
                100.000000000000            0.000823394812
                 31.622776600000            0.003425569236
                 10.000000000000            0.013951996000
                  3.162277660000            0.056909313560
                  1.000000000000            0.198286399900
                  0.316227766000            0.496922426700
                  0.100000000000            0.369846276400
                  0.031622776600            0.003752720039
            ****
 Initial command:
 /projects/guscus/apps/gau/g09-e1/g09/l1.exe "/users/lcj1/gaussian/h10/2rows_uhf/ag2bu3/triplet/Gau-31961.inp" -scrdir="/users/lcj1/gaussian/h10/2rows_uhf/ag2bu3/triplet/"
 Entering Link 1 = /projects/guscus/apps/gau/g09-e1/g09/l1.exe PID=     31962.
  
 Copyright (c) 1988,1990,1992,1993,1995,1998,2003,2009,2015,
            Gaussian, Inc.  All Rights Reserved.
  
 This is part of the Gaussian(R) 09 program.  It is based on
 the Gaussian(R) 03 system (copyright 2003, Gaussian, Inc.),
 the Gaussian(R) 98 system (copyright 1998, Gaussian, Inc.),
 the Gaussian(R) 94 system (copyright 1995, Gaussian, Inc.),
 the Gaussian 92(TM) system (copyright 1992, Gaussian, Inc.),
 the Gaussian 90(TM) system (copyright 1990, Gaussian, Inc.),
 the Gaussian 88(TM) system (copyright 1988, Gaussian, Inc.),
 the Gaussian 86(TM) system (copyright 1986, Carnegie Mellon
 University), and the Gaussian 82(TM) system (copyright 1983,
 Carnegie Mellon University). Gaussian is a federally registered
 trademark of Gaussian, Inc.
  
 This software contains proprietary and confidential information,
 including trade secrets, belonging to Gaussian, Inc.
  
 This software is provided under written license and may be
 used, copied, transmitted, or stored only in accord with that
 written license.
  
 The following legend is applicable only to US Government
 contracts under FAR:
  
                    RESTRICTED RIGHTS LEGEND
  
 Use, reproduction and disclosure by the US Government is
 subject to restrictions as set forth in subparagraphs (a)
 and (c) of the Commercial Computer Software - Restricted
 Rights clause in FAR 52.227-19.
  
 Gaussian, Inc.
 340 Quinnipiac St., Bldg. 40, Wallingford CT 06492
  
  
 ---------------------------------------------------------------
 Warning -- This program may not be used in any manner that
 competes with the business of Gaussian, Inc. or will provide
 assistance to any competitor of Gaussian, Inc.  The licensee
 of this program is prohibited from giving any competitor of
 Gaussian, Inc. access to this program.  By using this program,
 the user acknowledges that Gaussian, Inc. is engaged in the
 business of creating and licensing software in the field of
 computational chemistry and represents and warrants to the
 licensee that it is not a competitor of Gaussian, Inc. and that
 it will not use this program in any manner prohibited above.
 ---------------------------------------------------------------
  

 Cite this work as:
 Gaussian 09, Revision E.01,
 M. J. Frisch, G. W. Trucks, H. B. Schlegel, G. E. Scuseria, 
 M. A. Robb, J. R. Cheeseman, G. Scalmani, V. Barone, B. Mennucci, 
 G. A. Petersson, H. Nakatsuji, M. Caricato, X. Li, H. P. Hratchian, 
 A. F. Izmaylov, J. Bloino, G. Zheng, J. L. Sonnenberg, M. Hada, 
 M. Ehara, K. Toyota, R. Fukuda, J. Hasegawa, M. Ishida, T. Nakajima, 
 Y. Honda, O. Kitao, H. Nakai, T. Vreven, J. A. Montgomery, Jr., 
 J. E. Peralta, F. Ogliaro, M. Bearpark, J. J. Heyd, E. Brothers, 
 K. N. Kudin, V. N. Staroverov, T. Keith, R. Kobayashi, J. Normand, 
 K. Raghavachari, A. Rendell, J. C. Burant, S. S. Iyengar, J. Tomasi, 
 M. Cossi, N. Rega, J. M. Millam, M. Klene, J. E. Knox, J. B. Cross, 
 V. Bakken, C. Adamo, J. Jaramillo, R. Gomperts, R. E. Stratmann, 
 O. Yazyev, A. J. Austin, R. Cammi, C. Pomelli, J. W. Ochterski, 
 R. L. Martin, K. Morokuma, V. G. Zakrzewski, G. A. Voth, 
 P. Salvador, J. J. Dannenberg, S. Dapprich, A. D. Daniels, 
 O. Farkas, J. B. Foresman, J. V. Ortiz, J. Cioslowski, 
 and D. J. Fox, Gaussian, Inc., Wallingford CT, 2013.
 
 ******************************************
 Gaussian 09:  ES64L-G09RevE.01 30-Nov-2015
                23-Feb-2017 
 ******************************************
 %chk=h10.chk
 ----------------------------------------------------------------------
 #uhf/gen scf(tight,novaracc,noincfock,fulldiag, ) stable(crhf) guess=r
 ead geom=nocrowd test
 ----------------------------------------------------------------------
 1/38=1/1;
 2/12=1,17=6,18=5,40=1/2;
 3/5=7,16=1,25=1,30=1,116=2/1,2,3;
 4/5=1/1;
 5/5=100002,16=1,32=2,38=6/2;
 8/6=1,10=90,11=11/1,4;
 9/8=4,13=1/2;
 6/7=2,8=2,9=2,10=2,28=1/1;
 99/5=1,9=1/99;
 ----------------------------------------------------------------------
 hf stability analysis of h10 triangular lattice, y= 0.8635150515934925
 1 alpha= 52.250000000000000
 ----------------------------------------------------------------------
 Symbolic Z-matrix:
 Charge =  0 Multiplicity = 3
 H
 H                    1     1.0921 
 H                    1     1.0921   2     75.5 
 H                    2     1.0921   1     104.5    3     0.       0
 H                    3     1.0921   1     180.     2     0.       0
 H                    4     1.0921   2     180.     1     0.       0
 H                    5     1.0921   3     180.     2     0.       0
 H                    6     1.0921   4     180.     1     0.       0
 H                    7     1.0921   5     180.     2     0.       0
 H                    8     1.0921   6     180.     1     0.       0
 
                          Input orientation:                          
 ---------------------------------------------------------------------
 Center     Atomic      Atomic             Coordinates (Angstroms)
 Number     Number       Type             X           Y           Z
 ---------------------------------------------------------------------
      1          1           0        0.000000    0.000000    0.000000
      2          1           0        0.000000    0.000000    1.092104
      3          1           0        1.057318    0.000000    0.273441
      4          1           0        1.057318    0.000000    1.365545
      5          1           0        2.114635    0.000000    0.546882
      6          1           0        2.114635    0.000000    1.638986
      7          1           0        3.171953    0.000000    0.820323
      8          1           0        3.171953    0.000000    1.912427
      9          1           0        4.229271    0.000000    1.093764
     10          1           0        4.229271    0.000000    2.185867
 ---------------------------------------------------------------------
                    Distance matrix (angstroms):
                    1          2          3          4          5
     1  H    0.000000
     2  H    1.092104   0.000000
     3  H    1.092104   1.337210   0.000000
     4  H    1.727030   1.092104   1.092104   0.000000
     5  H    2.184207   2.183792   1.092104   1.337210   0.000000
     6  H    2.675436   2.184207   1.727030   1.092104   1.092104
     7  H    3.276311   3.183575   2.184207   2.183792   1.092104
     8  H    3.703871   3.276311   2.675436   2.184207   1.727030
     9  H    4.368415   4.229271   3.276311   3.183575   2.184207
    10  H    4.760751   4.368415   3.703871   3.276311   2.675436
                    6          7          8          9         10
     6  H    0.000000
     7  H    1.337210   0.000000
     8  H    1.092104   1.092104   0.000000
     9  H    2.183792   1.092104   1.337210   0.000000
    10  H    2.184207   1.727030   1.092104   1.092104   0.000000
 Stoichiometry    H10(3)
 Framework group  C2H[SGH(H10)]
 Deg. of freedom     9
 Full point group                 C2H     NOp   4
 Largest Abelian subgroup         C2H     NOp   4
 Largest concise Abelian subgroup C2      NOp   2
                         Standard orientation:                         
 ---------------------------------------------------------------------
 Center     Atomic      Atomic             Coordinates (Angstroms)
 Number     Number       Type             X           Y           Z
 ---------------------------------------------------------------------
      1          1           0        2.114635    1.092934    0.000000
      2          1           0        2.114635    0.000830    0.000000
      3          1           0        1.057318    0.819493    0.000000
      4          1           0        1.057318   -0.272611    0.000000
      5          1           0        0.000000    0.546052   -0.000000
      6          1           0       -0.000000   -0.546052   -0.000000
      7          1           0       -1.057318    0.272611    0.000000
      8          1           0       -1.057318   -0.819493   -0.000000
      9          1           0       -2.114635   -0.000830    0.000000
     10          1           0       -2.114635   -1.092934   -0.000000
 ---------------------------------------------------------------------
 Rotational constants (GHZ):    181.0149825     20.8372706     18.6862327
 General basis read from cards:  (5D, 7F)
 There are     5 symmetry adapted cartesian basis functions of AG  symmetry.
 There are     0 symmetry adapted cartesian basis functions of BG  symmetry.
 There are     0 symmetry adapted cartesian basis functions of AU  symmetry.
 There are     5 symmetry adapted cartesian basis functions of BU  symmetry.
 There are     5 symmetry adapted basis functions of AG  symmetry.
 There are     0 symmetry adapted basis functions of BG  symmetry.
 There are     0 symmetry adapted basis functions of AU  symmetry.
 There are     5 symmetry adapted basis functions of BU  symmetry.
    10 basis functions,   100 primitive gaussians,    10 cartesian basis functions
     6 alpha electrons        4 beta electrons
       nuclear repulsion energy        13.6244752078 Hartrees.
 NAtoms=   10 NActive=   10 NUniq=    5 SFac= 4.00D+00 NAtFMM=   60 NAOKFM=F Big=F
 Integral buffers will be    131072 words long.
 Regular integral format.
 Two-electron integral symmetry is turned on.
 One-electron integrals computed using PRISM.
 NBasis=    10 RedAO= T EigKep=  1.37D-01  NBF=     5     0     0     5
 NBsUse=    10 1.00D-06 EigRej= -1.00D+00 NBFU=     5     0     0     5
 Initial guess from the checkpoint file:  "h10.chk"
 B after Tr=    -0.000000   -0.000000    0.000000
         Rot=    0.999992   -0.000000    0.000000   -0.003879 Ang=  -0.44 deg.
 Initial guess orbital symmetries:
 Alpha Orbitals:
       Occupied  (AG) (BU) (AG) (BU) (AG) (BU)
       Virtual   (BU) (AG) (AG) (BU)
 Beta  Orbitals:
       Occupied  (AG) (BU) (AG) (BU)
       Virtual   (AG) (BU) (BU) (AG) (AG) (BU)
 Initial guess <Sx>= 0.0000 <Sy>= 0.0000 <Sz>= 1.0000 <S**2>= 2.1310 S= 1.0431
 Keep R1 and R2 ints in memory in symmetry-blocked form, NReq=879327.
 Requested convergence on RMS density matrix=1.00D-08 within 128 cycles.
 Requested convergence on MAX density matrix=1.00D-06.
 Requested convergence on             energy=1.00D-06.
 No special actions if energy rises.
 SCF Done:  E(UHF) =  -4.91690102037     A.U. after   12 cycles
            NFock= 12  Conv=0.55D-08     -V/T= 1.9473
 <Sx>= 0.0000 <Sy>= 0.0000 <Sz>= 1.0000 <S**2>= 2.1302 S= 1.0428
 <L.S>= 0.000000000000E+00
 Annihilation of the first spin contaminant:
 S**2 before annihilation     2.1302,   after     2.0060
 Range of M.O.s used for correlation:     1    10
 NBasis=    10 NAE=     6 NBE=     4 NFC=     0 NFV=     0
 NROrb=     10 NOA=     6 NOB=     4 NVA=     4 NVB=     6
 Semi-Direct transformation.
 ModeAB=           4 MOrb=             6 LenV=     134106774
 LASXX=         1146 LTotXX=        1146 LenRXX=        3117
 LTotAB=        1971 MaxLAS=        1800 LenRXY=           0
 NonZer=        4263 LenScr=      655360 LnRSAI=        1800
 LnScr1=      655360 LExtra=           0 Total=      1315637
 MaxDsk=          -1 SrtSym=           T ITran=            3
 JobTyp=1 Pass  1:  I=   1 to   6.
 (rs|ai) integrals will be sorted in core.
 ModeAB=           4 MOrb=             4 LenV=     134106774
 LASXX=          831 LTotXX=         831 LenRXX=         931
 LTotAB=         100 MaxLAS=        1200 LenRXY=           0
 NonZer=        1762 LenScr=      655360 LnRSAI=        1200
 LnScr1=      655360 LExtra=           0 Total=      1312851
 MaxDsk=          -1 SrtSym=           T ITran=            3
 JobTyp=2 Pass  1:  I=   1 to   4.
 (rs|ai) integrals will be sorted in core.
 Spin components of T(2) and E(2):
     alpha-alpha T2 =       0.3518381660D-02 E2=     -0.5186901451D-02
     alpha-beta  T2 =       0.4077666176D-01 E2=     -0.6277452850D-01
     beta-beta   T2 =       0.4154448373D-02 E2=     -0.5480882911D-02
 ANorm=    0.1023938227D+01
 E2 =    -0.7344231286D-01 EUMP2 =    -0.49903433332325D+01
 (S**2,0)=  0.21302D+01           (S**2,1)=  0.20727D+01
 E(PUHF)=      -0.49263741125D+01        E(PMP2)=      -0.49977887032D+01
 Second order stability test of a single determinant UHF wave function:
 Stabil:  MDV=134217728
 ***********************************************************************
 Matrix         Lowest Root    Major Pairs
 ***********************************************************************
 Internal UHF     0.0868236    Stable
 RUHF --> CUHF (A)0.2294587    Stable
 RUHF --> CUHF (B)0.1358553    Stable


 RUHF --> GHF    -0.0453911    6A=5B 5A=6B 3B=7A 4B=8A 4A=8B 3A=7B 2B=9A 5A=7B 3A
 =6B 2A=9B 4B=9A 2B=8A 1B=10A 1A=10B
 Not stable.
 ***********************************************************************

 **********************************************************************

            Population analysis using the SCF density.

 **********************************************************************

 Orbital symmetries:
 Alpha Orbitals:
       Occupied  (AG) (BU) (AG) (BU) (AG) (BU)
       Virtual   (BU) (AG) (AG) (BU)
 Beta  Orbitals:
       Occupied  (AG) (BU) (AG) (BU)
       Virtual   (AG) (BU) (BU) (AG) (AG) (BU)
 The electronic state is 3-BU.
 Alpha  occ. eigenvalues --   -0.89855  -0.81154  -0.58287  -0.47555  -0.35621
 Alpha  occ. eigenvalues --   -0.35342
 Alpha virt. eigenvalues --    0.15437   0.26772   0.46315   0.78637
  Beta  occ. eigenvalues --   -0.83938  -0.66777  -0.49118  -0.39131
  Beta virt. eigenvalues --    0.03336   0.03404   0.24473   0.37883   0.59321
  Beta virt. eigenvalues --    0.85241
          Condensed to atoms (all electrons):
               1          2          3          4          5          6
     1  H    0.869345   0.171628   0.130920  -0.154158  -0.031917  -0.019725
     2  H    0.171628   0.845336  -0.158900   0.215079  -0.094297  -0.009435
     3  H    0.130920  -0.158900   0.984268  -0.083834   0.299188  -0.111018
     4  H   -0.154158   0.215079  -0.083834   1.034243  -0.091087   0.184534
     5  H   -0.031917  -0.094297   0.299188  -0.091087   0.965020  -0.066958
     6  H   -0.019725  -0.009435  -0.111018   0.184534  -0.066958   0.965020
     7  H    0.004730   0.004408  -0.035671  -0.061912   0.184534  -0.091087
     8  H    0.005805   0.001558  -0.025158  -0.035671  -0.111018   0.299188
     9  H   -0.000644   0.001644   0.001558   0.004408  -0.009435  -0.094297
    10  H   -0.000155  -0.000644   0.005805   0.004730  -0.019725  -0.031917
               7          8          9         10
     1  H    0.004730   0.005805  -0.000644  -0.000155
     2  H    0.004408   0.001558   0.001644  -0.000644
     3  H   -0.035671  -0.025158   0.001558   0.005805
     4  H   -0.061912  -0.035671   0.004408   0.004730
     5  H    0.184534  -0.111018  -0.009435  -0.019725
     6  H   -0.091087   0.299188  -0.094297  -0.031917
     7  H    1.034243  -0.083834   0.215079  -0.154158
     8  H   -0.083834   0.984268  -0.158900   0.130920
     9  H    0.215079  -0.158900   0.845336   0.171628
    10  H   -0.154158   0.130920   0.171628   0.869345
          Atomic-Atomic Spin Densities.
               1          2          3          4          5          6
     1  H    0.582230  -0.004617  -0.026907  -0.165133  -0.009571   0.012692
     2  H   -0.004617   0.398984  -0.247621   0.076080  -0.018738   0.007627
     3  H   -0.026907  -0.247621   0.535106  -0.041030   0.100644   0.028374
     4  H   -0.165133   0.076080  -0.041030   0.591972   0.074021  -0.140238
     5  H   -0.009571  -0.018738   0.100644   0.074021  -0.367258   0.064603
     6  H    0.012692   0.007627   0.028374  -0.140238   0.064603  -0.367258
     7  H    0.004892   0.013398  -0.065821  -0.003627  -0.140238   0.074021
     8  H    0.006408  -0.002510  -0.002431  -0.065821   0.028374   0.100644
     9  H   -0.001797   0.000693  -0.002510   0.013398   0.007627  -0.018738
    10  H   -0.000579  -0.001797   0.006408   0.004892   0.012692  -0.009571
               7          8          9         10
     1  H    0.004892   0.006408  -0.001797  -0.000579
     2  H    0.013398  -0.002510   0.000693  -0.001797
     3  H   -0.065821  -0.002431  -0.002510   0.006408
     4  H   -0.003627  -0.065821   0.013398   0.004892
     5  H   -0.140238   0.028374   0.007627   0.012692
     6  H    0.074021   0.100644  -0.018738  -0.009571
     7  H    0.591972  -0.041030   0.076080  -0.165133
     8  H   -0.041030   0.535106  -0.247621  -0.026907
     9  H    0.076080  -0.247621   0.398984  -0.004617
    10  H   -0.165133  -0.026907  -0.004617   0.582230
 Mulliken charges and spin densities:
               1          2
     1  H    0.024171   0.397619
     2  H    0.023624   0.221500
     3  H   -0.007158   0.284212
     4  H   -0.016331   0.344513
     5  H   -0.024306  -0.247844
     6  H   -0.024306  -0.247844
     7  H   -0.016331   0.344513
     8  H   -0.007158   0.284212
     9  H    0.023624   0.221500
    10  H    0.024171   0.397619
 Sum of Mulliken charges =  -0.00000   2.00000
 Mulliken charges and spin densities with hydrogens summed into heavy atoms:
               1          2
 Electronic spatial extent (au):  <R**2>=            126.5087
 Charge=             -0.0000 electrons
 Dipole moment (field-independent basis, Debye):
    X=              0.0000    Y=             -0.0000    Z=              0.0000  Tot=              0.0000
 Quadrupole moment (field-independent basis, Debye-Ang):
   XX=            -13.1149   YY=            -15.2637   ZZ=            -12.8834
   XY=              0.7582   XZ=              0.0000   YZ=             -0.0000
 Traceless Quadrupole moment (field-independent basis, Debye-Ang):
   XX=              0.6391   YY=             -1.5097   ZZ=              0.8706
   XY=              0.7582   XZ=              0.0000   YZ=             -0.0000
 Octapole moment (field-independent basis, Debye-Ang**2):
  XXX=              0.0000  YYY=             -0.0000  ZZZ=             -0.0000  XYY=              0.0000
  XXY=             -0.0000  XXZ=             -0.0000  XZZ=             -0.0000  YZZ=             -0.0000
  YYZ=             -0.0000  XYZ=              0.0000
 Hexadecapole moment (field-independent basis, Debye-Ang**3):
 XXXX=           -202.1193 YYYY=            -57.9055 ZZZZ=            -15.5092 XXXY=            -21.7242
 XXXZ=             -0.0000 YYYX=            -22.9564 YYYZ=             -0.0000 ZZZX=             -0.0000
 ZZZY=             -0.0000 XXYY=            -42.8829 XXZZ=            -35.1551 YYZZ=            -12.0387
 XXYZ=             -0.0000 YYXZ=             -0.0000 ZZXY=             -7.4430
 N-N= 1.362447520780D+01 E-N=-3.640512889487D+01  KE= 5.190167745975D+00
 Symmetry AG   KE= 2.349904341608D+00
 Symmetry BG   KE= 0.000000000000D+00
 Symmetry AU   KE= 0.000000000000D+00
 Symmetry BU   KE= 2.840263404367D+00
                          Isotropic Fermi Contact Couplings
        Atom                 a.u.       MegaHertz       Gauss      10(-4) cm-1
     1  H(1)               0.16414     366.84224     130.89843     122.36540
     2  H(1)               0.10758     240.44222      85.79576      80.20289
     3  H(1)               0.14307     319.75822     114.09768     106.65986
     4  H(1)               0.16134     360.58280     128.66490     120.27748
     5  H(1)              -0.10015    -223.82880     -79.86768     -74.66125
     6  H(1)              -0.10015    -223.82880     -79.86768     -74.66125
     7  H(1)               0.16134     360.58280     128.66490     120.27748
     8  H(1)               0.14307     319.75822     114.09768     106.65986
     9  H(1)               0.10758     240.44222      85.79576      80.20289
    10  H(1)               0.16414     366.84224     130.89843     122.36540
 --------------------------------------------------------
       Center         ----  Spin Dipole Couplings  ----
                      3XX-RR        3YY-RR        3ZZ-RR
 --------------------------------------------------------
     1   Atom        0.024465      0.011168     -0.035634
     2   Atom        0.023730      0.036005     -0.059735
     3   Atom        0.001011      0.040861     -0.041872
     4   Atom       -0.015153      0.032723     -0.017570
     5   Atom        0.148286     -0.068286     -0.080000
     6   Atom        0.148286     -0.068286     -0.080000
     7   Atom       -0.015153      0.032723     -0.017570
     8   Atom        0.001011      0.040861     -0.041872
     9   Atom        0.023730      0.036005     -0.059735
    10   Atom        0.024465      0.011168     -0.035634
 --------------------------------------------------------
                        XY            XZ            YZ
 --------------------------------------------------------
     1   Atom       -0.003664      0.000000      0.000000
     2   Atom        0.039796      0.000000     -0.000000
     3   Atom        0.027353     -0.000000      0.000000
     4   Atom       -0.025077     -0.000000     -0.000000
     5   Atom        0.044186     -0.000000     -0.000000
     6   Atom        0.044186     -0.000000      0.000000
     7   Atom       -0.025077      0.000000      0.000000
     8   Atom        0.027353     -0.000000      0.000000
     9   Atom        0.039796      0.000000      0.000000
    10   Atom       -0.003664     -0.000000      0.000000
 --------------------------------------------------------


 ---------------------------------------------------------------------------------
              Anisotropic Spin Dipole Couplings in Principal Axis System
 ---------------------------------------------------------------------------------

       Atom             a.u.   MegaHertz   Gauss  10(-4) cm-1        Axes

              Baa    -0.0356   -19.012    -6.784    -6.342  0.0000  0.0000  1.0000
     1 H(1)   Bbb     0.0102     5.456     1.947     1.820  0.2492  0.9684 -0.0000
              Bcc     0.0254    13.557     4.837     4.522  0.9684 -0.2492  0.0000
 
              Baa    -0.0597   -31.872   -11.373   -10.631  0.0000  0.0000  1.0000
     2 H(1)   Bbb    -0.0104    -5.548    -1.980    -1.851  0.7591 -0.6510  0.0000
              Bcc     0.0701    37.420    13.352    12.482  0.6510  0.7591  0.0000
 
              Baa    -0.0419   -22.341    -7.972    -7.452  0.0000  0.0000  1.0000
     3 H(1)   Bbb    -0.0129    -6.885    -2.457    -2.297  0.8913 -0.4534  0.0000
              Bcc     0.0548    29.226    10.429     9.749  0.4534  0.8913  0.0000
 
              Baa    -0.0259   -13.810    -4.928    -4.606  0.9194  0.3934  0.0000
     4 H(1)   Bbb    -0.0176    -9.375    -3.345    -3.127  0.0000  0.0000  1.0000
              Bcc     0.0435    23.184     8.273     7.734 -0.3934  0.9194 -0.0000
 
              Baa    -0.0800   -42.684   -15.231   -14.238  0.0000  0.0000  1.0000
     5 H(1)   Bbb    -0.0770   -41.059   -14.651   -13.696 -0.1925  0.9813 -0.0000
              Bcc     0.1570    83.743    29.882    27.934  0.9813  0.1925  0.0000
 
              Baa    -0.0800   -42.684   -15.231   -14.238  0.0000  0.0000  1.0000
     6 H(1)   Bbb    -0.0770   -41.059   -14.651   -13.696 -0.1925  0.9813  0.0000
              Bcc     0.1570    83.743    29.882    27.934  0.9813  0.1925  0.0000
 
              Baa    -0.0259   -13.810    -4.928    -4.606  0.9194  0.3934  0.0000
     7 H(1)   Bbb    -0.0176    -9.375    -3.345    -3.127  0.0000  0.0000  1.0000
              Bcc     0.0435    23.184     8.273     7.734 -0.3934  0.9194 -0.0000
 
              Baa    -0.0419   -22.341    -7.972    -7.452  0.0000  0.0000  1.0000
     8 H(1)   Bbb    -0.0129    -6.885    -2.457    -2.297  0.8913 -0.4534  0.0000
              Bcc     0.0548    29.226    10.429     9.749  0.4534  0.8913  0.0000
 
              Baa    -0.0597   -31.872   -11.373   -10.631  0.0000  0.0000  1.0000
     9 H(1)   Bbb    -0.0104    -5.548    -1.980    -1.851  0.7591 -0.6510  0.0000
              Bcc     0.0701    37.420    13.352    12.482  0.6510  0.7591 -0.0000
 
              Baa    -0.0356   -19.012    -6.784    -6.342  0.0000  0.0000  1.0000
    10 H(1)   Bbb     0.0102     5.456     1.947     1.820  0.2492  0.9684  0.0000
              Bcc     0.0254    13.557     4.837     4.522  0.9684 -0.2492  0.0000
 

 ---------------------------------------------------------------------------------


 Test job not archived.
 1\1\GINC-SULU\Stability\UHF\Gen\H10(3)\LCJ1\23-Feb-2017\0\\#uhf/gen sc
 f(tight,novaracc,noincfock,fulldiag, ) stable(crhf) guess=read geom=no
 crowd test\\hf stability analysis of h10 triangular lattice, y= 0.8635
 1505159349251 alpha= 52.250000000000000\\0,3\H\H,1,1.0921037324\H,1,1.
 0921037324,2,75.5\H,2,1.0921037324,1,104.5,3,0.,0\H,3,1.0921037324,1,1
 80.,2,0.,0\H,4,1.0921037324,2,180.,1,0.,0\H,5,1.0921037324,3,180.,2,0.
 ,0\H,6,1.0921037324,4,180.,1,0.,0\H,7,1.0921037324,5,180.,2,0.,0\H,8,1
 .0921037324,6,180.,1,0.,0\\Version=ES64L-G09RevE.01\State=3-BU\HF=-4.9
 16901\MP2=-4.9903433\PUHF=-4.9263741\PMP2-0=-4.9977887\S2=2.130167\S2-
 1=2.072738\S2A=2.005982\RMSD=5.519e-09\Dipole=0.,0.,0.\Quadrupole=0.47
 51466,0.6472552,-1.1224018,0.,0.5637041,0.\PG=C02H [SGH(H10)]\\@


 CONTRAIWISE...CONTINUED TWEEDLEDEE, IF IT WAS SO, IT MIGHT BE,
 AND IF IT WERE SO, IT WOULD BE.....
 BUT AS IT ISN'T, IT AIN'T....
 THAT'S LOGIC.....
 ALICE THROUGH THE LOOKING GLASS
 Job cpu time:       0 days  0 hours  0 minutes  1.0 seconds.
 File lengths (MBytes):  RWF=     94 Int=      0 D2E=      0 Chk=      2 Scr=      2
 Normal termination of Gaussian 09 at Thu Feb 23 12:24:33 2017.
