 Entering Gaussian System, Link 0=g09
 AtFile(1): H.gbs
            H     0
            S   10   1.00
               1000.000000000000            0.000068713567
                316.227766000000            0.000169141320
                100.000000000000            0.000823394812
                 31.622776600000            0.003425569236
                 10.000000000000            0.013951996000
                  3.162277660000            0.056909313560
                  1.000000000000            0.198286399900
                  0.316227766000            0.496922426700
                  0.100000000000            0.369846276400
                  0.031622776600            0.003752720039
            ****
 Initial command:
 /projects/guscus/apps/gau/g09-e1/g09/l1.exe "/users/lcj1/gaussian/h10/2rows_uhf/ag2bu3/triplet/Gau-26370.inp" -scrdir="/users/lcj1/gaussian/h10/2rows_uhf/ag2bu3/triplet/"
 Entering Link 1 = /projects/guscus/apps/gau/g09-e1/g09/l1.exe PID=     26371.
  
 Copyright (c) 1988,1990,1992,1993,1995,1998,2003,2009,2015,
            Gaussian, Inc.  All Rights Reserved.
  
 This is part of the Gaussian(R) 09 program.  It is based on
 the Gaussian(R) 03 system (copyright 2003, Gaussian, Inc.),
 the Gaussian(R) 98 system (copyright 1998, Gaussian, Inc.),
 the Gaussian(R) 94 system (copyright 1995, Gaussian, Inc.),
 the Gaussian 92(TM) system (copyright 1992, Gaussian, Inc.),
 the Gaussian 90(TM) system (copyright 1990, Gaussian, Inc.),
 the Gaussian 88(TM) system (copyright 1988, Gaussian, Inc.),
 the Gaussian 86(TM) system (copyright 1986, Carnegie Mellon
 University), and the Gaussian 82(TM) system (copyright 1983,
 Carnegie Mellon University). Gaussian is a federally registered
 trademark of Gaussian, Inc.
  
 This software contains proprietary and confidential information,
 including trade secrets, belonging to Gaussian, Inc.
  
 This software is provided under written license and may be
 used, copied, transmitted, or stored only in accord with that
 written license.
  
 The following legend is applicable only to US Government
 contracts under FAR:
  
                    RESTRICTED RIGHTS LEGEND
  
 Use, reproduction and disclosure by the US Government is
 subject to restrictions as set forth in subparagraphs (a)
 and (c) of the Commercial Computer Software - Restricted
 Rights clause in FAR 52.227-19.
  
 Gaussian, Inc.
 340 Quinnipiac St., Bldg. 40, Wallingford CT 06492
  
  
 ---------------------------------------------------------------
 Warning -- This program may not be used in any manner that
 competes with the business of Gaussian, Inc. or will provide
 assistance to any competitor of Gaussian, Inc.  The licensee
 of this program is prohibited from giving any competitor of
 Gaussian, Inc. access to this program.  By using this program,
 the user acknowledges that Gaussian, Inc. is engaged in the
 business of creating and licensing software in the field of
 computational chemistry and represents and warrants to the
 licensee that it is not a competitor of Gaussian, Inc. and that
 it will not use this program in any manner prohibited above.
 ---------------------------------------------------------------
  

 Cite this work as:
 Gaussian 09, Revision E.01,
 M. J. Frisch, G. W. Trucks, H. B. Schlegel, G. E. Scuseria, 
 M. A. Robb, J. R. Cheeseman, G. Scalmani, V. Barone, B. Mennucci, 
 G. A. Petersson, H. Nakatsuji, M. Caricato, X. Li, H. P. Hratchian, 
 A. F. Izmaylov, J. Bloino, G. Zheng, J. L. Sonnenberg, M. Hada, 
 M. Ehara, K. Toyota, R. Fukuda, J. Hasegawa, M. Ishida, T. Nakajima, 
 Y. Honda, O. Kitao, H. Nakai, T. Vreven, J. A. Montgomery, Jr., 
 J. E. Peralta, F. Ogliaro, M. Bearpark, J. J. Heyd, E. Brothers, 
 K. N. Kudin, V. N. Staroverov, T. Keith, R. Kobayashi, J. Normand, 
 K. Raghavachari, A. Rendell, J. C. Burant, S. S. Iyengar, J. Tomasi, 
 M. Cossi, N. Rega, J. M. Millam, M. Klene, J. E. Knox, J. B. Cross, 
 V. Bakken, C. Adamo, J. Jaramillo, R. Gomperts, R. E. Stratmann, 
 O. Yazyev, A. J. Austin, R. Cammi, C. Pomelli, J. W. Ochterski, 
 R. L. Martin, K. Morokuma, V. G. Zakrzewski, G. A. Voth, 
 P. Salvador, J. J. Dannenberg, S. Dapprich, A. D. Daniels, 
 O. Farkas, J. B. Foresman, J. V. Ortiz, J. Cioslowski, 
 and D. J. Fox, Gaussian, Inc., Wallingford CT, 2013.
 
 ******************************************
 Gaussian 09:  ES64L-G09RevE.01 30-Nov-2015
                23-Feb-2017 
 ******************************************
 %chk=h10.chk
 ----------------------------------------------------------------------
 #uhf/gen scf(tight,novaracc,noincfock,fulldiag, ) stable(crhf) guess=r
 ead geom=nocrowd test
 ----------------------------------------------------------------------
 1/38=1/1;
 2/12=1,17=6,18=5,40=1/2;
 3/5=7,16=1,25=1,30=1,116=2/1,2,3;
 4/5=1/1;
 5/5=100002,16=1,32=2,38=6/2;
 8/6=1,10=90,11=11/1,4;
 9/8=4,13=1/2;
 6/7=2,8=2,9=2,10=2,28=1/1;
 99/5=1,9=1/99;
 ----------------------------------------------------------------------
 hf stability analysis of h10 triangular lattice, y= 0.5070038553873883
 5 alpha= 24.000000000000000
 ----------------------------------------------------------------------
 Symbolic Z-matrix:
 Charge =  0 Multiplicity = 3
 H
 H                    1     1.24652 
 H                    1     1.24652  2     132. 
 H                    2     1.24652  1     48.      3     0.       0
 H                    3     1.24652  1     180.     2     0.       0
 H                    4     1.24652  2     180.     1     0.       0
 H                    5     1.24652  3     180.     2     0.       0
 H                    6     1.24652  4     180.     1     0.       0
 H                    7     1.24652  5     180.     2     0.       0
 H                    8     1.24652  6     180.     1     0.       0
 
                          Input orientation:                          
 ---------------------------------------------------------------------
 Center     Atomic      Atomic             Coordinates (Angstroms)
 Number     Number       Type             X           Y           Z
 ---------------------------------------------------------------------
      1          1           0        0.000000    0.000000    0.000000
      2          1           0        0.000000    0.000000    1.246516
      3          1           0        0.926342    0.000000   -0.834082
      4          1           0        0.926342    0.000000    0.412434
      5          1           0        1.852684    0.000000   -1.668164
      6          1           0        1.852684    0.000000   -0.421648
      7          1           0        2.779026    0.000000   -2.502247
      8          1           0        2.779026    0.000000   -1.255730
      9          1           0        3.705368    0.000000   -3.336329
     10          1           0        3.705368    0.000000   -2.089812
 ---------------------------------------------------------------------
                    Distance matrix (angstroms):
                    1          2          3          4          5
     1  H    0.000000
     2  H    1.246516   0.000000
     3  H    1.246516   2.277499   0.000000
     4  H    1.014008   1.246516   1.246516   0.000000
     5  H    2.493033   3.453665   1.246516   2.277499   0.000000
     6  H    1.900059   2.493033   1.014008   1.246516   1.246516
     7  H    3.739549   4.666499   2.493033   3.453665   1.246516
     8  H    3.049565   3.739549   1.900059   2.493033   1.014008
     9  H    4.986065   5.893405   3.739549   4.666499   2.493033
    10  H    4.254065   4.986065   3.049565   3.739549   1.900059
                    6          7          8          9         10
     6  H    0.000000
     7  H    2.277499   0.000000
     8  H    1.246516   1.246516   0.000000
     9  H    3.453665   1.246516   2.277499   0.000000
    10  H    2.493033   1.014008   1.246516   1.246516   0.000000
 Stoichiometry    H10(3)
 Framework group  C2H[SGH(H10)]
 Deg. of freedom     9
 Full point group                 C2H     NOp   4
 Largest Abelian subgroup         C2H     NOp   4
 Largest concise Abelian subgroup C2      NOp   2
                         Standard orientation:                         
 ---------------------------------------------------------------------
 Center     Atomic      Atomic             Coordinates (Angstroms)
 Number     Number       Type             X           Y           Z
 ---------------------------------------------------------------------
      1          1           0        1.852684   -1.044906    0.000000
      2          1           0        1.852684   -2.291423    0.000000
      3          1           0        0.926342   -0.210824    0.000000
      4          1           0        0.926342   -1.457340    0.000000
      5          1           0       -0.000000    0.623258    0.000000
      6          1           0       -0.000000   -0.623258   -0.000000
      7          1           0       -0.926342    1.457340    0.000000
      8          1           0       -0.926342    0.210824    0.000000
      9          1           0       -1.852684    2.291423    0.000000
     10          1           0       -1.852684    1.044906    0.000000
 ---------------------------------------------------------------------
 Rotational constants (GHZ):    247.7423791     15.2249221     14.3434503
 General basis read from cards:  (5D, 7F)
 There are     5 symmetry adapted cartesian basis functions of AG  symmetry.
 There are     0 symmetry adapted cartesian basis functions of BG  symmetry.
 There are     0 symmetry adapted cartesian basis functions of AU  symmetry.
 There are     5 symmetry adapted cartesian basis functions of BU  symmetry.
 There are     5 symmetry adapted basis functions of AG  symmetry.
 There are     0 symmetry adapted basis functions of BG  symmetry.
 There are     0 symmetry adapted basis functions of AU  symmetry.
 There are     5 symmetry adapted basis functions of BU  symmetry.
    10 basis functions,   100 primitive gaussians,    10 cartesian basis functions
     6 alpha electrons        4 beta electrons
       nuclear repulsion energy        12.6707799024 Hartrees.
 NAtoms=   10 NActive=   10 NUniq=    5 SFac= 4.00D+00 NAtFMM=   60 NAOKFM=F Big=F
 Integral buffers will be    131072 words long.
 Regular integral format.
 Two-electron integral symmetry is turned on.
 One-electron integrals computed using PRISM.
 NBasis=    10 RedAO= T EigKep=  1.91D-01  NBF=     5     0     0     5
 NBsUse=    10 1.00D-06 EigRej= -1.00D+00 NBFU=     5     0     0     5
 Initial guess from the checkpoint file:  "h10.chk"
 B after Tr=     0.000000    0.000000    0.000000
         Rot=    0.999992   -0.000000    0.000000   -0.003879 Ang=  -0.44 deg.
 Initial guess orbital symmetries:
 Alpha Orbitals:
       Occupied  (AG) (BU) (AG) (BU) (BU) (AG)
       Virtual   (AG) (BU) (BU) (AG)
 Beta  Orbitals:
       Occupied  (AG) (BU) (AG) (BU)
       Virtual   (BU) (AG) (AG) (BU) (BU) (AG)
 Initial guess <Sx>= 0.0000 <Sy>= 0.0000 <Sz>= 1.0000 <S**2>= 2.4849 S= 1.1538
 Keep R1 and R2 ints in memory in symmetry-blocked form, NReq=878291.
 Requested convergence on RMS density matrix=1.00D-08 within 128 cycles.
 Requested convergence on MAX density matrix=1.00D-06.
 Requested convergence on             energy=1.00D-06.
 No special actions if energy rises.
 SCF Done:  E(UHF) =  -4.85553780554     A.U. after   13 cycles
            NFock= 13  Conv=0.39D-08     -V/T= 1.9140
 <Sx>= 0.0000 <Sy>= 0.0000 <Sz>= 1.0000 <S**2>= 2.4621 S= 1.1468
 <L.S>= 0.000000000000E+00
 Annihilation of the first spin contaminant:
 S**2 before annihilation     2.4621,   after     2.0920
 Range of M.O.s used for correlation:     1    10
 NBasis=    10 NAE=     6 NBE=     4 NFC=     0 NFV=     0
 NROrb=     10 NOA=     6 NOB=     4 NVA=     4 NVB=     6
 Semi-Direct transformation.
 ModeAB=           4 MOrb=             6 LenV=     134108132
 LASXX=         1146 LTotXX=        1146 LenRXX=        3117
 LTotAB=        1971 MaxLAS=        1800 LenRXY=           0
 NonZer=        4263 LenScr=      655360 LnRSAI=        1800
 LnScr1=      655360 LExtra=           0 Total=      1315637
 MaxDsk=          -1 SrtSym=           T ITran=            3
 JobTyp=1 Pass  1:  I=   1 to   6.
 (rs|ai) integrals will be sorted in core.
 ModeAB=           4 MOrb=             4 LenV=     134108132
 LASXX=          831 LTotXX=         831 LenRXX=         931
 LTotAB=         100 MaxLAS=        1200 LenRXY=           0
 NonZer=        1762 LenScr=      655360 LnRSAI=        1200
 LnScr1=      655360 LExtra=           0 Total=      1312851
 MaxDsk=          -1 SrtSym=           T ITran=            3
 JobTyp=2 Pass  1:  I=   1 to   4.
 (rs|ai) integrals will be sorted in core.
 Spin components of T(2) and E(2):
     alpha-alpha T2 =       0.2308152793D-02 E2=     -0.3297292774D-02
     alpha-beta  T2 =       0.2999507659D-01 E2=     -0.4659275752D-01
     beta-beta   T2 =       0.1293790466D-02 E2=     -0.2141081568D-02
 ANorm=    0.1016659737D+01
 E2 =    -0.5203113186D-01 EUMP2 =    -0.49075689374037D+01
 (S**2,0)=  0.24621D+01           (S**2,1)=  0.23399D+01
 E(PUHF)=      -0.48797202359D+01        E(PMP2)=      -0.49289173746D+01
 Second order stability test of a single determinant UHF wave function:
 Stabil:  MDV=134217728
 ***********************************************************************
 Matrix         Lowest Root    Major Pairs
 ***********************************************************************
 Internal UHF     0.0569669    Stable
 RUHF --> CUHF (A)0.1703304    Stable
 RUHF --> CUHF (B)0.1022433    Stable

 RUHF --> GHF    -0.0087087    6A=5B 5A=6B 5A=7B 4B=7A 4A=7B 3B=8A 3A=8B 4A=6B 6A
 =9B 3B=9A 4B=10A
 Not stable.
 ***********************************************************************

 **********************************************************************

            Population analysis using the SCF density.

 **********************************************************************

 Orbital symmetries:
 Alpha Orbitals:
       Occupied  (AG) (BU) (AG) (BU) (BU) (AG)
       Virtual   (AG) (BU) (BU) (AG)
 Beta  Orbitals:
       Occupied  (AG) (BU) (AG) (BU)
       Virtual   (BU) (AG) (AG) (BU) (BU) (AG)
 The electronic state is 3-BU.
 Alpha  occ. eigenvalues --   -0.86229  -0.76477  -0.62213  -0.41948  -0.36015
 Alpha  occ. eigenvalues --   -0.29499
 Alpha virt. eigenvalues --    0.15592   0.18728   0.35749   0.54921
  Beta  occ. eigenvalues --   -0.81294  -0.71440  -0.52132  -0.33948
  Beta virt. eigenvalues --    0.04916   0.13805   0.21785   0.30910   0.44374
  Beta virt. eigenvalues --    0.59202
          Condensed to atoms (all electrons):
               1          2          3          4          5          6
     1  H    1.004311  -0.137752   0.117386   0.136544  -0.008586  -0.147753
     2  H   -0.137752   1.168669  -0.107668   0.174025   0.004449  -0.006032
     3  H    0.117386  -0.107668   1.161142  -0.092682   0.045529   0.093718
     4  H    0.136544   0.174025  -0.092682   0.618784  -0.050082   0.083441
     5  H   -0.008586   0.004449   0.045529  -0.050082   1.097934  -0.119746
     6  H   -0.147753  -0.006032   0.093718   0.083441  -0.119746   1.097934
     7  H    0.002048   0.000194   0.005396  -0.001647   0.083441  -0.050082
     8  H   -0.002751   0.004746  -0.158752   0.005396   0.093718   0.045529
     9  H   -0.000450  -0.000005   0.004746   0.000194  -0.006032   0.004449
    10  H    0.001869  -0.000450  -0.002751   0.002048  -0.147753  -0.008586
               7          8          9         10
     1  H    0.002048  -0.002751  -0.000450   0.001869
     2  H    0.000194   0.004746  -0.000005  -0.000450
     3  H    0.005396  -0.158752   0.004746  -0.002751
     4  H   -0.001647   0.005396   0.000194   0.002048
     5  H    0.083441   0.093718  -0.006032  -0.147753
     6  H   -0.050082   0.045529   0.004449  -0.008586
     7  H    0.618784  -0.092682   0.174025   0.136544
     8  H   -0.092682   1.161142  -0.107668   0.117386
     9  H    0.174025  -0.107668   1.168669  -0.137752
    10  H    0.136544   0.117386  -0.137752   1.004311
          Atomic-Atomic Spin Densities.
               1          2          3          4          5          6
     1  H    0.768586  -0.243566   0.216467  -0.140115   0.006419  -0.122881
     2  H   -0.243566   0.879583  -0.021709  -0.034342   0.007186   0.008103
     3  H    0.216467  -0.021709  -0.612542   0.087126  -0.030725  -0.123967
     4  H   -0.140115  -0.034342   0.087126  -0.276296  -0.019944   0.153197
     5  H    0.006419   0.007186  -0.030725  -0.019944   0.888207  -0.211675
     6  H   -0.122881   0.008103  -0.123967   0.153197  -0.211675   0.888207
     7  H    0.000863   0.000340  -0.006997  -0.002532   0.153197  -0.019944
     8  H   -0.002372  -0.001937   0.103891  -0.006997  -0.123967  -0.030725
     9  H   -0.000477   0.000046  -0.001937   0.000340   0.008103   0.007186
    10  H    0.001388  -0.000477  -0.002372   0.000863  -0.122881   0.006419
               7          8          9         10
     1  H    0.000863  -0.002372  -0.000477   0.001388
     2  H    0.000340  -0.001937   0.000046  -0.000477
     3  H   -0.006997   0.103891  -0.001937  -0.002372
     4  H   -0.002532  -0.006997   0.000340   0.000863
     5  H    0.153197  -0.123967   0.008103  -0.122881
     6  H   -0.019944  -0.030725   0.007186   0.006419
     7  H   -0.276296   0.087126  -0.034342  -0.140115
     8  H    0.087126  -0.612542  -0.021709   0.216467
     9  H   -0.034342  -0.021709   0.879583  -0.243566
    10  H   -0.140115   0.216467  -0.243566   0.768586
 Mulliken charges and spin densities:
               1          2
     1  H    0.035133   0.484313
     2  H   -0.100175   0.593228
     3  H   -0.066064  -0.392764
     4  H    0.123979  -0.238698
     5  H    0.007128   0.553921
     6  H    0.007128   0.553921
     7  H    0.123979  -0.238698
     8  H   -0.066064  -0.392764
     9  H   -0.100175   0.593228
    10  H    0.035133   0.484313
 Sum of Mulliken charges =  -0.00000   2.00000
 Mulliken charges and spin densities with hydrogens summed into heavy atoms:
               1          2
 Electronic spatial extent (au):  <R**2>=            159.6242
 Charge=             -0.0000 electrons
 Dipole moment (field-independent basis, Debye):
    X=             -0.0000    Y=              0.0000    Z=             -0.0000  Tot=              0.0000
 Quadrupole moment (field-independent basis, Debye-Ang):
   XX=            -15.8211   YY=            -18.0904   ZZ=            -12.8658
   XY=              2.7583   XZ=              0.0000   YZ=             -0.0000
 Traceless Quadrupole moment (field-independent basis, Debye-Ang):
   XX=             -0.2287   YY=             -2.4979   ZZ=              2.7266
   XY=              2.7583   XZ=              0.0000   YZ=             -0.0000
 Octapole moment (field-independent basis, Debye-Ang**2):
  XXX=             -0.0000  YYY=              0.0000  ZZZ=             -0.0000  XYY=              0.0000
  XXY=              0.0000  XXZ=             -0.0000  XZZ=             -0.0000  YZZ=              0.0000
  YYZ=             -0.0000  XYZ=              0.0000
 Hexadecapole moment (field-independent basis, Debye-Ang**3):
 XXXX=           -162.1161 YYYY=           -212.1044 ZZZZ=            -15.5160 XXXY=             74.5289
 XXXZ=              0.0000 YYYX=             94.0849 YYYZ=             -0.0000 ZZZX=              0.0000
 ZZZY=             -0.0000 XXYY=            -73.4479 XXZZ=            -28.4698 YYZZ=            -30.4809
 XXYZ=             -0.0000 YYXZ=              0.0000 ZZXY=             21.0975
 N-N= 1.267077990237D+01 E-N=-3.465336505396D+01  KE= 5.312688120790D+00
 Symmetry AG   KE= 2.376096991829D+00
 Symmetry BG   KE= 0.000000000000D+00
 Symmetry AU   KE= 0.000000000000D+00
 Symmetry BU   KE= 2.936591128961D+00
                          Isotropic Fermi Contact Couplings
        Atom                 a.u.       MegaHertz       Gauss      10(-4) cm-1
     1  H(1)               0.20667     461.88912     164.81352     154.06963
     2  H(1)               0.24074     538.04149     191.98658     179.47132
     3  H(1)              -0.16949    -378.79682    -135.16412    -126.35302
     4  H(1)              -0.08207    -183.43081     -65.45267     -61.18593
     5  H(1)               0.23804     531.99892     189.83044     177.45574
     6  H(1)               0.23804     531.99892     189.83044     177.45574
     7  H(1)              -0.08207    -183.43081     -65.45267     -61.18593
     8  H(1)              -0.16949    -378.79682    -135.16412    -126.35302
     9  H(1)               0.24074     538.04149     191.98658     179.47132
    10  H(1)               0.20667     461.88912     164.81352     154.06963
 --------------------------------------------------------
       Center         ----  Spin Dipole Couplings  ----
                      3XX-RR        3YY-RR        3ZZ-RR
 --------------------------------------------------------
     1   Atom       -0.045841      0.039539      0.006301
     2   Atom       -0.017314      0.015322      0.001992
     3   Atom        0.099798      0.006736     -0.106534
     4   Atom        0.104421     -0.013248     -0.091173
     5   Atom       -0.083008      0.045177      0.037830
     6   Atom       -0.083008      0.045177      0.037830
     7   Atom        0.104421     -0.013248     -0.091173
     8   Atom        0.099798      0.006736     -0.106534
     9   Atom       -0.017314      0.015322      0.001992
    10   Atom       -0.045841      0.039539      0.006301
 --------------------------------------------------------
                        XY            XZ            YZ
 --------------------------------------------------------
     1   Atom       -0.029880      0.000000     -0.000000
     2   Atom        0.026039      0.000000     -0.000000
     3   Atom       -0.042589      0.000000      0.000000
     4   Atom       -0.046950      0.000000     -0.000000
     5   Atom       -0.020297      0.000000      0.000000
     6   Atom       -0.020297     -0.000000     -0.000000
     7   Atom       -0.046950     -0.000000      0.000000
     8   Atom       -0.042589     -0.000000      0.000000
     9   Atom        0.026039      0.000000      0.000000
    10   Atom       -0.029880     -0.000000     -0.000000
 --------------------------------------------------------


 ---------------------------------------------------------------------------------
              Anisotropic Spin Dipole Couplings in Principal Axis System
 ---------------------------------------------------------------------------------

       Atom             a.u.   MegaHertz   Gauss  10(-4) cm-1        Axes

              Baa    -0.0553   -29.484   -10.521    -9.835  0.9537  0.3006  0.0000
     1 H(1)   Bbb     0.0063     3.362     1.200     1.121  0.0000  0.0000  1.0000
              Bcc     0.0490    26.122     9.321     8.713 -0.3006  0.9537  0.0000
 
              Baa    -0.0317   -16.927    -6.040    -5.646  0.8749 -0.4842  0.0000
     2 H(1)   Bbb     0.0020     1.063     0.379     0.355  0.0000  0.0000  1.0000
              Bcc     0.0297    15.864     5.661     5.292  0.4842  0.8749  0.0000
 
              Baa    -0.1065   -56.842   -20.282   -18.960  0.0000  0.0000  1.0000
     3 H(1)   Bbb    -0.0098    -5.235    -1.868    -1.746  0.3622  0.9321 -0.0000
              Bcc     0.1163    62.077    22.151    20.707  0.9321 -0.3622  0.0000
 
              Baa    -0.0912   -48.645   -17.358   -16.226  0.0000  0.0000  1.0000
     4 H(1)   Bbb    -0.0297   -15.839    -5.652    -5.283  0.3304  0.9438  0.0000
              Bcc     0.1209    64.484    23.009    21.510  0.9438 -0.3304  0.0000
 
              Baa    -0.0861   -45.963   -16.401   -15.332  0.9883  0.1527  0.0000
     5 H(1)   Bbb     0.0378    20.184     7.202     6.733  0.0000  0.0000  1.0000
              Bcc     0.0483    25.778     9.198     8.599 -0.1527  0.9883 -0.0000
 
              Baa    -0.0861   -45.963   -16.401   -15.332  0.9883  0.1527  0.0000
     6 H(1)   Bbb     0.0378    20.184     7.202     6.733  0.0000  0.0000  1.0000
              Bcc     0.0483    25.778     9.198     8.599 -0.1527  0.9883 -0.0000
 
              Baa    -0.0912   -48.645   -17.358   -16.226  0.0000  0.0000  1.0000
     7 H(1)   Bbb    -0.0297   -15.839    -5.652    -5.283  0.3304  0.9438  0.0000
              Bcc     0.1209    64.484    23.009    21.510  0.9438 -0.3304  0.0000
 
              Baa    -0.1065   -56.842   -20.282   -18.960  0.0000  0.0000  1.0000
     8 H(1)   Bbb    -0.0098    -5.235    -1.868    -1.746  0.3622  0.9321  0.0000
              Bcc     0.1163    62.077    22.151    20.707  0.9321 -0.3622  0.0000
 
              Baa    -0.0317   -16.927    -6.040    -5.646  0.8749 -0.4842  0.0000
     9 H(1)   Bbb     0.0020     1.063     0.379     0.355  0.0000  0.0000  1.0000
              Bcc     0.0297    15.864     5.661     5.292  0.4842  0.8749 -0.0000
 
              Baa    -0.0553   -29.484   -10.521    -9.835  0.9537  0.3006  0.0000
    10 H(1)   Bbb     0.0063     3.362     1.200     1.121  0.0000  0.0000  1.0000
              Bcc     0.0490    26.122     9.321     8.713 -0.3006  0.9537 -0.0000
 

 ---------------------------------------------------------------------------------


 Test job not archived.
 1\1\GINC-SULU\Stability\UHF\Gen\H10(3)\LCJ1\23-Feb-2017\0\\#uhf/gen sc
 f(tight,novaracc,noincfock,fulldiag, ) stable(crhf) guess=read geom=no
 crowd test\\hf stability analysis of h10 triangular lattice, y= 0.5070
 0385538738835 alpha= 24.000000000000000\\0,3\H\H,1,1.2465162673\H,1,1.
 2465162673,2,132.\H,2,1.2465162673,1,48.,3,0.,0\H,3,1.2465162673,1,180
 .,2,0.,0\H,4,1.2465162673,2,180.,1,0.,0\H,5,1.2465162673,3,180.,2,0.,0
 \H,6,1.2465162673,4,180.,1,0.,0\H,7,1.2465162673,5,180.,2,0.,0\H,8,1.2
 465162673,6,180.,1,0.,0\\Version=ES64L-G09RevE.01\State=3-BU\HF=-4.855
 5378\MP2=-4.9075689\PUHF=-4.8797202\PMP2-0=-4.9289174\S2=2.46209\S2-1=
 2.3399\S2A=2.091951\RMSD=3.901e-09\Dipole=0.,0.,0.\Quadrupole=-0.17003
 88,2.0271736,-1.8571348,0.,2.0507638,0.\PG=C02H [SGH(H10)]\\@


 GOORD'S AXIOM:  A MEETING IS AN EVENT AT WHICH
 THE MINUTES ARE KEPT AND THE HOURS ARE LOST.
 Job cpu time:       0 days  0 hours  0 minutes  1.0 seconds.
 File lengths (MBytes):  RWF=     94 Int=      0 D2E=      0 Chk=      2 Scr=      2
 Normal termination of Gaussian 09 at Thu Feb 23 12:19:50 2017.
