 Entering Gaussian System, Link 0=g09
 AtFile(1): H.gbs
            H     0
            S   10   1.00
               1000.000000000000            0.000068713567
                316.227766000000            0.000169141320
                100.000000000000            0.000823394812
                 31.622776600000            0.003425569236
                 10.000000000000            0.013951996000
                  3.162277660000            0.056909313560
                  1.000000000000            0.198286399900
                  0.316227766000            0.496922426700
                  0.100000000000            0.369846276400
                  0.031622776600            0.003752720039
            ****
 Initial command:
 /projects/guscus/apps/gau/g09-e1/g09/l1.exe "/users/lcj1/gaussian/h14_rhf2rows/alpha15/Gau-17325.inp" -scrdir="/users/lcj1/gaussian/h14_rhf2rows/alpha15/"
 Entering Link 1 = /projects/guscus/apps/gau/g09-e1/g09/l1.exe PID=     17326.
  
 Copyright (c) 1988,1990,1992,1993,1995,1998,2003,2009,2015,
            Gaussian, Inc.  All Rights Reserved.
  
 This is part of the Gaussian(R) 09 program.  It is based on
 the Gaussian(R) 03 system (copyright 2003, Gaussian, Inc.),
 the Gaussian(R) 98 system (copyright 1998, Gaussian, Inc.),
 the Gaussian(R) 94 system (copyright 1995, Gaussian, Inc.),
 the Gaussian 92(TM) system (copyright 1992, Gaussian, Inc.),
 the Gaussian 90(TM) system (copyright 1990, Gaussian, Inc.),
 the Gaussian 88(TM) system (copyright 1988, Gaussian, Inc.),
 the Gaussian 86(TM) system (copyright 1986, Carnegie Mellon
 University), and the Gaussian 82(TM) system (copyright 1983,
 Carnegie Mellon University). Gaussian is a federally registered
 trademark of Gaussian, Inc.
  
 This software contains proprietary and confidential information,
 including trade secrets, belonging to Gaussian, Inc.
  
 This software is provided under written license and may be
 used, copied, transmitted, or stored only in accord with that
 written license.
  
 The following legend is applicable only to US Government
 contracts under FAR:
  
                    RESTRICTED RIGHTS LEGEND
  
 Use, reproduction and disclosure by the US Government is
 subject to restrictions as set forth in subparagraphs (a)
 and (c) of the Commercial Computer Software - Restricted
 Rights clause in FAR 52.227-19.
  
 Gaussian, Inc.
 340 Quinnipiac St., Bldg. 40, Wallingford CT 06492
  
  
 ---------------------------------------------------------------
 Warning -- This program may not be used in any manner that
 competes with the business of Gaussian, Inc. or will provide
 assistance to any competitor of Gaussian, Inc.  The licensee
 of this program is prohibited from giving any competitor of
 Gaussian, Inc. access to this program.  By using this program,
 the user acknowledges that Gaussian, Inc. is engaged in the
 business of creating and licensing software in the field of
 computational chemistry and represents and warrants to the
 licensee that it is not a competitor of Gaussian, Inc. and that
 it will not use this program in any manner prohibited above.
 ---------------------------------------------------------------
  

 Cite this work as:
 Gaussian 09, Revision E.01,
 M. J. Frisch, G. W. Trucks, H. B. Schlegel, G. E. Scuseria, 
 M. A. Robb, J. R. Cheeseman, G. Scalmani, V. Barone, B. Mennucci, 
 G. A. Petersson, H. Nakatsuji, M. Caricato, X. Li, H. P. Hratchian, 
 A. F. Izmaylov, J. Bloino, G. Zheng, J. L. Sonnenberg, M. Hada, 
 M. Ehara, K. Toyota, R. Fukuda, J. Hasegawa, M. Ishida, T. Nakajima, 
 Y. Honda, O. Kitao, H. Nakai, T. Vreven, J. A. Montgomery, Jr., 
 J. E. Peralta, F. Ogliaro, M. Bearpark, J. J. Heyd, E. Brothers, 
 K. N. Kudin, V. N. Staroverov, T. Keith, R. Kobayashi, J. Normand, 
 K. Raghavachari, A. Rendell, J. C. Burant, S. S. Iyengar, J. Tomasi, 
 M. Cossi, N. Rega, J. M. Millam, M. Klene, J. E. Knox, J. B. Cross, 
 V. Bakken, C. Adamo, J. Jaramillo, R. Gomperts, R. E. Stratmann, 
 O. Yazyev, A. J. Austin, R. Cammi, C. Pomelli, J. W. Ochterski, 
 R. L. Martin, K. Morokuma, V. G. Zakrzewski, G. A. Voth, 
 P. Salvador, J. J. Dannenberg, S. Dapprich, A. D. Daniels, 
 O. Farkas, J. B. Foresman, J. V. Ortiz, J. Cioslowski, 
 and D. J. Fox, Gaussian, Inc., Wallingford CT, 2013.
 
 ******************************************
 Gaussian 09:  ES64L-G09RevE.01 30-Nov-2015
                15-Feb-2017 
 ******************************************
 %chk=h14.chk
 ----------------------------------------------------------------------
 #rhf/gen scf(symm,tight,novaracc,noincfock,fulldiag) stable(crhf) gues
 s=read geom=nocrowd test
 ----------------------------------------------------------------------
 1/38=1/1;
 2/12=1,17=6,18=5,40=1/2;
 3/5=7,16=1,25=1,30=1,116=1/1,2,3;
 4/5=1,9=4/1;
 5/5=100002,15=2,16=1,32=2,38=6/2;
 8/6=1,10=90,11=11/1,4;
 9/8=4,13=1/2;
 6/7=2,8=2,9=2,10=2,28=1/1;
 99/5=1,9=1/99;
 ----------------------------------------------------------------------
 hf stability analysis of h12 triangular lattice, y= 0.8294933944434413
 9 alpha= 50.000000000000000
 ----------------------------------------------------------------------
 Symbolic Z-matrix:
 Charge =  0 Multiplicity = 1
 H
 H                    1     1.08283 
 H                    1     1.08283  2     80. 
 H                    2     1.08283  1     100.     3     0.       0
 H                    3     1.08283  1     180.     2     0.       0
 H                    4     1.08283  2     180.     1     0.       0
 H                    5     1.08283  3     180.     2     0.       0
 H                    6     1.08283  4     180.     1     0.       0
 H                    7     1.08283  5     180.     2     0.       0
 H                    8     1.08283  6     180.     1     0.       0
 H                    9     1.08283  7     180.     2     0.       0
 H                    10    1.08283  8     180.     1     0.       0
 H                    11    1.08283  9     180.     2     0.       0
 H                    12    1.08283  10    180.     1     0.       0
 
                          Input orientation:                          
 ---------------------------------------------------------------------
 Center     Atomic      Atomic             Coordinates (Angstroms)
 Number     Number       Type             X           Y           Z
 ---------------------------------------------------------------------
      1          1           0        0.000000    0.000000    0.000000
      2          1           0        0.000000    0.000000    1.082827
      3          1           0        1.066376    0.000000    0.188031
      4          1           0        1.066376    0.000000    1.270858
      5          1           0        2.132752    0.000000    0.376062
      6          1           0        2.132752    0.000000    1.458888
      7          1           0        3.199128    0.000000    0.564093
      8          1           0        3.199128    0.000000    1.646919
      9          1           0        4.265505    0.000000    0.752124
     10          1           0        4.265505    0.000000    1.834950
     11          1           0        5.331881    0.000000    0.940154
     12          1           0        5.331881    0.000000    2.022981
     13          1           0        6.398257    0.000000    1.128185
     14          1           0        6.398257    0.000000    2.211012
 ---------------------------------------------------------------------
                    Distance matrix (angstroms):
                    1          2          3          4          5
     1  H    0.000000
     2  H    1.082827   0.000000
     3  H    1.082827   1.392055   0.000000
     4  H    1.658987   1.082827   1.082827   0.000000
     5  H    2.165653   2.246809   1.082827   1.392055   0.000000
     6  H    2.583987   2.165653   1.658987   1.082827   1.082827
     7  H    3.248480   3.240912   2.165653   2.246809   1.082827
     8  H    3.598161   3.248480   2.583987   2.165653   1.658987
     9  H    4.331307   4.278305   3.248480   3.240912   2.165653
    10  H    4.643444   4.331307   3.598161   3.248480   2.583987
    11  H    5.414134   5.333789   4.331307   4.278305   3.248480
    12  H    5.702754   5.414134   4.643444   4.331307   3.598161
    13  H    6.496960   6.398418   5.414134   5.333789   4.331307
    14  H    6.769510   6.496960   5.702754   5.414134   4.643444
                    6          7          8          9         10
     6  H    0.000000
     7  H    1.392055   0.000000
     8  H    1.082827   1.082827   0.000000
     9  H    2.246809   1.082827   1.392055   0.000000
    10  H    2.165653   1.658987   1.082827   1.082827   0.000000
    11  H    3.240912   2.165653   2.246809   1.082827   1.392055
    12  H    3.248480   2.583987   2.165653   1.658987   1.082827
    13  H    4.278305   3.248480   3.240912   2.165653   2.246809
    14  H    4.331307   3.598161   3.248480   2.583987   2.165653
                   11         12         13         14
    11  H    0.000000
    12  H    1.082827   0.000000
    13  H    1.082827   1.392055   0.000000
    14  H    1.658987   1.082827   1.082827   0.000000
 Stoichiometry    H14
 Framework group  C2H[SGH(H14)]
 Deg. of freedom    13
 Full point group                 C2H     NOp   4
 Largest Abelian subgroup         C2H     NOp   4
 Largest concise Abelian subgroup C2      NOp   2
                         Standard orientation:                         
 ---------------------------------------------------------------------
 Center     Atomic      Atomic             Coordinates (Angstroms)
 Number     Number       Type             X           Y           Z
 ---------------------------------------------------------------------
      1          1           0        3.199128    1.105506   -0.000000
      2          1           0        3.199128    0.022679   -0.000000
      3          1           0        2.132752    0.917475   -0.000000
      4          1           0        2.132752   -0.165352   -0.000000
      5          1           0        1.066376    0.729444    0.000000
      6          1           0        1.066376   -0.353382   -0.000000
      7          1           0        0.000000    0.541413    0.000000
      8          1           0       -0.000000   -0.541413    0.000000
      9          1           0       -1.066376    0.353382   -0.000000
     10          1           0       -1.066376   -0.729444   -0.000000
     11          1           0       -2.132752    0.165352   -0.000000
     12          1           0       -2.132752   -0.917475   -0.000000
     13          1           0       -3.199128   -0.022679   -0.000000
     14          1           0       -3.199128   -1.105506   -0.000000
 ---------------------------------------------------------------------
 Rotational constants (GHZ):    126.2447945      7.6217695      7.1878197
 General basis read from cards:  (5D, 7F)
 There are     7 symmetry adapted cartesian basis functions of AG  symmetry.
 There are     0 symmetry adapted cartesian basis functions of BG  symmetry.
 There are     0 symmetry adapted cartesian basis functions of AU  symmetry.
 There are     7 symmetry adapted cartesian basis functions of BU  symmetry.
 There are     7 symmetry adapted basis functions of AG  symmetry.
 There are     0 symmetry adapted basis functions of BG  symmetry.
 There are     0 symmetry adapted basis functions of AU  symmetry.
 There are     7 symmetry adapted basis functions of BU  symmetry.
    14 basis functions,   140 primitive gaussians,    14 cartesian basis functions
     7 alpha electrons        7 beta electrons
       nuclear repulsion energy        23.2144168585 Hartrees.
 NAtoms=   14 NActive=   14 NUniq=    7 SFac= 4.00D+00 NAtFMM=   60 NAOKFM=F Big=F
 Integral buffers will be    131072 words long.
 Regular integral format.
 Two-electron integral symmetry is turned on.
 One-electron integrals computed using PRISM.
 NBasis=    14 RedAO= T EigKep=  1.18D-01  NBF=     7     0     0     7
 NBsUse=    14 1.00D-06 EigRej= -1.00D+00 NBFU=     7     0     0     7
 Initial guess from the checkpoint file:  "h14.chk"
 B after Tr=    -0.000000   -0.000000   -0.000000
         Rot=    0.999992    0.000000   -0.000000   -0.004107 Ang=  -0.47 deg.
 Initial guess orbital symmetries:
       Occupied  (AG) (BU) (AG) (BU) (BU) (AG) (AG)
       Virtual   (BU) (BU) (AG) (BU) (AG) (AG) (BU)
 Keep R1 ints in memory in symmetry-blocked form, NReq=924976.
 Requested convergence on RMS density matrix=1.00D-08 within 128 cycles.
 Requested convergence on MAX density matrix=1.00D-06.
 Requested convergence on             energy=1.00D-06.
 No special actions if energy rises.
 SCF Done:  E(RHF) =  -6.89519287080     A.U. after    9 cycles
            NFock=  9  Conv=0.87D-08     -V/T= 1.9625
 Range of M.O.s used for correlation:     1    14
 NBasis=    14 NAE=     7 NBE=     7 NFC=     0 NFV=     0
 NROrb=     14 NOA=     7 NOB=     7 NVA=     7 NVB=     7
 Semi-Direct transformation.
 ModeAB=           4 MOrb=             7 LenV=     134065666
 LASXX=         4102 LTotXX=        4102 LenRXX=        9443
 LTotAB=        5341 MaxLAS=        5488 LenRXY=           0
 NonZer=       13545 LenScr=      655360 LnRSAI=        5488
 LnScr1=      655360 LExtra=           0 Total=      1325651
 MaxDsk=          -1 SrtSym=           T ITran=            3
 JobTyp=0 Pass  1:  I=   1 to   7.
 (rs|ai) integrals will be sorted in core.
 Spin components of T(2) and E(2):
     alpha-alpha T2 =       0.1108781690D-01 E2=     -0.1365716950D-01
     alpha-beta  T2 =       0.9715034232D-01 E2=     -0.1304865939D+00
     beta-beta   T2 =       0.1108781690D-01 E2=     -0.1365716950D-01
 ANorm=    0.1057982030D+01
 E2 =    -0.1578009330D+00 EUMP2 =    -0.70529938037564D+01
 Second order stability test of a single determinant RHF wave function:
 Stabil:  MDV=134217728
 ***********************************************************************
 Matrix         Lowest Root    Major Pairs
 ***********************************************************************
 Internal RHF     0.1095145    Stable
 RRHF --> CRHF    0.0726086    Stable

 RRHF --> RUHF   -0.0832539    7A=8B 6A=9B 6A=8B 4A=10B 5A=12B 3A=11B 7A=9B 2A=13
 B 1A=14B
 Not stable.
 ***********************************************************************

 **********************************************************************

            Population analysis using the SCF density.

 **********************************************************************

 Orbital symmetries:
       Occupied  (AG) (BU) (AG) (BU) (BU) (AG) (AG)
       Virtual   (BU) (BU) (AG) (BU) (AG) (AG) (BU)
 The electronic state is 1-AG.
 Alpha  occ. eigenvalues --   -0.89159  -0.82273  -0.70508  -0.54512  -0.45371
 Alpha  occ. eigenvalues --   -0.35928  -0.34190
 Alpha virt. eigenvalues --   -0.01385   0.13682   0.18563   0.42428   0.44661
 Alpha virt. eigenvalues --    0.71033   0.94513
          Condensed to atoms (all electrons):
               1          2          3          4          5          6
     1  H    0.801133   0.304305   0.100639  -0.142475  -0.038914  -0.052554
     2  H    0.304305   0.773150  -0.124844   0.098093  -0.108571  -0.001067
     3  H    0.100639  -0.124844   0.872453  -0.112038   0.431283  -0.123083
     4  H   -0.142475   0.098093  -0.112038   1.041238  -0.092579   0.409750
     5  H   -0.038914  -0.108571   0.431283  -0.092579   1.028692  -0.069197
     6  H   -0.052554  -0.001067  -0.123083   0.409750  -0.069197   0.801972
     7  H    0.014688   0.003388  -0.015133  -0.100126   0.066322  -0.089919
     8  H    0.006532   0.013801  -0.051271  -0.038618  -0.140410   0.114628
     9  H    0.000107   0.001027  -0.002828   0.002170  -0.022695  -0.026819
    10  H    0.000048  -0.000842   0.005545  -0.000291  -0.002270  -0.022695
    11  H   -0.000338  -0.000036  -0.000040   0.003560  -0.000291   0.002170
    12  H   -0.000054  -0.000298   0.001505  -0.000040   0.005545  -0.002828
    13  H    0.000011   0.000034  -0.000298  -0.000036  -0.000842   0.001027
    14  H    0.000022   0.000011  -0.000054  -0.000338   0.000048   0.000107
               7          8          9         10         11         12
     1  H    0.014688   0.006532   0.000107   0.000048  -0.000338  -0.000054
     2  H    0.003388   0.013801   0.001027  -0.000842  -0.000036  -0.000298
     3  H   -0.015133  -0.051271  -0.002828   0.005545  -0.000040   0.001505
     4  H   -0.100126  -0.038618   0.002170  -0.000291   0.003560  -0.000040
     5  H    0.066322  -0.140410  -0.022695  -0.002270  -0.000291   0.005545
     6  H   -0.089919   0.114628  -0.026819  -0.022695   0.002170  -0.002828
     7  H    0.942745   0.274356   0.114628  -0.140410  -0.038618  -0.051271
     8  H    0.274356   0.942745  -0.089919   0.066322  -0.100126  -0.015133
     9  H    0.114628  -0.089919   0.801972  -0.069197   0.409750  -0.123083
    10  H   -0.140410   0.066322  -0.069197   1.028692  -0.092579   0.431283
    11  H   -0.038618  -0.100126   0.409750  -0.092579   1.041238  -0.112038
    12  H   -0.051271  -0.015133  -0.123083   0.431283  -0.112038   0.872453
    13  H    0.013801   0.003388  -0.001067  -0.108571   0.098093  -0.124844
    14  H    0.006532   0.014688  -0.052554  -0.038914  -0.142475   0.100639
              13         14
     1  H    0.000011   0.000022
     2  H    0.000034   0.000011
     3  H   -0.000298  -0.000054
     4  H   -0.000036  -0.000338
     5  H   -0.000842   0.000048
     6  H    0.001027   0.000107
     7  H    0.013801   0.006532
     8  H    0.003388   0.014688
     9  H   -0.001067  -0.052554
    10  H   -0.108571  -0.038914
    11  H    0.098093  -0.142475
    12  H   -0.124844   0.100639
    13  H    0.773150   0.304305
    14  H    0.304305   0.801133
 Mulliken charges:
               1
     1  H    0.006849
     2  H    0.041850
     3  H    0.018164
     4  H   -0.068270
     5  H   -0.056120
     6  H    0.058508
     7  H   -0.000981
     8  H   -0.000981
     9  H    0.058508
    10  H   -0.056120
    11  H   -0.068270
    12  H    0.018164
    13  H    0.041850
    14  H    0.006849
 Sum of Mulliken charges =  -0.00000
 Mulliken charges with hydrogens summed into heavy atoms:
               1
 Electronic spatial extent (au):  <R**2>=            292.5501
 Charge=             -0.0000 electrons
 Dipole moment (field-independent basis, Debye):
    X=             -0.0000    Y=              0.0000    Z=             -0.0000  Tot=              0.0000
 Quadrupole moment (field-independent basis, Debye-Ang):
   XX=            -19.0675   YY=            -21.3261   ZZ=            -18.0029
   XY=              0.2068   XZ=              0.0000   YZ=             -0.0000
 Traceless Quadrupole moment (field-independent basis, Debye-Ang):
   XX=              0.3980   YY=             -1.8606   ZZ=              1.4625
   XY=              0.2068   XZ=              0.0000   YZ=             -0.0000
 Octapole moment (field-independent basis, Debye-Ang**2):
  XXX=              0.0000  YYY=             -0.0000  ZZZ=              0.0000  XYY=             -0.0000
  XXY=              0.0000  XXZ=              0.0000  XZZ=             -0.0000  YZZ=             -0.0000
  YYZ=              0.0000  XYZ=             -0.0000
 Hexadecapole moment (field-independent basis, Debye-Ang**3):
 XXXX=           -564.3944 YYYY=            -79.8006 ZZZZ=            -21.5746 XXXY=            -46.9238
 XXXZ=             -0.0000 YYYX=            -46.5601 YYYZ=             -0.0000 ZZZX=             -0.0000
 ZZZY=             -0.0000 XXYY=           -106.0493 XXZZ=            -92.1887 YYZZ=            -16.5849
 XXYZ=             -0.0000 YYXZ=             -0.0000 ZZXY=            -14.7986
 N-N= 2.321441685852D+01 E-N=-5.914416268997D+01  KE= 7.163736763221D+00
 Symmetry AG   KE= 4.269696505201D+00
 Symmetry BG   KE= 0.000000000000D+00
 Symmetry AU   KE= 0.000000000000D+00
 Symmetry BU   KE= 2.894040258020D+00

 Test job not archived.
 1\1\GINC-SULU\Stability\RHF\Gen\H14\LCJ1\15-Feb-2017\0\\#rhf/gen scf(s
 ymm,tight,novaracc,noincfock,fulldiag) stable(crhf) guess=read geom=no
 crowd test\\hf stability analysis of h12 triangular lattice, y= 0.8294
 9339444344139 alpha= 50.000000000000000\\0,1\H\H,1,1.0828267015\H,1,1.
 0828267015,2,80.\H,2,1.0828267015,1,100.,3,0.,0\H,3,1.0828267015,1,180
 .,2,0.,0\H,4,1.0828267015,2,180.,1,0.,0\H,5,1.0828267015,3,180.,2,0.,0
 \H,6,1.0828267015,4,180.,1,0.,0\H,7,1.0828267015,5,180.,2,0.,0\H,8,1.0
 828267015,6,180.,1,0.,0\H,9,1.0828267015,7,180.,2,0.,0\H,10,1.08282670
 15,8,180.,1,0.,0\H,11,1.0828267015,9,180.,2,0.,0\H,12,1.0828267015,10,
 180.,1,0.,0\\Version=ES64L-G09RevE.01\State=1-AG\HF=-6.8951929\MP2=-7.
 0529938\RMSD=8.742e-09\Dipole=0.,0.,0.\Quadrupole=0.295912,1.0873685,-
 1.3832805,0.,0.153732,0.\PG=C02H [SGH(H14)]\\@


 Where a calculator on the ENIAC is equipped with 18,000
 vacuum tubes and weighs 30 tons, computers inthe future
 may  have only 1,000 vacuum tubes and weigh only 1 1/2 tons.
              ---Popular Mechanics, March 1949
 Job cpu time:       0 days  0 hours  0 minutes  1.3 seconds.
 File lengths (MBytes):  RWF=     84 Int=      0 D2E=      0 Chk=      2 Scr=      2
 Normal termination of Gaussian 09 at Wed Feb 15 12:34:49 2017.
