 Entering Gaussian System, Link 0=g09
 Initial command:
 /projects/guscus/apps/gau/g09-e1/g09/l1.exe "/users/lcj1/gaussian/H4_PESscans/D4/Gau-5977.inp" -scrdir="/users/lcj1/gaussian/H4_PESscans/D4/"
 Entering Link 1 = /projects/guscus/apps/gau/g09-e1/g09/l1.exe PID=      5978.
  
 Copyright (c) 1988,1990,1992,1993,1995,1998,2003,2009,2015,
            Gaussian, Inc.  All Rights Reserved.
  
 This is part of the Gaussian(R) 09 program.  It is based on
 the Gaussian(R) 03 system (copyright 2003, Gaussian, Inc.),
 the Gaussian(R) 98 system (copyright 1998, Gaussian, Inc.),
 the Gaussian(R) 94 system (copyright 1995, Gaussian, Inc.),
 the Gaussian 92(TM) system (copyright 1992, Gaussian, Inc.),
 the Gaussian 90(TM) system (copyright 1990, Gaussian, Inc.),
 the Gaussian 88(TM) system (copyright 1988, Gaussian, Inc.),
 the Gaussian 86(TM) system (copyright 1986, Carnegie Mellon
 University), and the Gaussian 82(TM) system (copyright 1983,
 Carnegie Mellon University). Gaussian is a federally registered
 trademark of Gaussian, Inc.
  
 This software contains proprietary and confidential information,
 including trade secrets, belonging to Gaussian, Inc.
  
 This software is provided under written license and may be
 used, copied, transmitted, or stored only in accord with that
 written license.
  
 The following legend is applicable only to US Government
 contracts under FAR:
  
                    RESTRICTED RIGHTS LEGEND
  
 Use, reproduction and disclosure by the US Government is
 subject to restrictions as set forth in subparagraphs (a)
 and (c) of the Commercial Computer Software - Restricted
 Rights clause in FAR 52.227-19.
  
 Gaussian, Inc.
 340 Quinnipiac St., Bldg. 40, Wallingford CT 06492
  
  
 ---------------------------------------------------------------
 Warning -- This program may not be used in any manner that
 competes with the business of Gaussian, Inc. or will provide
 assistance to any competitor of Gaussian, Inc.  The licensee
 of this program is prohibited from giving any competitor of
 Gaussian, Inc. access to this program.  By using this program,
 the user acknowledges that Gaussian, Inc. is engaged in the
 business of creating and licensing software in the field of
 computational chemistry and represents and warrants to the
 licensee that it is not a competitor of Gaussian, Inc. and that
 it will not use this program in any manner prohibited above.
 ---------------------------------------------------------------
  

 Cite this work as:
 Gaussian 09, Revision E.01,
 M. J. Frisch, G. W. Trucks, H. B. Schlegel, G. E. Scuseria, 
 M. A. Robb, J. R. Cheeseman, G. Scalmani, V. Barone, B. Mennucci, 
 G. A. Petersson, H. Nakatsuji, M. Caricato, X. Li, H. P. Hratchian, 
 A. F. Izmaylov, J. Bloino, G. Zheng, J. L. Sonnenberg, M. Hada, 
 M. Ehara, K. Toyota, R. Fukuda, J. Hasegawa, M. Ishida, T. Nakajima, 
 Y. Honda, O. Kitao, H. Nakai, T. Vreven, J. A. Montgomery, Jr., 
 J. E. Peralta, F. Ogliaro, M. Bearpark, J. J. Heyd, E. Brothers, 
 K. N. Kudin, V. N. Staroverov, T. Keith, R. Kobayashi, J. Normand, 
 K. Raghavachari, A. Rendell, J. C. Burant, S. S. Iyengar, J. Tomasi, 
 M. Cossi, N. Rega, J. M. Millam, M. Klene, J. E. Knox, J. B. Cross, 
 V. Bakken, C. Adamo, J. Jaramillo, R. Gomperts, R. E. Stratmann, 
 O. Yazyev, A. J. Austin, R. Cammi, C. Pomelli, J. W. Ochterski, 
 R. L. Martin, K. Morokuma, V. G. Zakrzewski, G. A. Voth, 
 P. Salvador, J. J. Dannenberg, S. Dapprich, A. D. Daniels, 
 O. Farkas, J. B. Foresman, J. V. Ortiz, J. Cioslowski, 
 and D. J. Fox, Gaussian, Inc., Wallingford CT, 2013.
 
 ******************************************
 Gaussian 09:  ES64L-G09RevE.01 30-Nov-2015
                 5-Dec-2016 
 ******************************************
 %chk=P4model.chk
 -----------------------------
 #T qcisd(tq)/sto-3g scan test
 -----------------------------
 ----------------------------------------------------------------------
 linear D4 model pes scan over varying h2-h3 bond length using ump4 wit
 h mbs
 ----------------------------------------------------------------------
 Symbolic Z-matrix:
 Charge =  0 Multiplicity = 1
 H
 H                    1    a
 H                    2    R        1    deltaPlus2pi
 H                    3    a        2    deltaPlus2pi 1     0.       0
       Variables:
  R                     1.     Scan 60    0.05   
  a                     1.6                      
  deltaPlus2pi        180.                       
 
 Scan the potential surface.
 Variable   Value     No. Steps Step-Size
 -------- ----------- --------- ---------
     1       1.000000      60      0.0500
 A total of     61 points will be computed.
 ---------------------------------------------------------------------------------------------------
                            Z-MATRIX (ANGSTROMS AND DEGREES)
   CD    Cent   Atom    N1       Length/X        N2       Alpha/Y        N3        Beta/Z          J
 ---------------------------------------------------------------------------------------------------
      1      1  H 
      2      2  H        1   1.600000(     1)
      3      3  H        2   1.000000(     2)      1  180.000(     4)
      4      4  H        3   1.600000(     3)      2  180.000(     5)      1    0.000(     6)      0
 ---------------------------------------------------------------------------------------------------
                    Distance matrix (angstroms):
                    1          2          3          4
     1  H    0.000000
     2  H    1.600000   0.000000
     3  H    2.600000   1.000000   0.000000
     4  H    4.200000   2.600000   1.600000   0.000000
 Framework group  D*H[C*(HH.HH)]
 Deg. of freedom     2
                         Standard orientation:                         
 ---------------------------------------------------------------------
 Center     Atomic      Atomic             Coordinates (Angstroms)
 Number     Number       Type             X           Y           Z
 ---------------------------------------------------------------------
      1          1           0        0.000000    0.000000    2.100000
      2          1           0        0.000000    0.000000    0.500000
      3          1           0        0.000000    0.000000   -0.500000
      4          1           0        0.000000    0.000000   -2.100000
 ---------------------------------------------------------------------
 Rotational constants (GHZ):      0.0000000     53.8041953     53.8041953
     4 basis functions,    12 primitive gaussians,     4 cartesian basis functions
     2 alpha electrons        2 beta electrons
       nuclear repulsion energy         1.7237026840 Hartrees.
 NAtoms=    4 NActive=    4 NUniq=    2 SFac= 4.00D+00 NAtFMM=   60 NAOKFM=F Big=F
 ExpMin= 1.69D-01 ExpMax= 3.43D+00 ExpMxC= 3.43D+00 IAcc=1 IRadAn=         1 AccDes= 0.00D+00
 Harris functional with IExCor=  205 and IRadAn=       1 diagonalized for initial guess.
 HarFok:  IExCor=  205 AccDes= 0.00D+00 IRadAn=         1 IDoV= 1 UseB2=F ITyADJ=14
 ICtDFT=  3500011 ScaDFX=  1.000000  1.000000  1.000000  1.000000
 FoFCou: FMM=F IPFlag=           0 FMFlag=      100000 FMFlg1=           0
         NFxFlg=           0 DoJE=T BraDBF=F KetDBF=T FulRan=T
         wScrn=  0.000000 ICntrl=     500 IOpCl=  0 I1Cent=   200000004 NGrid=           0
         NMat0=    1 NMatS0=      1 NMatT0=    0 NMatD0=    1 NMtDS0=    0 NMtDT0=    0
 Petite list used in FoFCou.
 Initial guess orbital symmetries:
 Alpha Orbitals:
       Occupied  (SGG) (SGU)
       Virtual   (SGG) (SGU)
 Beta  Orbitals:
       Occupied  (SGG) (SGU)
       Virtual   (SGG) (SGU)
 The electronic state of the initial guess is 1-SGG.
 Initial guess <Sx>= 0.0000 <Sy>= 0.0000 <Sz>= 0.0000 <S**2>=-0.0000 S=-0.0000
 SCF Done:  E(UHF) =  -1.81081783122     A.U. after    6 cycles
            NFock=  6  Conv=0.62D-08     -V/T= 1.7286
 <Sx>= 0.0000 <Sy>= 0.0000 <Sz>= 0.0000 <S**2>=-0.0000 S=-0.0000
 <L.S>= 0.000000000000E+00
 Annihilation of the first spin contaminant:
 S**2 before annihilation    -0.0000,   after     0.0000
 NROrb=      4 NOA=     2 NOB=     2 NVA=     2 NVB=     2
 Semi-Direct transformation.
 ModeAB=           4 MOrb=             4 LenV=     134162005
 LASXX=           27 LTotXX=          27 LenRXX=         127
 LTotAB=         100 MaxLAS=          60 LenRXY=           0
 NonZer=         154 LenScr=      655360 LnRSAI=          96
 LnScr1=      655360 LExtra=           0 Total=      1310943
 MaxDsk=          -1 SrtSym=           T ITran=            5
 JobTyp=1 Pass  1:  I=   1 to   4.
 (rs|ai) integrals will be sorted in core.
 ModeAB=           4 MOrb=             4 LenV=     134162005
 LASXX=           27 LTotXX=          27 LenRXX=          27
 LTotAB=           0 MaxLAS=          60 LenRXY=           0
 NonZer=          54 LenScr=      655360 LnRSAI=          96
 LnScr1=      655360 LExtra=           0 Total=      1310843
 MaxDsk=          -1 SrtSym=           T ITran=            5
 JobTyp=2 Pass  1:  I=   1 to   4.
 (rs|ai) integrals will be sorted in core.
 ANorm=    0.1088845733D+01
 E2 =    -0.1229259178D+00 EUMP2 =    -0.19337437490275D+01
 (S**2,0)=  0.00000D+00           (S**2,1)=  0.00000D+00
 E(PUHF)=      -0.18108178312D+01        E(PMP2)=      -0.19337437490D+01
 E(PMP3)=      -0.20050886241D+01
 MP4(R+Q)=  0.19546896D-01
 E3=       -0.71344875D-01        EUMP3=      -0.20050886241D+01
 E4(DQ)=   -0.35620236D-01        UMP4(DQ)=   -0.20407088599D+01
 E4(SDQ)=  -0.41007385D-01        UMP4(SDQ)=  -0.20460960091D+01
 DE(Corr)= -0.17472390     E(Corr)=     -1.9855417279    
 NORM(A)=   0.12751050D+01
 DE(Corr)= -0.21863011     E(Corr)=     -2.0294479383     Delta=-4.39D-02
 NORM(A)=   0.13018962D+01
 DE(Corr)= -0.22112240     E(Corr)=     -2.0319402276     Delta=-2.49D-03
 NORM(A)=   0.12953132D+01
 DE(Corr)= -0.22385313     E(Corr)=     -2.0346709645     Delta=-2.73D-03
 NORM(A)=   0.13243087D+01
 DE(Corr)= -0.22598483     E(Corr)=     -2.0368026566     Delta=-2.13D-03
 NORM(A)=   0.13154215D+01
 DE(Corr)= -0.22513512     E(Corr)=     -2.0359529552     Delta= 8.50D-04
 NORM(A)=   0.13190238D+01
 DE(Corr)= -0.22548627     E(Corr)=     -2.0363041052     Delta=-3.51D-04
 NORM(A)=   0.13192394D+01
 DE(Corr)= -0.22548918     E(Corr)=     -2.0363070091     Delta=-2.90D-06
 NORM(A)=   0.13194421D+01
 DE(Corr)= -0.22550728     E(Corr)=     -2.0363251126     Delta=-1.81D-05
 NORM(A)=   0.13194155D+01
 DE(Corr)= -0.22550520     E(Corr)=     -2.0363230299     Delta= 2.08D-06
 NORM(A)=   0.13194208D+01
 DE(Corr)= -0.22550551     E(Corr)=     -2.0363233422     Delta=-3.12D-07
 NORM(A)=   0.13194203D+01
 DE(Corr)= -0.22550547     E(Corr)=     -2.0363233029     Delta= 3.93D-08
 NORM(A)=   0.13194204D+01
 Dominant configurations:
 ***********************
 Spin Case        I    J    A    B          Value
    AA            1         3           -0.123921D+00
    BB            1         3           -0.123921D+00
   ABAB           1    1    4    4      -0.149480D+00
   ABAB           1    2    3    4       0.137612D+00
   ABAB           2    1    4    3       0.137612D+00
   ABAB           2    2    3    3      -0.780393D+00
 Largest amplitude= 7.80D-01
 Time for triples=        0.00 seconds.
 T4(QCISD)= -0.21884372D-02
 T5(QCISD)=  0.75545518D-03
 QCISD(T)= -0.20377562849D+01

 S**2, projected HF & approx projected MPn energies after annihilation of
 unwanted spin states (see manual for definitions):

 spins       (S**2,0) (S**2,1)    PUHF        PMP2        PMP3        PMP4
 annihilated
 s+1        -0.00000  0.00000   -1.810818   -1.933744   -2.005089
 s+1,s+2     0.00000  0.00000   -1.810818   -1.933744   -2.005089

 UMP5:  MDV= 134217728.
 Quadratic Configuration Interaction with Triples and Quadruples (QCISD(TQ))
 ===========================================================================
 Saving the triples amplitudes on disk, using         16 words of disk space.
 Time for triples=        0.00 seconds.
 E5TQ1    =   0.22572314628D-02
 Disk space used for TT scratch files  :           64 words
 E5TTaaa =   0.00000000D+00
 E5TTaab =  -0.29889256D-03
 E5TTabb =  -0.29889256D-03
 E5TTbbb =   0.00000000D+00
 E5TT     =  -0.59778511D-03
 E5TQ2    =  -0.17821217D-02
 EQQ2     =   0.92864664D-02
 DE5   =   0.91637911374D-02 QCISD(TQ) =  -0.20285924938D+01

 **********************************************************************

            Population analysis using the SCF density.

 **********************************************************************

 Orbital symmetries:
 Alpha Orbitals:
       Occupied  (SGG) (SGU)
       Virtual   (SGG) (SGU)
 Beta  Orbitals:
       Occupied  (SGG) (SGU)
       Virtual   (SGG) (SGU)
 The electronic state is 1-SGG.
 Alpha  occ. eigenvalues --   -0.51376  -0.22396
 Alpha virt. eigenvalues --    0.05495   0.54104
  Beta  occ. eigenvalues --   -0.51376  -0.22396
  Beta virt. eigenvalues --    0.05495   0.54104
          Condensed to atoms (all electrons):
          Atomic-Atomic Spin Densities.
 Mulliken charges and spin densities:
               1          2
     1  H    0.001117   0.000000
     2  H   -0.001117   0.000000
     3  H   -0.001117   0.000000
     4  H    0.001117   0.000000
 Sum of Mulliken charges =  -0.00000   0.00000
 Mulliken charges and spin densities with hydrogens summed into heavy atoms:
               1          2
 Electronic spatial extent (au):  <R**2>=             40.5487
 Charge=             -0.0000 electrons
 Dipole moment (field-independent basis, Debye):
    X=              0.0000    Y=              0.0000    Z=             -0.0000  Tot=              0.0000
 Variable Step   Value    
 -------- ---- -----------
     1       1    1.984212
 ---------------------------------------------------------------------------------------------------
                            Z-MATRIX (ANGSTROMS AND DEGREES)
   CD    Cent   Atom    N1       Length/X        N2       Alpha/Y        N3        Beta/Z          J
 ---------------------------------------------------------------------------------------------------
      1      1  H 
      2      2  H        1   1.600000(     1)
      3      3  H        2   1.050000(     2)      1  180.000(     4)
      4      4  H        3   1.600000(     3)      2  180.000(     5)      1    0.000(     6)      0
 ---------------------------------------------------------------------------------------------------
                    Distance matrix (angstroms):
                    1          2          3          4
     1  H    0.000000
     2  H    1.600000   0.000000
     3  H    2.650000   1.050000   0.000000
     4  H    4.250000   2.650000   1.600000   0.000000
 Framework group  D*H[C*(HH.HH)]
 Deg. of freedom     2
                         Standard orientation:                         
 ---------------------------------------------------------------------
 Center     Atomic      Atomic             Coordinates (Angstroms)
 Number     Number       Type             X           Y           Z
 ---------------------------------------------------------------------
      1          1           0        0.000000    0.000000    2.125000
      2          1           0        0.000000    0.000000    0.525000
      3          1           0        0.000000    0.000000   -0.525000
      4          1           0        0.000000    0.000000   -2.125000
 ---------------------------------------------------------------------
 Rotational constants (GHZ):      0.0000000     52.3303001     52.3303001
     4 basis functions,    12 primitive gaussians,     4 cartesian basis functions
     2 alpha electrons        2 beta electrons
       nuclear repulsion energy         1.6893411144 Hartrees.
 NAtoms=    4 NActive=    4 NUniq=    2 SFac= 4.00D+00 NAtFMM=   60 NAOKFM=F Big=F
 Initial guess from the checkpoint file:  "P4model.chk"
 B after Tr=     0.000000    0.000000   -0.000000
         Rot=    1.000000    0.000000    0.000000    0.000000 Ang=   0.00 deg.
 Initial guess orbital symmetries:
 Alpha Orbitals:
       Occupied  (SGG) (SGU)
       Virtual   (SGG) (SGU)
 Beta  Orbitals:
       Occupied  (SGG) (SGU)
       Virtual   (SGG) (SGU)
 Initial guess <Sx>= 0.0000 <Sy>= 0.0000 <Sz>= 0.0000 <S**2>=-0.0000 S=-0.0000
 ExpMin= 1.69D-01 ExpMax= 3.43D+00 ExpMxC= 3.43D+00 IAcc=1 IRadAn=         1 AccDes= 0.00D+00
 Harris functional with IExCor=  205 and IRadAn=       1 diagonalized for initial guess.
 HarFok:  IExCor=  205 AccDes= 0.00D+00 IRadAn=         1 IDoV= 1 UseB2=F ITyADJ=14
 ICtDFT=  3500011 ScaDFX=  1.000000  1.000000  1.000000  1.000000
 FoFCou: FMM=F IPFlag=           0 FMFlag=      100000 FMFlg1=           0
         NFxFlg=           0 DoJE=T BraDBF=F KetDBF=T FulRan=T
         wScrn=  0.000000 ICntrl=     500 IOpCl=  0 I1Cent=   200000004 NGrid=           0
         NMat0=    1 NMatS0=      1 NMatT0=    0 NMatD0=    1 NMtDS0=    0 NMtDT0=    0
 Petite list used in FoFCou.
 SCF Done:  E(UHF) =  -1.80658174501     A.U. after    5 cycles
            NFock=  5  Conv=0.37D-09     -V/T= 1.7291
 <Sx>= 0.0000 <Sy>= 0.0000 <Sz>= 0.0000 <S**2>=-0.0000 S=-0.0000
 <L.S>= 0.000000000000E+00
 Annihilation of the first spin contaminant:
 S**2 before annihilation    -0.0000,   after     0.0000
 NROrb=      4 NOA=     2 NOB=     2 NVA=     2 NVB=     2
 Semi-Direct transformation.
 ModeAB=           4 MOrb=             4 LenV=     134162005
 LASXX=           27 LTotXX=          27 LenRXX=         127
 LTotAB=         100 MaxLAS=          60 LenRXY=           0
 NonZer=         154 LenScr=      655360 LnRSAI=          96
 LnScr1=      655360 LExtra=           0 Total=      1310943
 MaxDsk=          -1 SrtSym=           T ITran=            5
 JobTyp=1 Pass  1:  I=   1 to   4.
 (rs|ai) integrals will be sorted in core.
 ModeAB=           4 MOrb=             4 LenV=     134162005
 LASXX=           27 LTotXX=          27 LenRXX=          27
 LTotAB=           0 MaxLAS=          60 LenRXY=           0
 NonZer=          54 LenScr=      655360 LnRSAI=          96
 LnScr1=      655360 LExtra=           0 Total=      1310843
 MaxDsk=          -1 SrtSym=           T ITran=            5
 JobTyp=2 Pass  1:  I=   1 to   4.
 (rs|ai) integrals will be sorted in core.
 ANorm=    0.1080486185D+01
 E2 =    -0.1168827092D+00 EUMP2 =    -0.19234644542295D+01
 (S**2,0)=  0.00000D+00           (S**2,1)=  0.00000D+00
 E(PUHF)=      -0.18065817450D+01        E(PMP2)=      -0.19234644542D+01
 E(PMP3)=      -0.19906017984D+01
 MP4(R+Q)=  0.16344493D-01
 E3=       -0.67137344D-01        EUMP3=      -0.19906017984D+01
 E4(DQ)=   -0.35798537D-01        UMP4(DQ)=   -0.20264003351D+01
 E4(SDQ)=  -0.39738362D-01        UMP4(SDQ)=  -0.20303401600D+01
 DE(Corr)= -0.16767556     E(Corr)=     -1.9742573050    
 NORM(A)=   0.12613140D+01
 DE(Corr)= -0.21364471     E(Corr)=     -2.0202264510     Delta=-4.60D-02
 NORM(A)=   0.12930289D+01
 DE(Corr)= -0.21704277     E(Corr)=     -2.0236245134     Delta=-3.40D-03
 NORM(A)=   0.12870299D+01
 DE(Corr)= -0.21986978     E(Corr)=     -2.0264515239     Delta=-2.83D-03
 NORM(A)=   0.13202501D+01
 DE(Corr)= -0.22287546     E(Corr)=     -2.0294572064     Delta=-3.01D-03
 NORM(A)=   0.13119341D+01
 DE(Corr)= -0.22186202     E(Corr)=     -2.0284437613     Delta= 1.01D-03
 NORM(A)=   0.13155467D+01
 DE(Corr)= -0.22226589     E(Corr)=     -2.0288476312     Delta=-4.04D-04
 NORM(A)=   0.13159122D+01
 DE(Corr)= -0.22228348     E(Corr)=     -2.0288652267     Delta=-1.76D-05
 NORM(A)=   0.13160387D+01
 DE(Corr)= -0.22229767     E(Corr)=     -2.0288794189     Delta=-1.42D-05
 NORM(A)=   0.13160244D+01
 DE(Corr)= -0.22229629     E(Corr)=     -2.0288780300     Delta= 1.39D-06
 NORM(A)=   0.13160276D+01
 DE(Corr)= -0.22229652     E(Corr)=     -2.0288782661     Delta=-2.36D-07
 NORM(A)=   0.13160273D+01
 DE(Corr)= -0.22229649     E(Corr)=     -2.0288782387     Delta= 2.74D-08
 NORM(A)=   0.13160274D+01
 Dominant configurations:
 ***********************
 Spin Case        I    J    A    B          Value
    AA            1         3           -0.119966D+00
    BB            1         3           -0.119966D+00
   ABAB           1    1    4    4      -0.160502D+00
   ABAB           1    2    3    4       0.152946D+00
   ABAB           2    1    4    3       0.152946D+00
   ABAB           2    2    3    3      -0.765507D+00
 Largest amplitude= 7.66D-01
 Time for triples=        0.00 seconds.
 T4(QCISD)= -0.17697344D-02
 T5(QCISD)=  0.65631604D-03
 QCISD(T)= -0.20299916571D+01

 S**2, projected HF & approx projected MPn energies after annihilation of
 unwanted spin states (see manual for definitions):

 spins       (S**2,0) (S**2,1)    PUHF        PMP2        PMP3        PMP4
 annihilated
 s+1        -0.00000 -0.00000   -1.806582   -1.923464   -1.990602
 s+1,s+2    -0.00000 -0.00000   -1.806582   -1.923464   -1.990602

 UMP5:  MDV= 134217728.
 Quadratic Configuration Interaction with Triples and Quadruples (QCISD(TQ))
 ===========================================================================
 Saving the triples amplitudes on disk, using         16 words of disk space.
 Time for triples=        0.00 seconds.
 E5TQ1    =   0.21236032875D-02
 Disk space used for TT scratch files  :           64 words
 E5TTaaa =   0.00000000D+00
 E5TTaab =  -0.23682113D-03
 E5TTabb =  -0.23682113D-03
 E5TTbbb =   0.00000000D+00
 E5TT     =  -0.47364225D-03
 E5TQ2    =  -0.16072139D-02
 EQQ2     =   0.11716204D-01
 DE5   =   0.11758950656D-01 QCISD(TQ) =  -0.20182327064D+01
 Variable Step   Value    
 -------- ---- -----------
     1       2    2.078699
 ---------------------------------------------------------------------------------------------------
                            Z-MATRIX (ANGSTROMS AND DEGREES)
   CD    Cent   Atom    N1       Length/X        N2       Alpha/Y        N3        Beta/Z          J
 ---------------------------------------------------------------------------------------------------
      1      1  H 
      2      2  H        1   1.600000(     1)
      3      3  H        2   1.100000(     2)      1  180.000(     4)
      4      4  H        3   1.600000(     3)      2  180.000(     5)      1    0.000(     6)      0
 ---------------------------------------------------------------------------------------------------
                    Distance matrix (angstroms):
                    1          2          3          4
     1  H    0.000000
     2  H    1.600000   0.000000
     3  H    2.700000   1.100000   0.000000
     4  H    4.300000   2.700000   1.600000   0.000000
 Framework group  D*H[C*(HH.HH)]
 Deg. of freedom     2
                         Standard orientation:                         
 ---------------------------------------------------------------------
 Center     Atomic      Atomic             Coordinates (Angstroms)
 Number     Number       Type             X           Y           Z
 ---------------------------------------------------------------------
      1          1           0        0.000000    0.000000    2.150000
      2          1           0        0.000000    0.000000    0.550000
      3          1           0        0.000000    0.000000   -0.550000
      4          1           0        0.000000    0.000000   -2.150000
 ---------------------------------------------------------------------
 Rotational constants (GHZ):      0.0000000     50.9091472     50.9091472
     4 basis functions,    12 primitive gaussians,     4 cartesian basis functions
     2 alpha electrons        2 beta electrons
       nuclear repulsion energy         1.6575892850 Hartrees.
 NAtoms=    4 NActive=    4 NUniq=    2 SFac= 4.00D+00 NAtFMM=   60 NAOKFM=F Big=F
 Initial guess from the checkpoint file:  "P4model.chk"
 B after Tr=     0.000000    0.000000    0.000000
         Rot=    1.000000    0.000000    0.000000    0.000000 Ang=   0.00 deg.
 Initial guess orbital symmetries:
 Alpha Orbitals:
       Occupied  (SGG) (SGU)
       Virtual   (SGG) (SGU)
 Beta  Orbitals:
       Occupied  (SGG) (SGU)
       Virtual   (SGG) (SGU)
 Initial guess <Sx>= 0.0000 <Sy>= 0.0000 <Sz>= 0.0000 <S**2>= 0.0000 S= 0.0000
 ExpMin= 1.69D-01 ExpMax= 3.43D+00 ExpMxC= 3.43D+00 IAcc=1 IRadAn=         1 AccDes= 0.00D+00
 Harris functional with IExCor=  205 and IRadAn=       1 diagonalized for initial guess.
 HarFok:  IExCor=  205 AccDes= 0.00D+00 IRadAn=         1 IDoV= 1 UseB2=F ITyADJ=14
 ICtDFT=  3500011 ScaDFX=  1.000000  1.000000  1.000000  1.000000
 FoFCou: FMM=F IPFlag=           0 FMFlag=      100000 FMFlg1=           0
         NFxFlg=           0 DoJE=T BraDBF=F KetDBF=T FulRan=T
         wScrn=  0.000000 ICntrl=     500 IOpCl=  0 I1Cent=   200000004 NGrid=           0
         NMat0=    1 NMatS0=      1 NMatT0=    0 NMatD0=    1 NMtDS0=    0 NMtDT0=    0
 Petite list used in FoFCou.
 SCF Done:  E(UHF) =  -1.80222324929     A.U. after    5 cycles
            NFock=  5  Conv=0.11D-08     -V/T= 1.7289
 <Sx>= 0.0000 <Sy>= 0.0000 <Sz>= 0.0000 <S**2>= 0.0000 S= 0.0000
 <L.S>= 0.000000000000E+00
 Annihilation of the first spin contaminant:
 S**2 before annihilation    -0.0000,   after     0.0000
 NROrb=      4 NOA=     2 NOB=     2 NVA=     2 NVB=     2
 Semi-Direct transformation.
 ModeAB=           4 MOrb=             4 LenV=     134162005
 LASXX=           27 LTotXX=          27 LenRXX=         127
 LTotAB=         100 MaxLAS=          60 LenRXY=           0
 NonZer=         154 LenScr=      655360 LnRSAI=          96
 LnScr1=      655360 LExtra=           0 Total=      1310943
 MaxDsk=          -1 SrtSym=           T ITran=            5
 JobTyp=1 Pass  1:  I=   1 to   4.
 (rs|ai) integrals will be sorted in core.
 ModeAB=           4 MOrb=             4 LenV=     134162005
 LASXX=           27 LTotXX=          27 LenRXX=          27
 LTotAB=           0 MaxLAS=          60 LenRXY=           0
 NonZer=          54 LenScr=      655360 LnRSAI=          96
 LnScr1=      655360 LExtra=           0 Total=      1310843
 MaxDsk=          -1 SrtSym=           T ITran=            5
 JobTyp=2 Pass  1:  I=   1 to   4.
 (rs|ai) integrals will be sorted in core.
 ANorm=    0.1073188391D+01
 E2 =    -0.1117094607D+00 EUMP2 =    -0.19139327099429D+01
 (S**2,0)=  0.00000D+00           (S**2,1)=  0.00000D+00
 E(PUHF)=      -0.18022232493D+01        E(PMP2)=      -0.19139327099D+01
 E(PMP3)=      -0.19774951963D+01
 MP4(R+Q)=  0.13736950D-01
 E3=       -0.63562486D-01        EUMP3=      -0.19774951963D+01
 E4(DQ)=   -0.35584012D-01        UMP4(DQ)=   -0.20130792087D+01
 E4(SDQ)=  -0.38243392D-01        UMP4(SDQ)=  -0.20157385881D+01
 DE(Corr)= -0.16153500     E(Corr)=     -1.9637582462    
 NORM(A)=   0.12474923D+01
 DE(Corr)= -0.20880511     E(Corr)=     -2.0110283552     Delta=-4.73D-02
 NORM(A)=   0.12812409D+01
 DE(Corr)= -0.21290132     E(Corr)=     -2.0151245699     Delta=-4.10D-03
 NORM(A)=   0.12776099D+01
 DE(Corr)= -0.21594185     E(Corr)=     -2.0181651012     Delta=-3.04D-03
 NORM(A)=   0.13139403D+01
 DE(Corr)= -0.21977446     E(Corr)=     -2.0219977047     Delta=-3.83D-03
 NORM(A)=   0.13068998D+01
 DE(Corr)= -0.21870023     E(Corr)=     -2.0209234776     Delta= 1.07D-03
 NORM(A)=   0.13102940D+01
 DE(Corr)= -0.21911928     E(Corr)=     -2.0213425252     Delta=-4.19D-04
 NORM(A)=   0.13108763D+01
 DE(Corr)= -0.21916372     E(Corr)=     -2.0213869647     Delta=-4.44D-05
 NORM(A)=   0.13108559D+01
 DE(Corr)= -0.21916391     E(Corr)=     -2.0213871561     Delta=-1.91D-07
 NORM(A)=   0.13108766D+01
 DE(Corr)= -0.21916608     E(Corr)=     -2.0213893292     Delta=-2.17D-06
 NORM(A)=   0.13108719D+01
 DE(Corr)= -0.21916555     E(Corr)=     -2.0213888025     Delta= 5.27D-07
 NORM(A)=   0.13108725D+01
 DE(Corr)= -0.21916561     E(Corr)=     -2.0213888606     Delta=-5.81D-08
 NORM(A)=   0.13108725D+01
 Dominant configurations:
 ***********************
 Spin Case        I    J    A    B          Value
    AA            1         3           -0.113637D+00
    BB            1         3           -0.113637D+00
   AAAA           1    2    3    4       0.101749D+00
   ABAB           1    1    4    4      -0.171365D+00
   ABAB           1    2    3    4       0.168155D+00
   ABAB           2    1    4    3       0.168155D+00
   ABAB           2    2    3    3      -0.747594D+00
   BBBB           1    2    3    4       0.101749D+00
 Largest amplitude= 7.48D-01
 Time for triples=        0.01 seconds.
 T4(QCISD)= -0.13121871D-02
 T5(QCISD)=  0.53244455D-03
 QCISD(T)= -0.20221686031D+01

 S**2, projected HF & approx projected MPn energies after annihilation of
 unwanted spin states (see manual for definitions):

 spins       (S**2,0) (S**2,1)    PUHF        PMP2        PMP3        PMP4
 annihilated
 s+1        -0.00000 -0.00000   -1.802223   -1.913933   -1.977495
 s+1,s+2     0.00000  0.00000   -1.802223   -1.913933   -1.977495

 UMP5:  MDV= 134217728.
 Quadratic Configuration Interaction with Triples and Quadruples (QCISD(TQ))
 ===========================================================================
 Saving the triples amplitudes on disk, using         16 words of disk space.
 Time for triples=        0.00 seconds.
 E5TQ1    =   0.18455985794D-02
 Disk space used for TT scratch files  :           64 words
 E5TTaaa =   0.00000000D+00
 E5TTaab =  -0.16895026D-03
 E5TTabb =  -0.16895026D-03
 E5TTbbb =   0.00000000D+00
 E5TT     =  -0.33790052D-03
 E5TQ2    =  -0.13214096D-02
 EQQ2     =   0.14221470D-01
 DE5   =   0.14407758918D-01 QCISD(TQ) =  -0.20077608442D+01
 Variable Step   Value    
 -------- ---- -----------
     1       3    2.173185
 ---------------------------------------------------------------------------------------------------
                            Z-MATRIX (ANGSTROMS AND DEGREES)
   CD    Cent   Atom    N1       Length/X        N2       Alpha/Y        N3        Beta/Z          J
 ---------------------------------------------------------------------------------------------------
      1      1  H 
      2      2  H        1   1.600000(     1)
      3      3  H        2   1.150000(     2)      1  180.000(     4)
      4      4  H        3   1.600000(     3)      2  180.000(     5)      1    0.000(     6)      0
 ---------------------------------------------------------------------------------------------------
                    Distance matrix (angstroms):
                    1          2          3          4
     1  H    0.000000
     2  H    1.600000   0.000000
     3  H    2.750000   1.150000   0.000000
     4  H    4.350000   2.750000   1.600000   0.000000
 Framework group  D*H[C*(HH.HH)]
 Deg. of freedom     2
                         Standard orientation:                         
 ---------------------------------------------------------------------
 Center     Atomic      Atomic             Coordinates (Angstroms)
 Number     Number       Type             X           Y           Z
 ---------------------------------------------------------------------
      1          1           0        0.000000    0.000000    2.175000
      2          1           0        0.000000    0.000000    0.575000
      3          1           0        0.000000    0.000000   -0.575000
      4          1           0        0.000000    0.000000   -2.175000
 ---------------------------------------------------------------------
 Rotational constants (GHZ):      0.0000000     49.5386614     49.5386614
     4 basis functions,    12 primitive gaussians,     4 cartesian basis functions
     2 alpha electrons        2 beta electrons
       nuclear repulsion energy         1.6281316899 Hartrees.
 NAtoms=    4 NActive=    4 NUniq=    2 SFac= 4.00D+00 NAtFMM=   60 NAOKFM=F Big=F
 Initial guess from the checkpoint file:  "P4model.chk"
 B after Tr=     0.000000    0.000000    0.000000
         Rot=    1.000000    0.000000    0.000000    0.000000 Ang=   0.00 deg.
 Initial guess orbital symmetries:
 Alpha Orbitals:
       Occupied  (SGG) (SGU)
       Virtual   (SGG) (SGU)
 Beta  Orbitals:
       Occupied  (SGG) (SGU)
       Virtual   (SGG) (SGU)
 Initial guess <Sx>= 0.0000 <Sy>= 0.0000 <Sz>= 0.0000 <S**2>= 0.0000 S= 0.0000
 ExpMin= 1.69D-01 ExpMax= 3.43D+00 ExpMxC= 3.43D+00 IAcc=1 IRadAn=         1 AccDes= 0.00D+00
 Harris functional with IExCor=  205 and IRadAn=       1 diagonalized for initial guess.
 HarFok:  IExCor=  205 AccDes= 0.00D+00 IRadAn=         1 IDoV= 1 UseB2=F ITyADJ=14
 ICtDFT=  3500011 ScaDFX=  1.000000  1.000000  1.000000  1.000000
 FoFCou: FMM=F IPFlag=           0 FMFlag=      100000 FMFlg1=           0
         NFxFlg=           0 DoJE=T BraDBF=F KetDBF=T FulRan=T
         wScrn=  0.000000 ICntrl=     500 IOpCl=  0 I1Cent=   200000004 NGrid=           0
         NMat0=    1 NMatS0=      1 NMatT0=    0 NMatD0=    1 NMtDS0=    0 NMtDT0=    0
 Petite list used in FoFCou.
 SCF Done:  E(UHF) =  -1.79791988150     A.U. after    5 cycles
            NFock=  5  Conv=0.18D-08     -V/T= 1.7283
 <Sx>= 0.0000 <Sy>= 0.0000 <Sz>= 0.0000 <S**2>= 0.0000 S= 0.0000
 <L.S>= 0.000000000000E+00
 Annihilation of the first spin contaminant:
 S**2 before annihilation     0.0000,   after     0.0000
 NROrb=      4 NOA=     2 NOB=     2 NVA=     2 NVB=     2
 Semi-Direct transformation.
 ModeAB=           4 MOrb=             4 LenV=     134162005
 LASXX=           27 LTotXX=          27 LenRXX=         127
 LTotAB=         100 MaxLAS=          60 LenRXY=           0
 NonZer=         154 LenScr=      655360 LnRSAI=          96
 LnScr1=      655360 LExtra=           0 Total=      1310943
 MaxDsk=          -1 SrtSym=           T ITran=            5
 JobTyp=1 Pass  1:  I=   1 to   4.
 (rs|ai) integrals will be sorted in core.
 ModeAB=           4 MOrb=             4 LenV=     134162005
 LASXX=           27 LTotXX=          27 LenRXX=          27
 LTotAB=           0 MaxLAS=          60 LenRXY=           0
 NonZer=          54 LenScr=      655360 LnRSAI=          96
 LnScr1=      655360 LExtra=           0 Total=      1310843
 MaxDsk=          -1 SrtSym=           T ITran=            5
 JobTyp=2 Pass  1:  I=   1 to   4.
 (rs|ai) integrals will be sorted in core.
 ANorm=    0.1066988832D+01
 E2 =    -0.1074561499D+00 EUMP2 =    -0.19053760313993D+01
 (S**2,0)=  0.00000D+00           (S**2,1)=  0.00000D+00
 E(PUHF)=      -0.17979198815D+01        E(PMP2)=      -0.19053760314D+01
 E(PMP3)=      -0.19660024115D+01
 MP4(R+Q)=  0.11652534D-01
 E3=       -0.60626380D-01        EUMP3=      -0.19660024115D+01
 E4(DQ)=   -0.35039725D-01        UMP4(DQ)=   -0.20010421365D+01
 E4(SDQ)=  -0.36657784D-01        UMP4(SDQ)=  -0.20026601954D+01
 DE(Corr)= -0.15643000     E(Corr)=     -1.9543498780    
 NORM(A)=   0.12342682D+01
 DE(Corr)= -0.20434553     E(Corr)=     -2.0022654138     Delta=-4.79D-02
 NORM(A)=   0.12671835D+01
 DE(Corr)= -0.20878773     E(Corr)=     -2.0067076084     Delta=-4.44D-03
 NORM(A)=   0.12669710D+01
 DE(Corr)= -0.21213817     E(Corr)=     -2.0100580502     Delta=-3.35D-03
 NORM(A)=   0.13052459D+01
 DE(Corr)= -0.21668717     E(Corr)=     -2.0146070518     Delta=-4.55D-03
 NORM(A)=   0.13000618D+01
 DE(Corr)= -0.21567036     E(Corr)=     -2.0135902420     Delta= 1.02D-03
 NORM(A)=   0.13029929D+01
 DE(Corr)= -0.21605914     E(Corr)=     -2.0139790238     Delta=-3.89D-04
 NORM(A)=   0.13038820D+01
 DE(Corr)= -0.21614745     E(Corr)=     -2.0140673342     Delta=-8.83D-05
 NORM(A)=   0.13036331D+01
 DE(Corr)= -0.21612018     E(Corr)=     -2.0140400578     Delta= 2.73D-05
 NORM(A)=   0.13037137D+01
 DE(Corr)= -0.21612980     E(Corr)=     -2.0140496801     Delta=-9.62D-06
 NORM(A)=   0.13037010D+01
 DE(Corr)= -0.21612825     E(Corr)=     -2.0140481309     Delta= 1.55D-06
 NORM(A)=   0.13037013D+01
 DE(Corr)= -0.21612829     E(Corr)=     -2.0140481674     Delta=-3.65D-08
 NORM(A)=   0.13037013D+01
 Dominant configurations:
 ***********************
 Spin Case        I    J    A    B          Value
    AA            1         3           -0.104959D+00
    BB            1         3           -0.104959D+00
   AAAA           1    2    3    4       0.107114D+00
   ABAB           1    1    4    4      -0.181706D+00
   ABAB           1    2    3    4       0.182758D+00
   ABAB           2    1    4    3       0.182758D+00
   ABAB           2    2    3    3      -0.726293D+00
   BBBB           1    2    3    4       0.107114D+00
 Largest amplitude= 7.26D-01
 Time for triples=        0.00 seconds.
 T4(QCISD)= -0.86464783D-03
 T5(QCISD)=  0.39606608D-03
 QCISD(T)= -0.20145167492D+01

 S**2, projected HF & approx projected MPn energies after annihilation of
 unwanted spin states (see manual for definitions):

 spins       (S**2,0) (S**2,1)    PUHF        PMP2        PMP3        PMP4
 annihilated
 s+1         0.00000  0.00000   -1.797920   -1.905376   -1.966002
 s+1,s+2     0.00000  0.00000   -1.797920   -1.905376   -1.966002

 UMP5:  MDV= 134217728.
 Quadratic Configuration Interaction with Triples and Quadruples (QCISD(TQ))
 ===========================================================================
 Saving the triples amplitudes on disk, using         16 words of disk space.
 Time for triples=        0.00 seconds.
 E5TQ1    =   0.14504242460D-02
 Disk space used for TT scratch files  :           64 words
 E5TTaaa =   0.00000000D+00
 E5TTaab =  -0.10334776D-03
 E5TTabb =  -0.10334776D-03
 E5TTbbb =   0.00000000D+00
 E5TT     =  -0.20669552D-03
 E5TQ2    =  -0.96146211D-03
 EQQ2     =   0.16530202D-01
 DE5   =   0.16812468675D-01 QCISD(TQ) =  -0.19977042805D+01
 Variable Step   Value    
 -------- ---- -----------
     1       4    2.267671
 ---------------------------------------------------------------------------------------------------
                            Z-MATRIX (ANGSTROMS AND DEGREES)
   CD    Cent   Atom    N1       Length/X        N2       Alpha/Y        N3        Beta/Z          J
 ---------------------------------------------------------------------------------------------------
      1      1  H 
      2      2  H        1   1.600000(     1)
      3      3  H        2   1.200000(     2)      1  180.000(     4)
      4      4  H        3   1.600000(     3)      2  180.000(     5)      1    0.000(     6)      0
 ---------------------------------------------------------------------------------------------------
                    Distance matrix (angstroms):
                    1          2          3          4
     1  H    0.000000
     2  H    1.600000   0.000000
     3  H    2.800000   1.200000   0.000000
     4  H    4.400000   2.800000   1.600000   0.000000
 Framework group  D*H[C*(HH.HH)]
 Deg. of freedom     2
                         Standard orientation:                         
 ---------------------------------------------------------------------
 Center     Atomic      Atomic             Coordinates (Angstroms)
 Number     Number       Type             X           Y           Z
 ---------------------------------------------------------------------
      1          1           0        0.000000    0.000000    2.200000
      2          1           0        0.000000    0.000000    0.600000
      3          1           0        0.000000    0.000000   -0.600000
      4          1           0        0.000000    0.000000   -2.200000
 ---------------------------------------------------------------------
 Rotational constants (GHZ):      0.0000000     48.2168366     48.2168366
     4 basis functions,    12 primitive gaussians,     4 cartesian basis functions
     2 alpha electrons        2 beta electrons
       nuclear repulsion energy         1.6007037857 Hartrees.
 NAtoms=    4 NActive=    4 NUniq=    2 SFac= 4.00D+00 NAtFMM=   60 NAOKFM=F Big=F
 Initial guess from the checkpoint file:  "P4model.chk"
 B after Tr=     0.000000    0.000000    0.000000
         Rot=    1.000000    0.000000    0.000000    0.000000 Ang=   0.00 deg.
 Initial guess orbital symmetries:
 Alpha Orbitals:
       Occupied  (SGG) (SGU)
       Virtual   (SGG) (SGU)
 Beta  Orbitals:
       Occupied  (SGG) (SGU)
       Virtual   (SGG) (SGU)
 Initial guess <Sx>= 0.0000 <Sy>= 0.0000 <Sz>= 0.0000 <S**2>=-0.0000 S=-0.0000
 ExpMin= 1.69D-01 ExpMax= 3.43D+00 ExpMxC= 3.43D+00 IAcc=1 IRadAn=         1 AccDes= 0.00D+00
 Harris functional with IExCor=  205 and IRadAn=       1 diagonalized for initial guess.
 HarFok:  IExCor=  205 AccDes= 0.00D+00 IRadAn=         1 IDoV= 1 UseB2=F ITyADJ=14
 ICtDFT=  3500011 ScaDFX=  1.000000  1.000000  1.000000  1.000000
 FoFCou: FMM=F IPFlag=           0 FMFlag=      100000 FMFlg1=           0
         NFxFlg=           0 DoJE=T BraDBF=F KetDBF=T FulRan=T
         wScrn=  0.000000 ICntrl=     500 IOpCl=  0 I1Cent=   200000004 NGrid=           0
         NMat0=    1 NMatS0=      1 NMatT0=    0 NMatD0=    1 NMtDS0=    0 NMtDT0=    0
 Petite list used in FoFCou.
 SCF Done:  E(UHF) =  -1.79379848034     A.U. after    5 cycles
            NFock=  5  Conv=0.24D-08     -V/T= 1.7273
 <Sx>= 0.0000 <Sy>= 0.0000 <Sz>= 0.0000 <S**2>= 0.0000 S= 0.0000
 <L.S>= 0.000000000000E+00
 Annihilation of the first spin contaminant:
 S**2 before annihilation     0.0000,   after     0.0000
 NROrb=      4 NOA=     2 NOB=     2 NVA=     2 NVB=     2
 Semi-Direct transformation.
 ModeAB=           4 MOrb=             4 LenV=     134162005
 LASXX=           27 LTotXX=          27 LenRXX=         127
 LTotAB=         100 MaxLAS=          60 LenRXY=           0
 NonZer=         154 LenScr=      655360 LnRSAI=          96
 LnScr1=      655360 LExtra=           0 Total=      1310943
 MaxDsk=          -1 SrtSym=           T ITran=            5
 JobTyp=1 Pass  1:  I=   1 to   4.
 (rs|ai) integrals will be sorted in core.
 ModeAB=           4 MOrb=             4 LenV=     134162005
 LASXX=           27 LTotXX=          27 LenRXX=          27
 LTotAB=           0 MaxLAS=          60 LenRXY=           0
 NonZer=          54 LenScr=      655360 LnRSAI=          96
 LnScr1=      655360 LExtra=           0 Total=      1310843
 MaxDsk=          -1 SrtSym=           T ITran=            5
 JobTyp=2 Pass  1:  I=   1 to   4.
 (rs|ai) integrals will be sorted in core.
 ANorm=    0.1061869737D+01
 E2 =    -0.1041213658D+00 EUMP2 =    -0.18979198461153D+01
 (S**2,0)=  0.00000D+00           (S**2,1)=  0.00000D+00
 E(PUHF)=      -0.17937984803D+01        E(PMP2)=      -0.18979198461D+01
 E(PMP3)=      -0.19562305593D+01
 MP4(R+Q)=  0.10013838D-01
 E3=       -0.58310713D-01        EUMP3=      -0.19562305593D+01
 E4(DQ)=   -0.34250671D-01        UMP4(DQ)=   -0.19904812301D+01
 E4(SDQ)=  -0.35101192D-01        UMP4(SDQ)=  -0.19913317517D+01
 DE(Corr)= -0.15241824     E(Corr)=     -1.9462167212    
 NORM(A)=   0.12222216D+01
 DE(Corr)= -0.20047767     E(Corr)=     -1.9942761545     Delta=-4.81D-02
 NORM(A)=   0.12519298D+01
 DE(Corr)= -0.20485722     E(Corr)=     -1.9986557037     Delta=-4.38D-03
 NORM(A)=   0.12551839D+01
 DE(Corr)= -0.20852064     E(Corr)=     -2.0023191228     Delta=-3.66D-03
 NORM(A)=   0.12942407D+01
 DE(Corr)= -0.21363356     E(Corr)=     -2.0074320372     Delta=-5.11D-03
 NORM(A)=   0.12913163D+01
 DE(Corr)= -0.21278915     E(Corr)=     -2.0065876299     Delta= 8.44D-04
 NORM(A)=   0.12935756D+01
 DE(Corr)= -0.21310397     E(Corr)=     -2.0069024466     Delta=-3.15D-04
 NORM(A)=   0.12948467D+01
 DE(Corr)= -0.21325326     E(Corr)=     -2.0070517360     Delta=-1.49D-04
 NORM(A)=   0.12943021D+01
 DE(Corr)= -0.21318498     E(Corr)=     -2.0069834566     Delta= 6.83D-05
 NORM(A)=   0.12944536D+01
 DE(Corr)= -0.21320468     E(Corr)=     -2.0070031651     Delta=-1.97D-05
 NORM(A)=   0.12944417D+01
 DE(Corr)= -0.21320308     E(Corr)=     -2.0070015641     Delta= 1.60D-06
 NORM(A)=   0.12944417D+01
 DE(Corr)= -0.21320309     E(Corr)=     -2.0070015670     Delta=-2.90D-09
 NORM(A)=   0.12944415D+01
 Dominant configurations:
 ***********************
 Spin Case        I    J    A    B          Value
   AAAA           1    2    3    4       0.110832D+00
   ABAB           1    1    4    4      -0.191134D+00
   ABAB           1    2    3    4       0.196247D+00
   ABAB           2    1    4    3       0.196247D+00
   ABAB           2    2    3    3      -0.701444D+00
   BBBB           1    2    3    4       0.110832D+00
 Largest amplitude= 7.01D-01
 Time for triples=        0.00 seconds.
 T4(QCISD)= -0.47872206D-03
 T5(QCISD)=  0.26190394D-03
 QCISD(T)= -0.20072183851D+01

 S**2, projected HF & approx projected MPn energies after annihilation of
 unwanted spin states (see manual for definitions):

 spins       (S**2,0) (S**2,1)    PUHF        PMP2        PMP3        PMP4
 annihilated
 s+1        -0.00000  0.00000   -1.793798   -1.897920   -1.956231
 s+1,s+2     0.00000 -0.00000   -1.793798   -1.897920   -1.956231

 UMP5:  MDV= 134217728.
 Quadratic Configuration Interaction with Triples and Quadruples (QCISD(TQ))
 ===========================================================================
 Saving the triples amplitudes on disk, using         16 words of disk space.
 Time for triples=        0.00 seconds.
 E5TQ1    =   0.99375736242D-03
 Disk space used for TT scratch files  :           64 words
 E5TTaaa =   0.00000000D+00
 E5TTaab =  -0.48655014D-04
 E5TTabb =  -0.48655014D-04
 E5TTbbb =   0.00000000D+00
 E5TT     =  -0.97310028D-04
 E5TQ2    =  -0.58650059D-03
 EQQ2     =   0.18325178D-01
 DE5   =   0.18635124796D-01 QCISD(TQ) =  -0.19885832603D+01
 Variable Step   Value    
 -------- ---- -----------
     1       5    2.362158
 ---------------------------------------------------------------------------------------------------
                            Z-MATRIX (ANGSTROMS AND DEGREES)
   CD    Cent   Atom    N1       Length/X        N2       Alpha/Y        N3        Beta/Z          J
 ---------------------------------------------------------------------------------------------------
      1      1  H 
      2      2  H        1   1.600000(     1)
      3      3  H        2   1.250000(     2)      1  180.000(     4)
      4      4  H        3   1.600000(     3)      2  180.000(     5)      1    0.000(     6)      0
 ---------------------------------------------------------------------------------------------------
                    Distance matrix (angstroms):
                    1          2          3          4
     1  H    0.000000
     2  H    1.600000   0.000000
     3  H    2.850000   1.250000   0.000000
     4  H    4.450000   2.850000   1.600000   0.000000
 Framework group  D*H[C*(HH.HH)]
 Deg. of freedom     2
                         Standard orientation:                         
 ---------------------------------------------------------------------
 Center     Atomic      Atomic             Coordinates (Angstroms)
 Number     Number       Type             X           Y           Z
 ---------------------------------------------------------------------
      1          1           0        0.000000    0.000000    2.225000
      2          1           0        0.000000    0.000000    0.625000
      3          1           0        0.000000    0.000000   -0.625000
      4          1           0        0.000000    0.000000   -2.225000
 ---------------------------------------------------------------------
 Rotational constants (GHZ):      0.0000000     46.9417365     46.9417365
     4 basis functions,    12 primitive gaussians,     4 cartesian basis functions
     2 alpha electrons        2 beta electrons
       nuclear repulsion energy         1.5750819313 Hartrees.
 NAtoms=    4 NActive=    4 NUniq=    2 SFac= 4.00D+00 NAtFMM=   60 NAOKFM=F Big=F
 Initial guess from the checkpoint file:  "P4model.chk"
 B after Tr=     0.000000    0.000000    0.000000
         Rot=    1.000000    0.000000    0.000000    0.000000 Ang=   0.00 deg.
 Initial guess orbital symmetries:
 Alpha Orbitals:
       Occupied  (SGG) (SGU)
       Virtual   (SGG) (SGU)
 Beta  Orbitals:
       Occupied  (SGG) (SGU)
       Virtual   (SGG) (SGU)
 Initial guess <Sx>= 0.0000 <Sy>= 0.0000 <Sz>= 0.0000 <S**2>=-0.0000 S=-0.0000
 ExpMin= 1.69D-01 ExpMax= 3.43D+00 ExpMxC= 3.43D+00 IAcc=1 IRadAn=         1 AccDes= 0.00D+00
 Harris functional with IExCor=  205 and IRadAn=       1 diagonalized for initial guess.
 HarFok:  IExCor=  205 AccDes= 0.00D+00 IRadAn=         1 IDoV= 1 UseB2=F ITyADJ=14
 ICtDFT=  3500011 ScaDFX=  1.000000  1.000000  1.000000  1.000000
 FoFCou: FMM=F IPFlag=           0 FMFlag=      100000 FMFlg1=           0
         NFxFlg=           0 DoJE=T BraDBF=F KetDBF=T FulRan=T
         wScrn=  0.000000 ICntrl=     500 IOpCl=  0 I1Cent=   200000004 NGrid=           0
         NMat0=    1 NMatS0=      1 NMatT0=    0 NMatD0=    1 NMtDS0=    0 NMtDT0=    0
 Petite list used in FoFCou.
 SCF Done:  E(UHF) =  -1.78994466639     A.U. after    5 cycles
            NFock=  5  Conv=0.28D-08     -V/T= 1.7260
 <Sx>= 0.0000 <Sy>= 0.0000 <Sz>= 0.0000 <S**2>=-0.0000 S=-0.0000
 <L.S>= 0.000000000000E+00
 Annihilation of the first spin contaminant:
 S**2 before annihilation    -0.0000,   after    -0.0000
 NROrb=      4 NOA=     2 NOB=     2 NVA=     2 NVB=     2
 Semi-Direct transformation.
 ModeAB=           4 MOrb=             4 LenV=     134162005
 LASXX=           27 LTotXX=          27 LenRXX=         127
 LTotAB=         100 MaxLAS=          60 LenRXY=           0
 NonZer=         154 LenScr=      655360 LnRSAI=          96
 LnScr1=      655360 LExtra=           0 Total=      1310943
 MaxDsk=          -1 SrtSym=           T ITran=            5
 JobTyp=1 Pass  1:  I=   1 to   4.
 (rs|ai) integrals will be sorted in core.
 ModeAB=           4 MOrb=             4 LenV=     134162005
 LASXX=           27 LTotXX=          27 LenRXX=          27
 LTotAB=           0 MaxLAS=          60 LenRXY=           0
 NonZer=          54 LenScr=      655360 LnRSAI=          96
 LnScr1=      655360 LExtra=           0 Total=      1310843
 MaxDsk=          -1 SrtSym=           T ITran=            5
 JobTyp=2 Pass  1:  I=   1 to   4.
 (rs|ai) integrals will be sorted in core.
 ANorm=    0.1057765244D+01
 E2 =    -0.1016551989D+00 EUMP2 =    -0.18915998652652D+01
 (S**2,0)=  0.00000D+00           (S**2,1)=  0.00000D+00
 E(PUHF)=      -0.17899446664D+01        E(PMP2)=      -0.18915998653D+01
 E(PMP3)=      -0.19481744444D+01
 MP4(R+Q)=  0.87447217D-02
 E3=       -0.56574579D-01        EUMP3=      -0.19481744444D+01
 E4(DQ)=   -0.33313095D-01        UMP4(DQ)=   -0.19814875393D+01
 E4(SDQ)=  -0.33665991D-01        UMP4(SDQ)=  -0.19818404353D+01
 DE(Corr)= -0.14948506     E(Corr)=     -1.9394297227    
 NORM(A)=   0.12117931D+01
 DE(Corr)= -0.19735711     E(Corr)=     -1.9873017772     Delta=-4.79D-02
 NORM(A)=   0.12366963D+01
 DE(Corr)= -0.20129889     E(Corr)=     -1.9912435558     Delta=-3.94D-03
 NORM(A)=   0.12425769D+01
 DE(Corr)= -0.20515833     E(Corr)=     -1.9951029971     Delta=-3.86D-03
 NORM(A)=   0.12812613D+01
 DE(Corr)= -0.21065298     E(Corr)=     -2.0005976414     Delta=-5.49D-03
 NORM(A)=   0.12807798D+01
 DE(Corr)= -0.21007551     E(Corr)=     -2.0000201739     Delta= 5.77D-04
 NORM(A)=   0.12822472D+01
 DE(Corr)= -0.21028513     E(Corr)=     -2.0002297932     Delta=-2.10D-04
 NORM(A)=   0.12839095D+01
 DE(Corr)= -0.21050418     E(Corr)=     -2.0004488414     Delta=-2.19D-04
 NORM(A)=   0.12830775D+01
 DE(Corr)= -0.21039060     E(Corr)=     -2.0003352620     Delta= 1.14D-04
 NORM(A)=   0.12832726D+01
 DE(Corr)= -0.21041781     E(Corr)=     -2.0003624805     Delta=-2.72D-05
 NORM(A)=   0.12832640D+01
 DE(Corr)= -0.21041652     E(Corr)=     -2.0003611871     Delta= 1.29D-06
 NORM(A)=   0.12832645D+01
 DE(Corr)= -0.21041661     E(Corr)=     -2.0003612729     Delta=-8.58D-08
 NORM(A)=   0.12832641D+01
 Dominant configurations:
 ***********************
 Spin Case        I    J    A    B          Value
   AAAA           1    2    3    4       0.112616D+00
   ABAB           1    1    4    4      -0.199284D+00
   ABAB           1    2    3    4       0.208157D+00
   ABAB           2    1    4    3       0.208157D+00
   ABAB           2    2    3    3      -0.673169D+00
   BBBB           1    2    3    4       0.112616D+00
 Largest amplitude= 6.73D-01
 Time for triples=        0.00 seconds.
 T4(QCISD)= -0.19755738D-03
 T5(QCISD)=  0.14406601D-03
 QCISD(T)= -0.20004147643D+01

 S**2, projected HF & approx projected MPn energies after annihilation of
 unwanted spin states (see manual for definitions):

 spins       (S**2,0) (S**2,1)    PUHF        PMP2        PMP3        PMP4
 annihilated
 s+1        -0.00000  0.00000   -1.789945   -1.891600   -1.948174
 s+1,s+2    -0.00000 -0.00000   -1.789945   -1.891600   -1.948174

 UMP5:  MDV= 134217728.
 Quadratic Configuration Interaction with Triples and Quadruples (QCISD(TQ))
 ===========================================================================
 Saving the triples amplitudes on disk, using         16 words of disk space.
 Time for triples=        0.00 seconds.
 E5TQ1    =   0.54730910245D-03
 Disk space used for TT scratch files  :           64 words
 E5TTaaa =   0.00000000D+00
 E5TTaab =  -0.12181810D-04
 E5TTabb =  -0.12181810D-04
 E5TTbbb =   0.00000000D+00
 E5TT     =  -0.24363620D-04
 E5TQ2    =  -0.26318353D-03
 EQQ2     =   0.19324731D-01
 DE5   =   0.19584492500D-01 QCISD(TQ) =  -0.19808302718D+01
 Variable Step   Value    
 -------- ---- -----------
     1       6    2.456644
 ---------------------------------------------------------------------------------------------------
                            Z-MATRIX (ANGSTROMS AND DEGREES)
   CD    Cent   Atom    N1       Length/X        N2       Alpha/Y        N3        Beta/Z          J
 ---------------------------------------------------------------------------------------------------
      1      1  H 
      2      2  H        1   1.600000(     1)
      3      3  H        2   1.300000(     2)      1  180.000(     4)
      4      4  H        3   1.600000(     3)      2  180.000(     5)      1    0.000(     6)      0
 ---------------------------------------------------------------------------------------------------
                    Distance matrix (angstroms):
                    1          2          3          4
     1  H    0.000000
     2  H    1.600000   0.000000
     3  H    2.900000   1.300000   0.000000
     4  H    4.500000   2.900000   1.600000   0.000000
 Framework group  D*H[C*(HH.HH)]
 Deg. of freedom     2
                         Standard orientation:                         
 ---------------------------------------------------------------------
 Center     Atomic      Atomic             Coordinates (Angstroms)
 Number     Number       Type             X           Y           Z
 ---------------------------------------------------------------------
      1          1           0        0.000000    0.000000    2.250000
      2          1           0        0.000000    0.000000    0.650000
      3          1           0        0.000000    0.000000   -0.650000
      4          1           0        0.000000    0.000000   -2.250000
 ---------------------------------------------------------------------
 Rotational constants (GHZ):      0.0000000     45.7114950     45.7114950
     4 basis functions,    12 primitive gaussians,     4 cartesian basis functions
     2 alpha electrons        2 beta electrons
       nuclear repulsion energy         1.5510756362 Hartrees.
 NAtoms=    4 NActive=    4 NUniq=    2 SFac= 4.00D+00 NAtFMM=   60 NAOKFM=F Big=F
 Initial guess from the checkpoint file:  "P4model.chk"
 B after Tr=     0.000000    0.000000   -0.000000
         Rot=    1.000000    0.000000    0.000000    0.000000 Ang=   0.00 deg.
 Initial guess orbital symmetries:
 Alpha Orbitals:
       Occupied  (SGG) (SGU)
       Virtual   (SGG) (SGU)
 Beta  Orbitals:
       Occupied  (SGG) (SGU)
       Virtual   (SGG) (SGU)
 Initial guess <Sx>= 0.0000 <Sy>= 0.0000 <Sz>= 0.0000 <S**2>=-0.0000 S=-0.0000
 ExpMin= 1.69D-01 ExpMax= 3.43D+00 ExpMxC= 3.43D+00 IAcc=1 IRadAn=         1 AccDes= 0.00D+00
 Harris functional with IExCor=  205 and IRadAn=       1 diagonalized for initial guess.
 HarFok:  IExCor=  205 AccDes= 0.00D+00 IRadAn=         1 IDoV= 1 UseB2=F ITyADJ=14
 ICtDFT=  3500011 ScaDFX=  1.000000  1.000000  1.000000  1.000000
 FoFCou: FMM=F IPFlag=           0 FMFlag=      100000 FMFlg1=           0
         NFxFlg=           0 DoJE=T BraDBF=F KetDBF=T FulRan=T
         wScrn=  0.000000 ICntrl=     500 IOpCl=  0 I1Cent=   200000004 NGrid=           0
         NMat0=    1 NMatS0=      1 NMatT0=    0 NMatD0=    1 NMtDS0=    0 NMtDT0=    0
 Petite list used in FoFCou.
 SCF Done:  E(UHF) =  -1.78641055403     A.U. after    5 cycles
            NFock=  5  Conv=0.29D-08     -V/T= 1.7245
 <Sx>= 0.0000 <Sy>= 0.0000 <Sz>= 0.0000 <S**2>=-0.0000 S=-0.0000
 <L.S>= 0.000000000000E+00
 Annihilation of the first spin contaminant:
 S**2 before annihilation    -0.0000,   after     0.0000
 NROrb=      4 NOA=     2 NOB=     2 NVA=     2 NVB=     2
 Semi-Direct transformation.
 ModeAB=           4 MOrb=             4 LenV=     134162005
 LASXX=           27 LTotXX=          27 LenRXX=         127
 LTotAB=         100 MaxLAS=          60 LenRXY=           0
 NonZer=         154 LenScr=      655360 LnRSAI=          96
 LnScr1=      655360 LExtra=           0 Total=      1310943
 MaxDsk=          -1 SrtSym=           T ITran=            5
 JobTyp=1 Pass  1:  I=   1 to   4.
 (rs|ai) integrals will be sorted in core.
 ModeAB=           4 MOrb=             4 LenV=     134162005
 LASXX=           27 LTotXX=          27 LenRXX=          27
 LTotAB=           0 MaxLAS=          60 LenRXY=           0
 NonZer=          54 LenScr=      655360 LnRSAI=          96
 LnScr1=      655360 LExtra=           0 Total=      1310843
 MaxDsk=          -1 SrtSym=           T ITran=            5
 JobTyp=2 Pass  1:  I=   1 to   4.
 (rs|ai) integrals will be sorted in core.
 ANorm=    0.1054572854D+01
 E2 =    -0.9996841539D-01 EUMP2 =    -0.18863789694268D+01
 (S**2,0)=  0.00000D+00           (S**2,1)=  0.00000D+00
 E(PUHF)=      -0.17864105540D+01        E(PMP2)=      -0.18863789694D+01
 E(PMP3)=      -0.19417376648D+01
 MP4(R+Q)=  0.77751652D-02
 E3=       -0.55358695D-01        EUMP3=      -0.19417376648D+01
 E4(DQ)=   -0.32322131D-01        UMP4(DQ)=   -0.19740597958D+01
 E4(SDQ)=  -0.32412164D-01        UMP4(SDQ)=  -0.19741498286D+01
 DE(Corr)= -0.14755195     E(Corr)=     -1.9339624996    
 NORM(A)=   0.12032282D+01
 DE(Corr)= -0.19506275     E(Corr)=     -1.9814733078     Delta=-4.75D-02
 NORM(A)=   0.12225386D+01
 DE(Corr)= -0.19828558     E(Corr)=     -1.9846961369     Delta=-3.22D-03
 NORM(A)=   0.12297442D+01
 DE(Corr)= -0.20213762     E(Corr)=     -1.9885481782     Delta=-3.85D-03
 NORM(A)=   0.12669088D+01
 DE(Corr)= -0.20780650     E(Corr)=     -1.9942170496     Delta=-5.67D-03
 NORM(A)=   0.12688069D+01
 DE(Corr)= -0.20755563     E(Corr)=     -1.9939661888     Delta= 2.51D-04
 NORM(A)=   0.12694793D+01
 DE(Corr)= -0.20764835     E(Corr)=     -1.9940589083     Delta=-9.27D-05
 NORM(A)=   0.12714431D+01
 DE(Corr)= -0.20793037     E(Corr)=     -1.9943409276     Delta=-2.82D-04
 NORM(A)=   0.12704549D+01
 DE(Corr)= -0.20778603     E(Corr)=     -1.9941965804     Delta= 1.44D-04
 NORM(A)=   0.12705981D+01
 DE(Corr)= -0.20780731     E(Corr)=     -1.9942178610     Delta=-2.13D-05
 NORM(A)=   0.12705927D+01
 DE(Corr)= -0.20780637     E(Corr)=     -1.9942169203     Delta= 9.41D-07
 NORM(A)=   0.12705952D+01
 DE(Corr)= -0.20780674     E(Corr)=     -1.9942172899     Delta=-3.70D-07
 NORM(A)=   0.12705948D+01
 DE(Corr)= -0.20780668     E(Corr)=     -1.9942172352     Delta= 5.46D-08
 NORM(A)=   0.12705949D+01
 Dominant configurations:
 ***********************
 Spin Case        I    J    A    B          Value
   AAAA           1    2    3    4       0.112321D+00
   ABAB           1    1    4    4      -0.205877D+00
   ABAB           1    2    3    4       0.218130D+00
   ABAB           1    2    4    3       0.105809D+00
   ABAB           2    1    3    4       0.105809D+00
   ABAB           2    1    4    3       0.218130D+00
   ABAB           2    2    3    3      -0.641918D+00
   BBBB           1    2    3    4       0.112321D+00
 Largest amplitude= 6.42D-01
 Time for triples=        0.00 seconds.
 T4(QCISD)= -0.45482513D-04
 T5(QCISD)=  0.52825720D-04
 QCISD(T)= -0.19942098920D+01

 S**2, projected HF & approx projected MPn energies after annihilation of
 unwanted spin states (see manual for definitions):

 spins       (S**2,0) (S**2,1)    PUHF        PMP2        PMP3        PMP4
 annihilated
 s+1        -0.00000  0.00000   -1.786411   -1.886379   -1.941738
 s+1,s+2     0.00000  0.00000   -1.786411   -1.886379   -1.941738

 UMP5:  MDV= 134217728.
 Quadratic Configuration Interaction with Triples and Quadruples (QCISD(TQ))
 ===========================================================================
 Saving the triples amplitudes on disk, using         16 words of disk space.
 Time for triples=        0.00 seconds.
 E5TQ1    =   0.17803067468D-03
 Disk space used for TT scratch files  :           64 words
 E5TTaaa =   0.00000000D+00
 E5TTaab =   0.19296862D-05
 E5TTabb =   0.19296862D-05
 E5TTbbb =   0.00000000D+00
 E5TT     =   0.38593725D-05
 E5TQ2    =  -0.45183252D-04
 EQQ2     =   0.19371236D-01
 DE5   =   0.19507943002D-01 QCISD(TQ) =  -0.19747019490D+01
 Variable Step   Value    
 -------- ---- -----------
     1       7    2.551130
 ---------------------------------------------------------------------------------------------------
                            Z-MATRIX (ANGSTROMS AND DEGREES)
   CD    Cent   Atom    N1       Length/X        N2       Alpha/Y        N3        Beta/Z          J
 ---------------------------------------------------------------------------------------------------
      1      1  H 
      2      2  H        1   1.600000(     1)
      3      3  H        2   1.350000(     2)      1  180.000(     4)
      4      4  H        3   1.600000(     3)      2  180.000(     5)      1    0.000(     6)      0
 ---------------------------------------------------------------------------------------------------
                    Distance matrix (angstroms):
                    1          2          3          4
     1  H    0.000000
     2  H    1.600000   0.000000
     3  H    2.950000   1.350000   0.000000
     4  H    4.550000   2.950000   1.600000   0.000000
 Framework group  D*H[C*(HH.HH)]
 Deg. of freedom     2
                         Standard orientation:                         
 ---------------------------------------------------------------------
 Center     Atomic      Atomic             Coordinates (Angstroms)
 Number     Number       Type             X           Y           Z
 ---------------------------------------------------------------------
      1          1           0        0.000000    0.000000    2.275000
      2          1           0        0.000000    0.000000    0.675000
      3          1           0        0.000000    0.000000   -0.675000
      4          1           0        0.000000    0.000000   -2.275000
 ---------------------------------------------------------------------
 Rotational constants (GHZ):      0.0000000     44.5243152     44.5243152
     4 basis functions,    12 primitive gaussians,     4 cartesian basis functions
     2 alpha electrons        2 beta electrons
       nuclear repulsion energy         1.5285215206 Hartrees.
 NAtoms=    4 NActive=    4 NUniq=    2 SFac= 4.00D+00 NAtFMM=   60 NAOKFM=F Big=F
 Initial guess from the checkpoint file:  "P4model.chk"
 B after Tr=     0.000000    0.000000    0.000000
         Rot=    1.000000    0.000000    0.000000    0.000000 Ang=   0.00 deg.
 Initial guess orbital symmetries:
 Alpha Orbitals:
       Occupied  (SGG) (SGU)
       Virtual   (SGG) (SGU)
 Beta  Orbitals:
       Occupied  (SGG) (SGU)
       Virtual   (SGG) (SGU)
 Initial guess <Sx>= 0.0000 <Sy>= 0.0000 <Sz>= 0.0000 <S**2>=-0.0000 S=-0.0000
 ExpMin= 1.69D-01 ExpMax= 3.43D+00 ExpMxC= 3.43D+00 IAcc=1 IRadAn=         1 AccDes= 0.00D+00
 Harris functional with IExCor=  205 and IRadAn=       1 diagonalized for initial guess.
 HarFok:  IExCor=  205 AccDes= 0.00D+00 IRadAn=         1 IDoV= 1 UseB2=F ITyADJ=14
 ICtDFT=  3500011 ScaDFX=  1.000000  1.000000  1.000000  1.000000
 FoFCou: FMM=F IPFlag=           0 FMFlag=      100000 FMFlg1=           0
         NFxFlg=           0 DoJE=T BraDBF=F KetDBF=T FulRan=T
         wScrn=  0.000000 ICntrl=     500 IOpCl=  0 I1Cent=   200000004 NGrid=           0
         NMat0=    1 NMatS0=      1 NMatT0=    0 NMatD0=    1 NMtDS0=    0 NMtDT0=    0
 Petite list used in FoFCou.
 SCF Done:  E(UHF) =  -1.78322157371     A.U. after    5 cycles
            NFock=  5  Conv=0.28D-08     -V/T= 1.7230
 <Sx>= 0.0000 <Sy>= 0.0000 <Sz>= 0.0000 <S**2>=-0.0000 S=-0.0000
 <L.S>= 0.000000000000E+00
 Annihilation of the first spin contaminant:
 S**2 before annihilation    -0.0000,   after     0.0000
 NROrb=      4 NOA=     2 NOB=     2 NVA=     2 NVB=     2
 Semi-Direct transformation.
 ModeAB=           4 MOrb=             4 LenV=     134162005
 LASXX=           27 LTotXX=          27 LenRXX=         127
 LTotAB=         100 MaxLAS=          60 LenRXY=           0
 NonZer=         154 LenScr=      655360 LnRSAI=          96
 LnScr1=      655360 LExtra=           0 Total=      1310943
 MaxDsk=          -1 SrtSym=           T ITran=            5
 JobTyp=1 Pass  1:  I=   1 to   4.
 (rs|ai) integrals will be sorted in core.
 ModeAB=           4 MOrb=             4 LenV=     134162005
 LASXX=           27 LTotXX=          27 LenRXX=          27
 LTotAB=           0 MaxLAS=          60 LenRXY=           0
 NonZer=          54 LenScr=      655360 LnRSAI=          96
 LnScr1=      655360 LExtra=           0 Total=      1310843
 MaxDsk=          -1 SrtSym=           T ITran=            5
 JobTyp=2 Pass  1:  I=   1 to   4.
 (rs|ai) integrals will be sorted in core.
 ANorm=    0.1052167699D+01
 E2 =    -0.9894577411D-01 EUMP2 =    -0.18821673478223D+01
 (S**2,0)=  0.00000D+00           (S**2,1)=  0.00000D+00
 E(PUHF)=      -0.17832215737D+01        E(PMP2)=      -0.18821673478D+01
 E(PMP3)=      -0.19367587173D+01
 MP4(R+Q)=  0.70439383D-02
 E3=       -0.54591370D-01        EUMP3=      -0.19367587173D+01
 E4(DQ)=   -0.31360622D-01        UMP4(DQ)=   -0.19681193397D+01
 E4(SDQ)=  -0.31368517D-01        UMP4(SDQ)=  -0.19681272347D+01
 DE(Corr)= -0.14649321     E(Corr)=     -1.9297147790    
 NORM(A)=   0.11965724D+01
 DE(Corr)= -0.19359407     E(Corr)=     -1.9768156429     Delta=-4.71D-02
 NORM(A)=   0.12101557D+01
 DE(Corr)= -0.19593052     E(Corr)=     -1.9791520918     Delta=-2.34D-03
 NORM(A)=   0.12174214D+01
 DE(Corr)= -0.19955486     E(Corr)=     -1.9827764305     Delta=-3.62D-03
 NORM(A)=   0.12519835D+01
 DE(Corr)= -0.20517425     E(Corr)=     -1.9883958284     Delta=-5.62D-03
 NORM(A)=   0.12559463D+01
 DE(Corr)= -0.20526399     E(Corr)=     -1.9884855685     Delta=-8.97D-05
 NORM(A)=   0.12559301D+01
 DE(Corr)= -0.20524867     E(Corr)=     -1.9884702415     Delta= 1.53D-05
 NORM(A)=   0.12580196D+01
 DE(Corr)= -0.20557042     E(Corr)=     -1.9887919978     Delta=-3.22D-04
 NORM(A)=   0.12570007D+01
 DE(Corr)= -0.20541243     E(Corr)=     -1.9886340062     Delta= 1.58D-04
 NORM(A)=   0.12570626D+01
 DE(Corr)= -0.20542217     E(Corr)=     -1.9886437483     Delta=-9.74D-06
 NORM(A)=   0.12570575D+01
 DE(Corr)= -0.20542123     E(Corr)=     -1.9886428040     Delta= 9.44D-07
 NORM(A)=   0.12570616D+01
 DE(Corr)= -0.20542187     E(Corr)=     -1.9886434483     Delta=-6.44D-07
 NORM(A)=   0.12570614D+01
 DE(Corr)= -0.20542184     E(Corr)=     -1.9886434116     Delta= 3.66D-08
 NORM(A)=   0.12570614D+01
 Dominant configurations:
 ***********************
 Spin Case        I    J    A    B          Value
   AAAA           1    2    3    4       0.109976D+00
   ABAB           1    1    4    4      -0.210770D+00
   ABAB           1    2    3    4       0.225973D+00
   ABAB           1    2    4    3       0.115996D+00
   ABAB           2    1    3    4       0.115996D+00
   ABAB           2    1    4    3       0.225973D+00
   ABAB           2    2    3    3      -0.608438D+00
   BBBB           1    2    3    4       0.109976D+00
 Largest amplitude= 6.08D-01
 Time for triples=        0.00 seconds.
 T4(QCISD)= -0.22756715D-04
 T5(QCISD)= -0.74223128D-05
 QCISD(T)= -0.19886735907D+01

 S**2, projected HF & approx projected MPn energies after annihilation of
 unwanted spin states (see manual for definitions):

 spins       (S**2,0) (S**2,1)    PUHF        PMP2        PMP3        PMP4
 annihilated
 s+1        -0.00000  0.00000   -1.783222   -1.882167   -1.936759
 s+1,s+2     0.00000  0.00000   -1.783222   -1.882167   -1.936759

 UMP5:  MDV= 134217728.
 Quadratic Configuration Interaction with Triples and Quadruples (QCISD(TQ))
 ===========================================================================
 Saving the triples amplitudes on disk, using         16 words of disk space.
 Time for triples=        0.00 seconds.
 E5TQ1    =  -0.71816938120D-04
 Disk space used for TT scratch files  :           64 words
 E5TTaaa =   0.00000000D+00
 E5TTaab =  -0.62817675D-05
 E5TTabb =  -0.62817675D-05
 E5TTbbb =   0.00000000D+00
 E5TT     =  -0.12563535D-04
 E5TQ2    =   0.43459631D-04
 EQQ2     =   0.18483709D-01
 DE5   =   0.18442788567D-01 QCISD(TQ) =  -0.19702308021D+01
 Variable Step   Value    
 -------- ---- -----------
     1       8    2.645617
 ---------------------------------------------------------------------------------------------------
                            Z-MATRIX (ANGSTROMS AND DEGREES)
   CD    Cent   Atom    N1       Length/X        N2       Alpha/Y        N3        Beta/Z          J
 ---------------------------------------------------------------------------------------------------
      1      1  H 
      2      2  H        1   1.600000(     1)
      3      3  H        2   1.400000(     2)      1  180.000(     4)
      4      4  H        3   1.600000(     3)      2  180.000(     5)      1    0.000(     6)      0
 ---------------------------------------------------------------------------------------------------
                    Distance matrix (angstroms):
                    1          2          3          4
     1  H    0.000000
     2  H    1.600000   0.000000
     3  H    3.000000   1.400000   0.000000
     4  H    4.600000   3.000000   1.600000   0.000000
 Framework group  D*H[C*(HH.HH)]
 Deg. of freedom     2
                         Standard orientation:                         
 ---------------------------------------------------------------------
 Center     Atomic      Atomic             Coordinates (Angstroms)
 Number     Number       Type             X           Y           Z
 ---------------------------------------------------------------------
      1          1           0        0.000000    0.000000    2.300000
      2          1           0        0.000000    0.000000    0.700000
      3          1           0        0.000000    0.000000   -0.700000
      4          1           0        0.000000    0.000000   -2.300000
 ---------------------------------------------------------------------
 Rotational constants (GHZ):      0.0000000     43.3784689     43.3784689
     4 basis functions,    12 primitive gaussians,     4 cartesian basis functions
     2 alpha electrons        2 beta electrons
       nuclear repulsion energy         1.5072785605 Hartrees.
 NAtoms=    4 NActive=    4 NUniq=    2 SFac= 4.00D+00 NAtFMM=   60 NAOKFM=F Big=F
 Initial guess from the checkpoint file:  "P4model.chk"
 B after Tr=     0.000000    0.000000    0.000000
         Rot=    1.000000    0.000000    0.000000    0.000000 Ang=   0.00 deg.
 Initial guess orbital symmetries:
 Alpha Orbitals:
       Occupied  (SGG) (SGU)
       Virtual   (SGG) (SGU)
 Beta  Orbitals:
       Occupied  (SGG) (SGU)
       Virtual   (SGG) (SGU)
 Initial guess <Sx>= 0.0000 <Sy>= 0.0000 <Sz>= 0.0000 <S**2>=-0.0000 S=-0.0000
 ExpMin= 1.69D-01 ExpMax= 3.43D+00 ExpMxC= 3.43D+00 IAcc=1 IRadAn=         1 AccDes= 0.00D+00
 Harris functional with IExCor=  205 and IRadAn=       1 diagonalized for initial guess.
 HarFok:  IExCor=  205 AccDes= 0.00D+00 IRadAn=         1 IDoV= 1 UseB2=F ITyADJ=14
 ICtDFT=  3500011 ScaDFX=  1.000000  1.000000  1.000000  1.000000
 FoFCou: FMM=F IPFlag=           0 FMFlag=      100000 FMFlg1=           0
         NFxFlg=           0 DoJE=T BraDBF=F KetDBF=T FulRan=T
         wScrn=  0.000000 ICntrl=     500 IOpCl=  0 I1Cent=   200000004 NGrid=           0
         NMat0=    1 NMatS0=      1 NMatT0=    0 NMatD0=    1 NMtDS0=    0 NMtDT0=    0
 Petite list used in FoFCou.
 SCF Done:  E(UHF) =  -1.78038269876     A.U. after    5 cycles
            NFock=  5  Conv=0.25D-08     -V/T= 1.7214
 <Sx>= 0.0000 <Sy>= 0.0000 <Sz>= 0.0000 <S**2>=-0.0000 S=-0.0000
 <L.S>= 0.000000000000E+00
 Annihilation of the first spin contaminant:
 S**2 before annihilation    -0.0000,   after     0.0000
 NROrb=      4 NOA=     2 NOB=     2 NVA=     2 NVB=     2
 Semi-Direct transformation.
 ModeAB=           4 MOrb=             4 LenV=     134162005
 LASXX=           27 LTotXX=          27 LenRXX=         127
 LTotAB=         100 MaxLAS=          60 LenRXY=           0
 NonZer=         154 LenScr=      655360 LnRSAI=          96
 LnScr1=      655360 LExtra=           0 Total=      1310943
 MaxDsk=          -1 SrtSym=           T ITran=            5
 JobTyp=1 Pass  1:  I=   1 to   4.
 (rs|ai) integrals will be sorted in core.
 ModeAB=           4 MOrb=             4 LenV=     134162005
 LASXX=           27 LTotXX=          27 LenRXX=          27
 LTotAB=           0 MaxLAS=          60 LenRXY=           0
 NonZer=          54 LenScr=      655360 LnRSAI=          96
 LnScr1=      655360 LExtra=           0 Total=      1310843
 MaxDsk=          -1 SrtSym=           T ITran=            5
 JobTyp=2 Pass  1:  I=   1 to   4.
 (rs|ai) integrals will be sorted in core.
 ANorm=    0.1050416720D+01
 E2 =    -0.9846046535D-01 EUMP2 =    -0.18788431641112D+01
 (S**2,0)=  0.00000D+00           (S**2,1)=  0.00000D+00
 E(PUHF)=      -0.17803826988D+01        E(PMP2)=      -0.18788431641D+01
 E(PMP3)=      -0.19330382755D+01
 MP4(R+Q)=  0.64994448D-02
 E3=       -0.54195111D-01        EUMP3=      -0.19330382755D+01
 E4(DQ)=   -0.30491502D-01        UMP4(DQ)=   -0.19635297774D+01
 E4(SDQ)=  -0.30538355D-01        UMP4(SDQ)=  -0.19635766305D+01
 DE(Corr)= -0.14615613     E(Corr)=     -1.9265388308    
 NORM(A)=   0.11917072D+01
 DE(Corr)= -0.19288397     E(Corr)=     -1.9732666660     Delta=-4.67D-02
 NORM(A)=   0.11998543D+01
 DE(Corr)= -0.19426827     E(Corr)=     -1.9746509721     Delta=-1.38D-03
 NORM(A)=   0.12062845D+01
 DE(Corr)= -0.19749207     E(Corr)=     -1.9778747723     Delta=-3.22D-03
 NORM(A)=   0.12373566D+01
 DE(Corr)= -0.20284522     E(Corr)=     -1.9832279166     Delta=-5.35D-03
 NORM(A)=   0.12428485D+01
 DE(Corr)= -0.20323980     E(Corr)=     -1.9836225026     Delta=-3.95D-04
 NORM(A)=   0.12423253D+01
 DE(Corr)= -0.20314135     E(Corr)=     -1.9835240489     Delta= 9.85D-05
 NORM(A)=   0.12443393D+01
 DE(Corr)= -0.20347084     E(Corr)=     -1.9838535423     Delta=-3.29D-04
 NORM(A)=   0.12433622D+01
 DE(Corr)= -0.20331071     E(Corr)=     -1.9836934057     Delta= 1.60D-04
 NORM(A)=   0.12433911D+01
 DE(Corr)= -0.20331548     E(Corr)=     -1.9836981815     Delta=-4.78D-06
 NORM(A)=   0.12433859D+01
 DE(Corr)= -0.20331451     E(Corr)=     -1.9836972121     Delta= 9.69D-07
 NORM(A)=   0.12433893D+01
 DE(Corr)= -0.20331508     E(Corr)=     -1.9836977776     Delta=-5.66D-07
 NORM(A)=   0.12433891D+01
 DE(Corr)= -0.20331505     E(Corr)=     -1.9836977448     Delta= 3.29D-08
 NORM(A)=   0.12433891D+01
 Dominant configurations:
 ***********************
 Spin Case        I    J    A    B          Value
   AAAA           1    2    3    4       0.105777D+00
   ABAB           1    1    4    4      -0.213971D+00
   ABAB           1    2    3    4       0.231676D+00
   ABAB           1    2    4    3       0.125899D+00
   ABAB           2    1    3    4       0.125899D+00
   ABAB           2    1    4    3       0.231676D+00
   ABAB           2    2    3    3      -0.573688D+00
   BBBB           1    2    3    4       0.105777D+00
 Largest amplitude= 5.74D-01
 Time for triples=        0.00 seconds.
 T4(QCISD)= -0.10756457D-03
 T5(QCISD)= -0.38277427D-04
 QCISD(T)= -0.19838435868D+01

 S**2, projected HF & approx projected MPn energies after annihilation of
 unwanted spin states (see manual for definitions):

 spins       (S**2,0) (S**2,1)    PUHF        PMP2        PMP3        PMP4
 annihilated
 s+1         0.00000  0.00000   -1.780383   -1.878843   -1.933038
 s+1,s+2     0.00000  0.00000   -1.780383   -1.878843   -1.933038

 UMP5:  MDV= 134217728.
 Quadratic Configuration Interaction with Triples and Quadruples (QCISD(TQ))
 ===========================================================================
 Saving the triples amplitudes on disk, using         16 words of disk space.
 Time for triples=        0.01 seconds.
 E5TQ1    =  -0.19414026022D-03
 Disk space used for TT scratch files  :           64 words
 E5TTaaa =   0.00000000D+00
 E5TTaab =  -0.32837870D-04
 E5TTabb =  -0.32837870D-04
 E5TTbbb =   0.00000000D+00
 E5TT     =  -0.65675739D-04
 E5TQ2    =   0.12898599D-04
 EQQ2     =   0.16845446D-01
 DE5   =   0.16598528473D-01 QCISD(TQ) =  -0.19672450583D+01
 Variable Step   Value    
 -------- ---- -----------
     1       9    2.740103
 ---------------------------------------------------------------------------------------------------
                            Z-MATRIX (ANGSTROMS AND DEGREES)
   CD    Cent   Atom    N1       Length/X        N2       Alpha/Y        N3        Beta/Z          J
 ---------------------------------------------------------------------------------------------------
      1      1  H 
      2      2  H        1   1.600000(     1)
      3      3  H        2   1.450000(     2)      1  180.000(     4)
      4      4  H        3   1.600000(     3)      2  180.000(     5)      1    0.000(     6)      0
 ---------------------------------------------------------------------------------------------------
                    Distance matrix (angstroms):
                    1          2          3          4
     1  H    0.000000
     2  H    1.600000   0.000000
     3  H    3.050000   1.450000   0.000000
     4  H    4.650000   3.050000   1.600000   0.000000
 Framework group  D*H[C*(HH.HH)]
 Deg. of freedom     2
                         Standard orientation:                         
 ---------------------------------------------------------------------
 Center     Atomic      Atomic             Coordinates (Angstroms)
 Number     Number       Type             X           Y           Z
 ---------------------------------------------------------------------
      1          1           0        0.000000    0.000000    2.325000
      2          1           0        0.000000    0.000000    0.725000
      3          1           0        0.000000    0.000000   -0.725000
      4          1           0        0.000000    0.000000   -2.325000
 ---------------------------------------------------------------------
 Rotational constants (GHZ):      0.0000000     42.2722951     42.2722951
     4 basis functions,    12 primitive gaussians,     4 cartesian basis functions
     2 alpha electrons        2 beta electrons
       nuclear repulsion energy         1.4872243083 Hartrees.
 NAtoms=    4 NActive=    4 NUniq=    2 SFac= 4.00D+00 NAtFMM=   60 NAOKFM=F Big=F
 Initial guess from the checkpoint file:  "P4model.chk"
 B after Tr=     0.000000    0.000000    0.000000
         Rot=    1.000000    0.000000    0.000000    0.000000 Ang=   0.00 deg.
 Initial guess orbital symmetries:
 Alpha Orbitals:
       Occupied  (SGG) (SGU)
       Virtual   (SGG) (SGU)
 Beta  Orbitals:
       Occupied  (SGG) (SGU)
       Virtual   (SGG) (SGU)
 Initial guess <Sx>= 0.0000 <Sy>= 0.0000 <Sz>= 0.0000 <S**2>=-0.0000 S=-0.0000
 ExpMin= 1.69D-01 ExpMax= 3.43D+00 ExpMxC= 3.43D+00 IAcc=1 IRadAn=         1 AccDes= 0.00D+00
 Harris functional with IExCor=  205 and IRadAn=       1 diagonalized for initial guess.
 HarFok:  IExCor=  205 AccDes= 0.00D+00 IRadAn=         1 IDoV= 1 UseB2=F ITyADJ=14
 ICtDFT=  3500011 ScaDFX=  1.000000  1.000000  1.000000  1.000000
 FoFCou: FMM=F IPFlag=           0 FMFlag=      100000 FMFlg1=           0
         NFxFlg=           0 DoJE=T BraDBF=F KetDBF=T FulRan=T
[...]
 Initial guess from the checkpoint file:  "P4model.chk"
 B after Tr=     0.000000    0.000000    0.000000
         Rot=    1.000000    0.000000    0.000000    0.000000 Ang=   0.00 deg.
 Initial guess orbital symmetries:
 Alpha Orbitals:
       Occupied  (SGG) (SGU)
       Virtual   (SGG) (SGU)
 Beta  Orbitals:
       Occupied  (SGG) (SGU)
       Virtual   (SGG) (SGU)
 Initial guess <Sx>= 0.0000 <Sy>= 0.0000 <Sz>= 0.0000 <S**2>=-0.0000 S=-0.0000
 ExpMin= 1.69D-01 ExpMax= 3.43D+00 ExpMxC= 3.43D+00 IAcc=1 IRadAn=         1 AccDes= 0.00D+00
 Harris functional with IExCor=  205 and IRadAn=       1 diagonalized for initial guess.
 HarFok:  IExCor=  205 AccDes= 0.00D+00 IRadAn=         1 IDoV= 1 UseB2=F ITyADJ=14
 ICtDFT=  3500011 ScaDFX=  1.000000  1.000000  1.000000  1.000000
 FoFCou: FMM=F IPFlag=           0 FMFlag=      100000 FMFlg1=           0
         NFxFlg=           0 DoJE=T BraDBF=F KetDBF=T FulRan=T
         wScrn=  0.000000 ICntrl=     500 IOpCl=  0 I1Cent=   200000004 NGrid=           0
         NMat0=    1 NMatS0=      1 NMatT0=    0 NMatD0=    1 NMtDS0=    0 NMtDT0=    0
 Petite list used in FoFCou.
 SCF Done:  E(UHF) =  -1.76344397233     A.U. after    4 cycles
            NFock=  4  Conv=0.13D-11     -V/T= 1.7066
 <Sx>= 0.0000 <Sy>= 0.0000 <Sz>= 0.0000 <S**2>=-0.0000 S=-0.0000
 <L.S>= 0.000000000000E+00
 Annihilation of the first spin contaminant:
 S**2 before annihilation    -0.0000,   after     0.0000
 NROrb=      4 NOA=     2 NOB=     2 NVA=     2 NVB=     2
 Semi-Direct transformation.
 ModeAB=           4 MOrb=             4 LenV=     134162173
 LASXX=           27 LTotXX=          27 LenRXX=         127
 LTotAB=         100 MaxLAS=          60 LenRXY=           0
 NonZer=         154 LenScr=      655360 LnRSAI=          96
 LnScr1=      655360 LExtra=           0 Total=      1310943
 MaxDsk=          -1 SrtSym=           T ITran=            5
 JobTyp=1 Pass  1:  I=   1 to   4.
 (rs|ai) integrals will be sorted in core.
 ModeAB=           4 MOrb=             4 LenV=     134162173
 LASXX=           27 LTotXX=          27 LenRXX=          27
 LTotAB=           0 MaxLAS=          60 LenRXY=           0
 NonZer=          54 LenScr=      655360 LnRSAI=          96
 LnScr1=      655360 LExtra=           0 Total=      1310843
 MaxDsk=          -1 SrtSym=           T ITran=            5
 JobTyp=2 Pass  1:  I=   1 to   4.
 (rs|ai) integrals will be sorted in core.
 ANorm=    0.1048415183D+01
 E2 =    -0.1050980729D+00 EUMP2 =    -0.18685420452334D+01
 (S**2,0)=  0.00000D+00           (S**2,1)=  0.00000D+00
 E(PUHF)=      -0.17634439723D+01        E(PMP2)=      -0.18685420452D+01
 E(PMP3)=      -0.19293922851D+01
 MP4(R+Q)=  0.52115458D-02
 E3=       -0.60850240D-01        EUMP3=      -0.19293922851D+01
 E4(DQ)=   -0.30076512D-01        UMP4(DQ)=   -0.19594687969D+01
 E4(SDQ)=  -0.30076795D-01        UMP4(SDQ)=  -0.19594690803D+01
 DE(Corr)= -0.16073677     E(Corr)=     -1.9241807393    
 NORM(A)=   0.12033505D+01
 DE(Corr)= -0.21100262     E(Corr)=     -1.9744465949     Delta=-5.03D-02
 NORM(A)=   0.11676534D+01
 DE(Corr)= -0.20257692     E(Corr)=     -1.9660208890     Delta= 8.43D-03
 NORM(A)=   0.11706525D+01
 DE(Corr)= -0.20332932     E(Corr)=     -1.9667732934     Delta=-7.52D-04
 NORM(A)=   0.11714254D+01
 DE(Corr)= -0.20352169     E(Corr)=     -1.9669656578     Delta=-1.92D-04
 NORM(A)=   0.11713721D+01
 DE(Corr)= -0.20350843     E(Corr)=     -1.9669523996     Delta= 1.33D-05
 NORM(A)=   0.11712884D+01
 DE(Corr)= -0.20348762     E(Corr)=     -1.9669315888     Delta= 2.08D-05
 NORM(A)=   0.11713083D+01
 DE(Corr)= -0.20349256     E(Corr)=     -1.9669365313     Delta=-4.94D-06
 NORM(A)=   0.11713265D+01
 DE(Corr)= -0.20349708     E(Corr)=     -1.9669410538     Delta=-4.52D-06
 NORM(A)=   0.11713228D+01
 DE(Corr)= -0.20349615     E(Corr)=     -1.9669401251     Delta= 9.29D-07
 NORM(A)=   0.11713228D+01
 DE(Corr)= -0.20349617     E(Corr)=     -1.9669401446     Delta=-1.95D-08
 NORM(A)=   0.11713228D+01
 Dominant configurations:
 ***********************
 Spin Case        I    J    A    B          Value
   ABAB           1    1    3    3      -0.216408D+00
   ABAB           1    1    4    4      -0.214222D+00
   ABAB           1    2    3    4       0.216285D+00
   ABAB           1    2    4    3       0.214984D+00
   ABAB           2    1    3    4       0.214984D+00
   ABAB           2    1    4    3       0.216285D+00
   ABAB           2    2    3    3      -0.215788D+00
   ABAB           2    2    4    4      -0.216124D+00
 Largest amplitude= 2.16D-01
 Time for triples=        0.00 seconds.
 T4(QCISD)= -0.56736719D-06
 T5(QCISD)= -0.10168101D-06
 QCISD(T)= -0.19669408137D+01

 S**2, projected HF & approx projected MPn energies after annihilation of
 unwanted spin states (see manual for definitions):

 spins       (S**2,0) (S**2,1)    PUHF        PMP2        PMP3        PMP4
 annihilated
 s+1        -0.00000  0.00000   -1.763444   -1.868542   -1.929392
 s+1,s+2     0.00000  0.00000   -1.763444   -1.868542   -1.929392

 UMP5:  MDV= 134217728.
 Quadratic Configuration Interaction with Triples and Quadruples (QCISD(TQ))
 ===========================================================================
 Saving the triples amplitudes on disk, using         16 words of disk space.
 Time for triples=        0.00 seconds.
 E5TQ1    =  -0.10354360449D-06
 Disk space used for TT scratch files  :           64 words
 E5TTaaa =   0.00000000D+00
 E5TTaab =  -0.14698485D-06
 E5TTabb =  -0.14698485D-06
 E5TTbbb =   0.00000000D+00
 E5TT     =  -0.29396970D-06
 E5TQ2    =  -0.48681056D-07
 EQQ2     =  -0.25309257D-05
 DE5   =  -0.29771200781D-05 QCISD(TQ) =  -0.19669437908D+01
 Scan completed.
 
 Summary of the potential surface scan:
   N       R          SCF          MP2          MP3    
 ----  ---------  -----------  -----------  -----------
    1     1.0000     -1.81082     -1.93374     -2.00509
    2     1.0500     -1.80658     -1.92346     -1.99060
    3     1.1000     -1.80222     -1.91393     -1.97750
    4     1.1500     -1.79792     -1.90538     -1.96600
    5     1.2000     -1.79380     -1.89792     -1.95623
    6     1.2500     -1.78994     -1.89160     -1.94817
    7     1.3000     -1.78641     -1.88638     -1.94174
    8     1.3500     -1.78322     -1.88217     -1.93676
    9     1.4000     -1.78038     -1.87884     -1.93304
   10     1.4500     -1.77788     -1.87627     -1.93036
   11     1.5000     -1.77571     -1.87432     -1.92853
   12     1.5500     -1.77382     -1.87285     -1.92734
   13     1.6000     -1.77220     -1.87178     -1.92665
   14     1.6500     -1.77082     -1.87099     -1.92631
   15     1.7000     -1.76964     -1.87043     -1.92622
   16     1.7500     -1.76865     -1.87003     -1.92630
   17     1.8000     -1.76781     -1.86974     -1.92648
   18     1.8500     -1.76710     -1.86954     -1.92672
   19     1.9000     -1.76650     -1.86940     -1.92699
   20     1.9500     -1.76600     -1.86930     -1.92727
   21     2.0000     -1.76558     -1.86922     -1.92754
   22     2.0500     -1.76523     -1.86917     -1.92779
   23     2.1000     -1.76494     -1.86912     -1.92802
   24     2.1500     -1.76469     -1.86909     -1.92823
   25     2.2000     -1.76448     -1.86906     -1.92841
   26     2.2500     -1.76431     -1.86903     -1.92857
   27     2.3000     -1.76417     -1.86900     -1.92871
   28     2.3500     -1.76405     -1.86898     -1.92883
   29     2.4000     -1.76394     -1.86895     -1.92893
   30     2.4500     -1.76386     -1.86893     -1.92901
   31     2.5000     -1.76379     -1.86891     -1.92909
   32     2.5500     -1.76373     -1.86888     -1.92915
   33     2.6000     -1.76368     -1.86886     -1.92920
   34     2.6500     -1.76364     -1.86884     -1.92924
   35     2.7000     -1.76360     -1.86882     -1.92927
   36     2.7500     -1.76357     -1.86879     -1.92930
   37     2.8000     -1.76355     -1.86878     -1.92932
   38     2.8500     -1.76353     -1.86876     -1.92934
   39     2.9000     -1.76351     -1.86874     -1.92935
   40     2.9500     -1.76349     -1.86872     -1.92936
   41     3.0000     -1.76348     -1.86871     -1.92937
   42     3.0500     -1.76347     -1.86869     -1.92938
   43     3.1000     -1.76347     -1.86868     -1.92939
   44     3.1500     -1.76346     -1.86866     -1.92939
   45     3.2000     -1.76345     -1.86865     -1.92939
   46     3.2500     -1.76345     -1.86864     -1.92939
   47     3.3000     -1.76345     -1.86863     -1.92940
   48     3.3500     -1.76344     -1.86862     -1.92940
   49     3.4000     -1.76344     -1.86861     -1.92940
   50     3.4500     -1.76344     -1.86860     -1.92940
   51     3.5000     -1.76344     -1.86859     -1.92940
   52     3.5500     -1.76344     -1.86859     -1.92940
   53     3.6000     -1.76344     -1.86858     -1.92940
   54     3.6500     -1.76344     -1.86857     -1.92940
   55     3.7000     -1.76344     -1.86857     -1.92940
   56     3.7500     -1.76344     -1.86856     -1.92940
   57     3.8000     -1.76344     -1.86856     -1.92939
   58     3.8500     -1.76344     -1.86855     -1.92939
   59     3.9000     -1.76344     -1.86855     -1.92939
   60     3.9500     -1.76344     -1.86855     -1.92939
   61     4.0000     -1.76344     -1.86854     -1.92939
 ----  ---------  -----------  -----------  -----------
  

 Test job not archived.
 1\1\GINC-SULU\Scan\UQCISD(TQ)-FC\STO-3G\H4\LCJ1\05-Dec-2016\1\\#T qcis
 d(tq)/sto-3g scan test\\linear D4 model pes scan over varying h2-h3 bo
 nd length using ump4 with mbs\\0,1\H\H,1,a\H,2,R,1,deltaPlus2pi\H,3,a,
 2,deltaPlus2pi,1,0.,0\\R=1.,s,60,0.05\a=1.6\deltaPlus2pi=180.\\Version
 =ES64L-G09RevE.01\HF=-1.8108178,-1.8065817,-1.8022232,-1.7979199,-1.79
 37985,-1.7899447,-1.7864106,-1.7832216,-1.7803827,-1.777884,-1.7757057
 ,-1.7738217,-1.7722031,-1.7708202,-1.7696441,-1.7686476,-1.7678061,-1.
 7670971,-1.7665011,-1.7660008,-1.7655814,-1.7652301,-1.764936,-1.76468
 99,-1.7644839,-1.7643114,-1.764167,-1.764046,-1.7639446,-1.7638595,-1.
 7637882,-1.7637283,-1.7636781,-1.763636,-1.7636007,-1.7635711,-1.76354
 64,-1.7635259,-1.7635088,-1.7634946,-1.7634829,-1.7634733,-1.7634655,-
 1.7634592,-1.7634542,-1.7634502,-1.7634471,-1.7634448,-1.7634431,-1.76
 34419,-1.7634411,-1.7634406,-1.7634404,-1.7634405,-1.7634407,-1.763441
 ,-1.7634415,-1.7634421,-1.7634427,-1.7634433,-1.763444\MP2=-1.9337437,
 -1.9234645,-1.9139327,-1.905376,-1.8979198,-1.8915999,-1.886379,-1.882
 1673,-1.8788432,-1.876271,-1.8743161,-1.8728542,-1.8717766,-1.8709926,
 -1.8704283,-1.8700261,-1.8697412,-1.86954,-1.8693978,-1.8692962,-1.869
 2224,-1.869167,-1.8691237,-1.8690881,-1.8690573,-1.8690294,-1.8690032,
 -1.8689779,-1.8689533,-1.8689291,-1.8689054,-1.8688821,-1.8688593,-1.8
 688371,-1.8688156,-1.868795,-1.8687752,-1.8687563,-1.8687384,-1.868721
 5,-1.8687055,-1.8686906,-1.8686765,-1.8686634,-1.8686512,-1.8686399,-1
 .8686293,-1.8686196,-1.8686105,-1.8686021,-1.8685943,-1.8685871,-1.868
 5805,-1.8685743,-1.8685686,-1.8685633,-1.8685584,-1.8685538,-1.8685496
 ,-1.8685457,-1.868542\MP3=-2.0050886,-1.9906018,-1.9774952,-1.9660024,
 -1.9562306,-1.9481744,-1.9417377,-1.9367587,-1.9330383,-1.9303638,-1.9
 285285,-1.9273449,-1.9266508,-1.9263124,-1.926223,-1.9263003,-1.926482
 4,-1.9267244,-1.9269943,-1.9272705,-1.9275389,-1.9277906,-1.9280209,-1
 .9282277,-1.9284107,-1.9285706,-1.928709,-1.9288277,-1.9289288,-1.9290
 143,-1.9290862,-1.9291462,-1.9291961,-1.9292373,-1.929271,-1.9292986,-
 1.9293209,-1.9293389,-1.9293533,-1.9293646,-1.9293735,-1.9293804,-1.92
 93856,-1.9293896,-1.9293924,-1.9293945,-1.9293958,-1.9293967,-1.929397
 1,-1.9293973,-1.9293972,-1.9293969,-1.9293966,-1.9293961,-1.9293956,-1
 .929395,-1.9293945,-1.9293939,-1.9293934,-1.9293928,-1.9293923\MP4D=-2
 .0602558,-2.0427448,-2.0268162,-2.0126947,-2.0004951,-1.9902323,-1.981
 835,-1.9751633,-1.9700292,-1.9662179,-1.9635068,-1.9616818,-1.9605477,
 -1.959935,-1.9597021,-1.9597348,-1.9599441,-1.9602622,-1.9606395,-1.96
 10409,-1.9614419,-1.9618269,-1.9621864,-1.962515,-1.9628109,-1.9630739
 ,-1.9633055,-1.9635078,-1.9636833,-1.9638346,-1.9639646,-1.9640757,-1.
 9641704,-1.9642509,-1.964319,-1.9643766,-1.9644251,-1.964466,-1.964500
 4,-1.9645292,-1.9645534,-1.9645737,-1.9645907,-1.964605,-1.964617,-1.9
 646271,-1.9646356,-1.9646428,-1.9646488,-1.964654,-1.9646584,-1.964662
 1,-1.9646654,-1.9646682,-1.9646706,-1.9646728,-1.9646746,-1.9646763,-1
 .9646778,-1.9646791,-1.9646803\MP4DQ=-2.0407089,-2.0264003,-2.0130792,
 -2.0010421,-1.9904812,-1.9814875,-1.9740598,-1.9681193,-1.9635298,-1.9
 601185,-1.9576972,-1.9560787,-1.9550889,-1.9545748,-1.9544074,-1.95448
 2,-1.9547165,-1.9550486,-1.9554325,-1.9558355,-1.9562353,-1.9566175,-1
 .9569734,-1.9572984,-1.9575907,-1.9578507,-1.9580796,-1.9582797,-1.958
 4535,-1.9586038,-1.958733,-1.9588437,-1.9589383,-1.9590189,-1.9590875,
 -1.9591456,-1.9591949,-1.9592366,-1.9592719,-1.9593016,-1.9593268,-1.9
 593481,-1.9593661,-1.9593814,-1.9593944,-1.9594054,-1.9594148,-1.95942
 29,-1.9594298,-1.9594358,-1.9594409,-1.9594454,-1.9594494,-1.9594529,-
 1.9594559,-1.9594587,-1.9594611,-1.9594633,-1.9594653,-1.9594671,-1.95
 94688\QCISD(TQ)=-2.0285925,-2.0182327,-2.0077608,-1.9977043,-1.9885833
 ,-1.9808303,-1.9747019,-1.9702308,-1.9672451,-1.9654458,-1.9645005,-1.
 9641149,-1.9640658,-1.9642023,-1.9644305,-1.9646956,-1.9649664,-1.9652
 262,-1.9654661,-1.9656822,-1.9658736,-1.966041,-1.9661858,-1.9663102,-
 1.9664164,-1.9665065,-1.9665828,-1.9666469,-1.9667007,-1.9667457,-1.96
 67831,-1.9668142,-1.9668398,-1.9668608,-1.966878,-1.966892,-1.9669033,
 -1.9669124,-1.9669197,-1.9669254,-1.96693,-1.9669335,-1.9669363,-1.966
 9384,-1.96694,-1.9669412,-1.9669421,-1.9669427,-1.9669432,-1.9669435,-
 1.9669437,-1.9669438,-1.9669439,-1.9669439,-1.9669439,-1.9669439,-1.96
 69439,-1.9669439,-1.9669438,-1.9669438,-1.9669438\PUHF=-1.8108178,-1.8
 065817,-1.8022232,-1.7979199,-1.7937985,-1.7899447,-1.7864106,-1.78322
 16,-1.7803827,-1.777884,-1.7757057,-1.7738217,-1.7722031,-1.7708202,-1
 .7696441,-1.7686476,-1.7678061,-1.7670971,-1.7665011,-1.7660008,-1.765
 5814,-1.7652301,-1.764936,-1.7646899,-1.7644839,-1.7643114,-1.764167,-
 1.764046,-1.7639446,-1.7638595,-1.7637882,-1.7637283,-1.7636781,-1.763
 636,-1.7636007,-1.7635711,-1.7635464,-1.7635259,-1.7635088,-1.7634946,
 -1.7634829,-1.7634733,-1.7634655,-1.7634592,-1.7634542,-1.7634502,-1.7
 634471,-1.7634448,-1.7634431,-1.7634419,-1.7634411,-1.7634406,-1.76344
 04,-1.7634405,-1.7634407,-1.763441,-1.7634415,-1.7634421,-1.7634427,-1
 .7634433,-1.763444\PMP2-0=-1.9337437,-1.9234645,-1.9139327,-1.905376,-
 1.8979198,-1.8915999,-1.886379,-1.8821673,-1.8788432,-1.876271,-1.8743
 161,-1.8728542,-1.8717766,-1.8709926,-1.8704283,-1.8700261,-1.8697412,
 -1.86954,-1.8693978,-1.8692962,-1.8692224,-1.869167,-1.8691237,-1.8690
 881,-1.8690573,-1.8690294,-1.8690032,-1.8689779,-1.8689533,-1.8689291,
 -1.8689054,-1.8688821,-1.8688593,-1.8688371,-1.8688156,-1.868795,-1.86
 87752,-1.8687563,-1.8687384,-1.8687215,-1.8687055,-1.8686906,-1.868676
 5,-1.8686634,-1.8686512,-1.8686399,-1.8686293,-1.8686196,-1.8686105,-1
 .8686021,-1.8685943,-1.8685871,-1.8685805,-1.8685743,-1.8685686,-1.868
 5633,-1.8685584,-1.8685538,-1.8685496,-1.8685457,-1.868542\PMP3-0=-2.0
 050886,-1.9906018,-1.9774952,-1.9660024,-1.9562306,-1.9481744,-1.94173
 77,-1.9367587,-1.9330383,-1.9303638,-1.9285285,-1.9273449,-1.9266508,-
 1.9263124,-1.926223,-1.9263003,-1.9264824,-1.9267244,-1.9269943,-1.927
 2705,-1.9275389,-1.9277906,-1.9280209,-1.9282277,-1.9284107,-1.9285706
 ,-1.928709,-1.9288277,-1.9289288,-1.9290143,-1.9290862,-1.9291462,-1.9
 291961,-1.9292373,-1.929271,-1.9292986,-1.9293209,-1.9293389,-1.929353
 3,-1.9293646,-1.9293735,-1.9293804,-1.9293856,-1.9293896,-1.9293924,-1
 .9293945,-1.9293958,-1.9293967,-1.9293971,-1.9293973,-1.9293972,-1.929
 3969,-1.9293966,-1.9293961,-1.9293956,-1.929395,-1.9293945,-1.9293939,
 -1.9293934,-1.9293928,-1.9293923\MP4SDQ=-2.046096,-2.0303402,-2.015738
 6,-2.0026602,-1.9913318,-1.9818404,-1.9741498,-1.9681272,-1.9635766,-1
 .9602709,-1.9579785,-1.9564826,-1.9555922,-1.9551468,-1.9550169,-1.955
 1015,-1.9553237,-1.9556273,-1.9559716,-1.9563287,-1.95668,-1.9570135,-
 1.9573224,-1.9576035,-1.9578555,-1.958079,-1.9582755,-1.9584471,-1.958
 5959,-1.9587244,-1.958835,-1.9589296,-1.9590105,-1.9590795,-1.9591381,
 -1.9591879,-1.9592301,-1.9592658,-1.9592961,-1.9593217,-1.9593434,-1.9
 593618,-1.9593774,-1.9593907,-1.959402,-1.9594116,-1.9594199,-1.959427
 ,-1.9594332,-1.9594385,-1.9594432,-1.9594473,-1.9594509,-1.9594541,-1.
 9594569,-1.9594595,-1.9594618,-1.9594639,-1.9594658,-1.9594675,-1.9594
 691\QCISD=-2.0363233,-2.0288782,-2.0213889,-2.0140482,-2.0070016,-2.00
 03613,-1.9942172,-1.9886434,-1.9836977,-1.9794184,-1.9758185,-1.972882
 5,-1.9705672,-1.968807,-1.9675224,-1.9666288,-1.9660442,-1.9656949,-1.
 9655182,-1.9654632,-1.9654901,-1.965569,-1.9656778,-1.9658011,-1.96592
 82,-1.9660523,-1.9661691,-1.9662762,-1.9663725,-1.9664579,-1.9665326,-
 1.9665974,-1.9666531,-1.9667007,-1.966741,-1.9667751,-1.9668037,-1.966
 8276,-1.9668476,-1.9668641,-1.9668778,-1.9668891,-1.9668984,-1.9669061
 ,-1.9669123,-1.9669175,-1.9669217,-1.9669251,-1.9669279,-1.9669302,-1.
 9669321,-1.9669337,-1.966935,-1.9669361,-1.966937,-1.9669377,-1.966938
 4,-1.9669389,-1.9669394,-1.9669398,-1.9669401\QCISD(T)=-2.0377563,-2.0
 299917,-2.0221686,-2.0145167,-2.0072184,-2.0004148,-1.9942099,-1.98867
 36,-1.9838436,-1.9797281,-1.9763082,-1.973541,-1.971364,-1.9697014,-1.
 9684714,-1.9675927,-1.96699,-1.9665976,-1.9663604,-1.9662347,-1.966186
 1,-1.9661889,-1.9662242,-1.9662785,-1.9663423,-1.9664091,-1.966475,-1.
 9665371,-1.9665942,-1.9666456,-1.9666911,-1.9667308,-1.9667651,-1.9667
 945,-1.9668195,-1.9668405,-1.9668582,-1.966873,-1.9668852,-1.9668953,-
 1.9669036,-1.9669105,-1.9669161,-1.9669206,-1.9669244,-1.9669274,-1.96
 69299,-1.9669319,-1.9669335,-1.9669349,-1.966936,-1.9669369,-1.9669376
 ,-1.9669383,-1.9669388,-1.9669392,-1.9669396,-1.96694,-1.9669403,-1.96
 69406,-1.9669408\S2=0.,0.,0.,0.,0.,0.,0.,0.,0.,0.,0.,0.,0.,0.,0.,0.,0.
 ,0.,0.,0.,0.,0.,0.,0.,0.,0.,0.,0.,0.,0.,0.,0.,0.,0.,0.,0.,0.,0.,0.,0.,
 0.,0.,0.,0.,0.,0.,0.,0.,0.,0.,0.,0.,0.,0.,0.,0.,0.,0.,0.,0.,0.\S2-1=0.
 ,0.,0.,0.,0.,0.,0.,0.,0.,0.,0.,0.,0.,0.,0.,0.,0.,0.,0.,0.,0.,0.,0.,0.,
 0.,0.,0.,0.,0.,0.,0.,0.,0.,0.,0.,0.,0.,0.,0.,0.,0.,0.,0.,0.,0.,0.,0.,0
 .,0.,0.,0.,0.,0.,0.,0.,0.,0.,0.,0.,0.,0.\S2A=0.,0.,0.,0.,0.,0.,0.,0.,0
 .,0.,0.,0.,0.,0.,0.,0.,0.,0.,0.,0.,0.,0.,0.,0.,0.,0.,0.,0.,0.,0.,0.,0.
 ,0.,0.,0.,0.,0.,0.,0.,0.,0.,0.,0.,0.,0.,0.,0.,0.,0.,0.,0.,0.,0.,0.,0.,
 0.,0.,0.,0.,0.,0.\RMSD=6.205e-09,3.726e-10,1.104e-09,1.825e-09,2.409e-
 09,2.829e-09,2.915e-09,2.768e-09,2.455e-09,2.054e-09,1.635e-09,1.247e-
 09,9.186e-10,6.565e-10,4.575e-10,3.122e-10,2.094e-10,1.385e-10,9.046e-
 11,5.853e-11,3.758e-11,2.398e-11,1.522e-11,9.628e-12,6.072e-12,3.822e-
 12,1.674e-12,1.059e-12,6.698e-13,4.235e-13,2.675e-13,8.517e-09,6.447e-
 09,4.880e-09,3.692e-09,2.793e-09,2.112e-09,1.595e-09,1.203e-09,9.067e-
 10,6.822e-10,5.124e-10,3.841e-10,2.874e-10,2.146e-10,1.599e-10,1.189e-
 10,8.824e-11,6.533e-11,4.827e-11,3.560e-11,2.620e-11,1.925e-11,1.412e-
 11,1.034e-11,7.567e-12,5.529e-12,4.037e-12,2.945e-12,2.148e-12,1.322e-
 12\PG=D*H [C*(H1H1.H1H1)]\\@


 THE VALUE OF PHILOSOPHY IS, IN FACT, TO BE SOUGHT LARGELY IN ITS
 VERY UNCERTAINTY.  THE MAN WHO HAS NO TINCTURE OF PHILOSOPHY GOES
 THROUGH LIFE IMPRISONED IN THE PREJUDICES DERIVED FROM COMMON SENSE,
 FROM THE HABITUAL BELIEFS OF HIS AGE OR HIS NATION, AND FROM
 CONVICTIONS WHICH HAVE GROWN UP IN HIS MIND WITHOUT THE CO-OPERATION
 OR CONSENT OF HIS DELIBERATE REASON.  TO SUCH A MAN THE WORLD TENDS
 TO BE DEFINITE, FINITE, OBVIOUS; COMMON OBJECTS ROUSE NO QUESTIONS,
 AND UNFAMILIAR POSSIBILITIES ARE CONTEMPTUOUSLY REJECTED.

                             -- BERTRAND RUSSELL
 Job cpu time:       0 days  0 hours  0 minutes 34.4 seconds.
 File lengths (MBytes):  RWF=    142 Int=      0 D2E=      0 Chk=      2 Scr=      2
 Normal termination of Gaussian 09 at Mon Dec  5 12:38:46 2016.
