 Entering Gaussian System, Link 0=g09
 AtFile(1): H.gbs
            H     0
            S   10   1.00
               1000.000000000000            0.000068713567
                316.227766000000            0.000169141320
                100.000000000000            0.000823394812
                 31.622776600000            0.003425569236
                 10.000000000000            0.013951996000
                  3.162277660000            0.056909313560
                  1.000000000000            0.198286399900
                  0.316227766000            0.496922426700
                  0.100000000000            0.369846276400
                  0.031622776600            0.003752720039
            ****
 Initial command:
 /projects/guscus/apps/gau/g09-e1/g09/l1.exe "/users/lcj1/gaussian/h12/rhfstability/cross/guessfrommix/alpha15/Gau-17697.inp" -scrdir="/users/lcj1/gaussian/h12/rhfstability/cross/guessfrommix/alpha15/"
 Entering Link 1 = /projects/guscus/apps/gau/g09-e1/g09/l1.exe PID=     17698.
  
 Copyright (c) 1988,1990,1992,1993,1995,1998,2003,2009,2015,
            Gaussian, Inc.  All Rights Reserved.
  
 This is part of the Gaussian(R) 09 program.  It is based on
 the Gaussian(R) 03 system (copyright 2003, Gaussian, Inc.),
 the Gaussian(R) 98 system (copyright 1998, Gaussian, Inc.),
 the Gaussian(R) 94 system (copyright 1995, Gaussian, Inc.),
 the Gaussian 92(TM) system (copyright 1992, Gaussian, Inc.),
 the Gaussian 90(TM) system (copyright 1990, Gaussian, Inc.),
 the Gaussian 88(TM) system (copyright 1988, Gaussian, Inc.),
 the Gaussian 86(TM) system (copyright 1986, Carnegie Mellon
 University), and the Gaussian 82(TM) system (copyright 1983,
 Carnegie Mellon University). Gaussian is a federally registered
 trademark of Gaussian, Inc.
  
 This software contains proprietary and confidential information,
 including trade secrets, belonging to Gaussian, Inc.
  
 This software is provided under written license and may be
 used, copied, transmitted, or stored only in accord with that
 written license.
  
 The following legend is applicable only to US Government
 contracts under FAR:
  
                    RESTRICTED RIGHTS LEGEND
  
 Use, reproduction and disclosure by the US Government is
 subject to restrictions as set forth in subparagraphs (a)
 and (c) of the Commercial Computer Software - Restricted
 Rights clause in FAR 52.227-19.
  
 Gaussian, Inc.
 340 Quinnipiac St., Bldg. 40, Wallingford CT 06492
  
  
 ---------------------------------------------------------------
 Warning -- This program may not be used in any manner that
 competes with the business of Gaussian, Inc. or will provide
 assistance to any competitor of Gaussian, Inc.  The licensee
 of this program is prohibited from giving any competitor of
 Gaussian, Inc. access to this program.  By using this program,
 the user acknowledges that Gaussian, Inc. is engaged in the
 business of creating and licensing software in the field of
 computational chemistry and represents and warrants to the
 licensee that it is not a competitor of Gaussian, Inc. and that
 it will not use this program in any manner prohibited above.
 ---------------------------------------------------------------
  

 Cite this work as:
 Gaussian 09, Revision E.01,
 M. J. Frisch, G. W. Trucks, H. B. Schlegel, G. E. Scuseria, 
 M. A. Robb, J. R. Cheeseman, G. Scalmani, V. Barone, B. Mennucci, 
 G. A. Petersson, H. Nakatsuji, M. Caricato, X. Li, H. P. Hratchian, 
 A. F. Izmaylov, J. Bloino, G. Zheng, J. L. Sonnenberg, M. Hada, 
 M. Ehara, K. Toyota, R. Fukuda, J. Hasegawa, M. Ishida, T. Nakajima, 
 Y. Honda, O. Kitao, H. Nakai, T. Vreven, J. A. Montgomery, Jr., 
 J. E. Peralta, F. Ogliaro, M. Bearpark, J. J. Heyd, E. Brothers, 
 K. N. Kudin, V. N. Staroverov, T. Keith, R. Kobayashi, J. Normand, 
 K. Raghavachari, A. Rendell, J. C. Burant, S. S. Iyengar, J. Tomasi, 
 M. Cossi, N. Rega, J. M. Millam, M. Klene, J. E. Knox, J. B. Cross, 
 V. Bakken, C. Adamo, J. Jaramillo, R. Gomperts, R. E. Stratmann, 
 O. Yazyev, A. J. Austin, R. Cammi, C. Pomelli, J. W. Ochterski, 
 R. L. Martin, K. Morokuma, V. G. Zakrzewski, G. A. Voth, 
 P. Salvador, J. J. Dannenberg, S. Dapprich, A. D. Daniels, 
 O. Farkas, J. B. Foresman, J. V. Ortiz, J. Cioslowski, 
 and D. J. Fox, Gaussian, Inc., Wallingford CT, 2013.
 
 ******************************************
 Gaussian 09:  ES64L-G09RevE.01 30-Nov-2015
                17-Feb-2017 
 ******************************************
 %chk=h12.chk
 ----------------------------------------------------------------------
 #rhf/gen scf(symm,tight,novaracc,noincfock,fulldiag) stable(crhf) gues
 s=read geom=nocrowd test
 ----------------------------------------------------------------------
 1/38=1/1;
 2/12=1,17=6,18=5,40=1/2;
 3/5=7,16=1,25=1,30=1,116=1/1,2,3;
 4/5=1,9=4/1;
 5/5=100002,15=2,16=1,32=2,38=6/2;
 8/6=1,10=90,11=11/1,4;
 9/8=4,13=1/2;
 6/7=2,8=2,9=2,10=2,28=1/1;
 99/5=1,9=1/99;
 ----------------------------------------------------------------------
 hf stability analysis of h10 triangular lattice, y= 1.1954046164231349
 ----------------------------------------------------------------------
 Symbolic Z-matrix:
 Charge =  0 Multiplicity = 1
 H
 H                    1     1.28929 
 H                    1     1.28929  2     44. 
 H                    2     1.28929  1     136.     3     0.       0
 H                    4     1.28929  2     180.     3     0.       0
 H                    5     1.28929  4     180.     3     0.       0
 H                    3     1.28929  1     180.     4     0.       0
 H                    7     1.28929  3     180.     4     0.       0
 H                    3     1.28929  4     180.     1     0.       0
 H                    7     1.28929  5     180.     3     0.       0
 H                    4     1.28929  3     180.     1     0.       0
 H                    5     1.28929  7     180.     3     0.       0
 
                          Input orientation:                          
 ---------------------------------------------------------------------
 Center     Atomic      Atomic             Coordinates (Angstroms)
 Number     Number       Type             X           Y           Z
 ---------------------------------------------------------------------
      1          1           0        0.000000    0.000000    0.000000
      2          1           0        0.000000    0.000000    1.289285
      3          1           0        0.895613    0.000000    0.927434
      4          1           0        0.895613    0.000000    2.216720
      5          1           0        1.791226    0.000000    3.144154
      6          1           0        2.686839    0.000000    4.071588
      7          1           0        1.791226    0.000000    1.854869
      8          1           0        2.686839    0.000000    2.782303
      9          1           0        0.895613    0.000000   -0.361851
     10          1           0        1.791226    0.000000    0.565583
     11          1           0        0.895613    0.000000    3.506005
     12          1           0        1.791226    0.000000    4.433439
 ---------------------------------------------------------------------
                    Distance matrix (angstroms):
                    1          2          3          4          5
     1  H    0.000000
     2  H    1.289285   0.000000
     3  H    1.289285   0.965950   0.000000
     4  H    2.390809   1.289285   1.289285   0.000000
     5  H    3.618590   2.578571   2.390809   1.289285   0.000000
     6  H    4.878210   3.867856   3.618590   2.578571   1.289285
     7  H    2.578571   1.878397   1.289285   0.965950   1.289285
     8  H    3.867856   3.073793   2.578571   1.878397   0.965950
     9  H    0.965950   1.878397   1.289285   2.578571   3.618590
    10  H    1.878397   1.931899   0.965950   1.878397   2.578571
    11  H    3.618590   2.390809   2.578571   1.289285   0.965950
    12  H    4.781618   3.618590   3.618590   2.390809   1.289285
                    6          7          8          9         10
     6  H    0.000000
     7  H    2.390809   0.000000
     8  H    1.289285   1.289285   0.000000
     9  H    4.781618   2.390809   3.618590   0.000000
    10  H    3.618590   1.289285   2.390809   1.289285   0.000000
    11  H    1.878397   1.878397   1.931899   3.867856   3.073793
    12  H    0.965950   2.578571   1.878397   4.878210   3.867856
                   11         12
    11  H    0.000000
    12  H    1.289285   0.000000
 Stoichiometry    H12
 Framework group  D2H[C2'(H.H),C2"(H.H),SG(H8)]
 Deg. of freedom     6
 Full point group                 D2H     NOp   8
 Largest Abelian subgroup         D2H     NOp   8
 Largest concise Abelian subgroup D2      NOp   4
                         Standard orientation:                         
 ---------------------------------------------------------------------
 Center     Atomic      Atomic             Coordinates (Angstroms)
 Number     Number       Type             X           Y           Z
 ---------------------------------------------------------------------
      1          1           0        0.000000    0.482975    2.390809
      2          1           0        0.000000    0.965950    1.195405
      3          1           0       -0.000000   -0.000000    1.195405
      4          1           0        0.000000    0.482975    0.000000
      5          1           0        0.000000    0.000000   -1.195405
      6          1           0       -0.000000   -0.482975   -2.390809
      7          1           0       -0.000000   -0.482975   -0.000000
      8          1           0       -0.000000   -0.965950   -1.195405
      9          1           0       -0.000000   -0.482975    2.390809
     10          1           0       -0.000000   -0.965950    1.195405
     11          1           0        0.000000    0.965950   -1.195405
     12          1           0        0.000000    0.482975   -2.390809
 ---------------------------------------------------------------------
 Rotational constants (GHZ):     97.7148148     15.9506919     13.7123297
 General basis read from cards:  (5D, 7F)
 There are     4 symmetry adapted cartesian basis functions of AG  symmetry.
 There are     0 symmetry adapted cartesian basis functions of B1G symmetry.
 There are     0 symmetry adapted cartesian basis functions of B2G symmetry.
 There are     2 symmetry adapted cartesian basis functions of B3G symmetry.
 There are     0 symmetry adapted cartesian basis functions of AU  symmetry.
 There are     3 symmetry adapted cartesian basis functions of B1U symmetry.
 There are     3 symmetry adapted cartesian basis functions of B2U symmetry.
 There are     0 symmetry adapted cartesian basis functions of B3U symmetry.
 There are     4 symmetry adapted basis functions of AG  symmetry.
 There are     0 symmetry adapted basis functions of B1G symmetry.
 There are     0 symmetry adapted basis functions of B2G symmetry.
 There are     2 symmetry adapted basis functions of B3G symmetry.
 There are     0 symmetry adapted basis functions of AU  symmetry.
 There are     3 symmetry adapted basis functions of B1U symmetry.
 There are     3 symmetry adapted basis functions of B2U symmetry.
 There are     0 symmetry adapted basis functions of B3U symmetry.
    12 basis functions,   120 primitive gaussians,    12 cartesian basis functions
     6 alpha electrons        6 beta electrons
       nuclear repulsion energy        18.8943739140 Hartrees.
 NAtoms=   12 NActive=   12 NUniq=    4 SFac= 4.00D+00 NAtFMM=   60 NAOKFM=F Big=F
 Integral buffers will be    131072 words long.
 Regular integral format.
 Two-electron integral symmetry is turned on.
 One-electron integrals computed using PRISM.
 NBasis=    12 RedAO= T EigKep=  1.58D-01  NBF=     4     0     0     2     0     3     3     0
 NBsUse=    12 1.00D-06 EigRej= -1.00D+00 NBFU=     4     0     0     2     0     3     3     0
 Initial guess from the checkpoint file:  "h12.chk"
 B after Tr=     0.000000    0.000000    0.000000
         Rot=    0.000000    0.000000    0.707107    0.707107 Ang= 180.00 deg.
 Initial guess orbital symmetries:
       Occupied  (AG) (B2U) (AG) (B2U) (AG) (B1U)
       Virtual   (B3G) (B1U) (B3G) (B1U) (AG) (B2U)
 Keep R1 ints in memory in symmetry-blocked form, NReq=902138.
 Requested convergence on RMS density matrix=1.00D-08 within 128 cycles.
 Requested convergence on MAX density matrix=1.00D-06.
 Requested convergence on             energy=1.00D-06.
 No special actions if energy rises.
 SCF Done:  E(RHF) =  -4.69229255155     A.U. after   12 cycles
            NFock= 12  Conv=0.72D-08     -V/T= 1.6106
 Range of M.O.s used for correlation:     1    12
 NBasis=    12 NAE=     6 NBE=     6 NFC=     0 NFV=     0
 NROrb=     12 NOA=     6 NOB=     6 NVA=     6 NVB=     6

 **** Warning!!: The smallest alpha delta epsilon is -0.22457729D+00

 Semi-Direct transformation.
 ModeAB=           4 MOrb=             6 LenV=     134085209
 LASXX=         2181 LTotXX=        2181 LenRXX=        5115
 LTotAB=        2934 MaxLAS=        1800 LenRXY=           0
 NonZer=        7296 LenScr=      655360 LnRSAI=        1800
 LnScr1=      655360 LExtra=           0 Total=      1317635
 MaxDsk=          -1 SrtSym=           T ITran=            3
 JobTyp=0 Pass  1:  I=   1 to   6.
 (rs|ai) integrals will be sorted in core.
 Spin components of T(2) and E(2):
     alpha-alpha T2 =       0.3400560317D+00 E2=     -0.6511115103D-01
     alpha-beta  T2 =       0.6638052865D+01 E2=     -0.6340154242D+00
     beta-beta   T2 =       0.3400560317D+00 E2=     -0.6511115103D-01
 ANorm=    0.2884122905D+01
 E2 =    -0.7642377263D+00 EUMP2 =    -0.54565302778329D+01
 Second order stability test of a single determinant RHF wave function:
 Stabil:  MDV=134217728
 ***********************************************************************
 Matrix         Lowest Root    Major Pairs
 ***********************************************************************
 Internal RHF    -0.4651007    6A=8A 5A=7A
 RRHF --> CRHF   -0.5003345    6A=7A
 RRHF --> RUHF   -0.6328499    6A=7B 5A=8B 3A=9B 5A=9B 3A=8B
 Not stable.
 ***********************************************************************

 **********************************************************************

            Population analysis using the SCF density.

 **********************************************************************

 Orbital symmetries:
       Occupied  (AG) (B1U) (AG) (B2U) (AG) (B2U)
       Virtual   (B1U) (B3G) (B3G) (AG) (B1U) (B2U)
 The electronic state is 1-AG.
 Alpha  occ. eigenvalues --   -0.84228  -0.76232  -0.51347  -0.43118  -0.10134
 Alpha  occ. eigenvalues --    0.05114
 Alpha virt. eigenvalues --   -0.17344  -0.17069   0.34237   0.40372   0.47739
 Alpha virt. eigenvalues --    0.66660
          Condensed to atoms (all electrons):
               1          2          3          4          5          6
     1  H    1.642371  -0.078166  -0.050076  -0.092094  -0.007989  -0.002108
     2  H   -0.078166   0.775473   0.334952  -0.128820   0.035458  -0.005766
     3  H   -0.050076   0.334952   0.815965  -0.265172   0.043273  -0.007989
     4  H   -0.092094  -0.128820  -0.265172   2.340605  -0.265172   0.118998
     5  H   -0.007989   0.035458   0.043273  -0.265172   0.815965  -0.050076
     6  H   -0.002108  -0.005766  -0.007989   0.118998  -0.050076   1.642371
     7  H    0.118998  -0.208658  -0.265172   0.228179  -0.265172  -0.092094
     8  H   -0.005766  -0.001920   0.035458  -0.208658   0.334952  -0.078166
     9  H   -0.395262  -0.067759  -0.050076   0.118998  -0.007989   0.005277
    10  H   -0.067759   0.009680   0.334952  -0.208658   0.035458  -0.006085
    11  H   -0.006085   0.094830   0.035458  -0.128820   0.334952  -0.067759
    12  H    0.005277  -0.006085  -0.007989  -0.092094  -0.050076  -0.395262
               7          8          9         10         11         12
     1  H    0.118998  -0.005766  -0.395262  -0.067759  -0.006085   0.005277
     2  H   -0.208658  -0.001920  -0.067759   0.009680   0.094830  -0.006085
     3  H   -0.265172   0.035458  -0.050076   0.334952   0.035458  -0.007989
     4  H    0.228179  -0.208658   0.118998  -0.208658  -0.128820  -0.092094
     5  H   -0.265172   0.334952  -0.007989   0.035458   0.334952  -0.050076
     6  H   -0.092094  -0.078166   0.005277  -0.006085  -0.067759  -0.395262
     7  H    2.340605  -0.128820  -0.092094  -0.128820  -0.208658   0.118998
     8  H   -0.128820   0.775473  -0.006085   0.094830   0.009680  -0.067759
     9  H   -0.092094  -0.006085   1.642371  -0.078166  -0.005766  -0.002108
    10  H   -0.128820   0.094830  -0.078166   0.775473  -0.001920  -0.005766
    11  H   -0.208658   0.009680  -0.005766  -0.001920   0.775473  -0.078166
    12  H    0.118998  -0.067759  -0.002108  -0.005766  -0.078166   1.642371
 Mulliken charges:
               1
     1  H   -0.061341
     2  H    0.246780
     3  H    0.046414
     4  H   -0.417293
     5  H    0.046414
     6  H   -0.061341
     7  H   -0.417293
     8  H    0.246780
     9  H   -0.061341
    10  H    0.246780
    11  H    0.246780
    12  H   -0.061341
 Sum of Mulliken charges =  -0.00000
 Mulliken charges with hydrogens summed into heavy atoms:
               1
 Electronic spatial extent (au):  <R**2>=            166.0623
 Charge=             -0.0000 electrons
 Dipole moment (field-independent basis, Debye):
    X=             -0.0000    Y=             -0.0000    Z=             -0.0000  Tot=              0.0000
 Quadrupole moment (field-independent basis, Debye-Ang):
   XX=            -14.4904   YY=            -14.1862   ZZ=            -19.0314
   XY=             -0.0000   XZ=              0.0000   YZ=              0.0000
 Traceless Quadrupole moment (field-independent basis, Debye-Ang):
   XX=              1.4123   YY=              1.7164   ZZ=             -3.1287
   XY=             -0.0000   XZ=              0.0000   YZ=              0.0000
 Octapole moment (field-independent basis, Debye-Ang**2):
  XXX=             -0.0000  YYY=             -0.0000  ZZZ=             -0.0000  XYY=             -0.0000
  XXY=             -0.0000  XXZ=             -0.0000  XZZ=             -0.0000  YZZ=              0.0000
  YYZ=             -0.0000  XYZ=              0.0000
 Hexadecapole moment (field-independent basis, Debye-Ang**3):
 XXXX=            -16.8568 YYYY=            -54.6941 ZZZZ=           -335.2040 XXXY=             -0.0000
 XXXZ=              0.0000 YYYX=             -0.0000 YYYZ=              0.0000 ZZZX=              0.0000
 ZZZY=             -0.0000 XXYY=            -12.3493 XXZZ=            -45.6606 YYZZ=            -56.7600
 XXYZ=             -0.0000 YYXZ=              0.0000 ZZXY=             -0.0000
 N-N= 1.889437391402D+01 E-N=-4.965927235118D+01  KE= 7.684829888529D+00
 Symmetry AG   KE= 3.783792771206D+00
 Symmetry B1G  KE= 0.000000000000D+00
 Symmetry B2G  KE= 0.000000000000D+00
 Symmetry B3G  KE= 2.125249616198D-16
 Symmetry AU   KE= 0.000000000000D+00
 Symmetry B1U  KE= 6.669728123662D-01
 Symmetry B2U  KE= 3.234064304956D+00
 Symmetry B3U  KE= 0.000000000000D+00

 Test job not archived.
 1\1\GINC-SULU\Stability\RHF\Gen\H12\LCJ1\17-Feb-2017\0\\#rhf/gen scf(s
 ymm,tight,novaracc,noincfock,fulldiag) stable(crhf) guess=read geom=no
 crowd test\\hf stability analysis of h10 triangular lattice, y= 1.1954
 046164231349\\0,1\H\H,1,1.2892853932\H,1,1.2892853932,2,44.\H,2,1.2892
 853932,1,136.,3,0.,0\H,4,1.2892853932,2,180.,3,0.,0\H,5,1.2892853932,4
 ,180.,3,0.,0\H,3,1.2892853932,1,180.,4,0.,0\H,7,1.2892853932,3,180.,4,
 0.,0\H,3,1.2892853932,4,180.,1,0.,0\H,7,1.2892853932,5,180.,3,0.,0\H,4
 ,1.2892853932,3,180.,1,0.,0\H,5,1.2892853932,7,180.,3,0.,0\\Version=ES
 64L-G09RevE.01\State=1-AG\HF=-4.6922926\MP2=-5.4565303\RMSD=7.236e-09\
 Dipole=0.,0.,0.\Quadrupole=0.7706235,1.0499982,-1.8206217,0.,-1.251168
 2,0.\PG=D02H [C2'(H1.H1),C2"(H1.H1),SG(H8)]\\@


 SACRED COWS MAKE GREAT HAMBURGERS -- ROBERT REISNER
 Job cpu time:       0 days  0 hours  0 minutes  0.8 seconds.
 File lengths (MBytes):  RWF=     84 Int=      0 D2E=      0 Chk=      2 Scr=      2
 Normal termination of Gaussian 09 at Fri Feb 17 15:11:57 2017.
