 Entering Gaussian System, Link 0=g09
 AtFile(1): H.gbs
            H     0
            S   10   1.00
               1000.000000000000            0.000068713567
                316.227766000000            0.000169141320
                100.000000000000            0.000823394812
                 31.622776600000            0.003425569236
                 10.000000000000            0.013951996000
                  3.162277660000            0.056909313560
                  1.000000000000            0.198286399900
                  0.316227766000            0.496922426700
                  0.100000000000            0.369846276400
                  0.031622776600            0.003752720039
            ****
 Initial command:
 /projects/guscus/apps/gau/g09-e1/g09/l1.exe "/users/lcj1/gaussian/h10/rhfstability/2rows/zmat/guessfrommix/alpha25/fwd/Gau-18362.inp" -scrdir="/users/lcj1/gaussian/h10/rhfstability/2rows/zmat/guessfrommix/alpha25/fwd/"
 Entering Link 1 = /projects/guscus/apps/gau/g09-e1/g09/l1.exe PID=     18363.
  
 Copyright (c) 1988,1990,1992,1993,1995,1998,2003,2009,2015,
            Gaussian, Inc.  All Rights Reserved.
  
 This is part of the Gaussian(R) 09 program.  It is based on
 the Gaussian(R) 03 system (copyright 2003, Gaussian, Inc.),
 the Gaussian(R) 98 system (copyright 1998, Gaussian, Inc.),
 the Gaussian(R) 94 system (copyright 1995, Gaussian, Inc.),
 the Gaussian 92(TM) system (copyright 1992, Gaussian, Inc.),
 the Gaussian 90(TM) system (copyright 1990, Gaussian, Inc.),
 the Gaussian 88(TM) system (copyright 1988, Gaussian, Inc.),
 the Gaussian 86(TM) system (copyright 1986, Carnegie Mellon
 University), and the Gaussian 82(TM) system (copyright 1983,
 Carnegie Mellon University). Gaussian is a federally registered
 trademark of Gaussian, Inc.
  
 This software contains proprietary and confidential information,
 including trade secrets, belonging to Gaussian, Inc.
  
 This software is provided under written license and may be
 used, copied, transmitted, or stored only in accord with that
 written license.
  
 The following legend is applicable only to US Government
 contracts under FAR:
  
                    RESTRICTED RIGHTS LEGEND
  
 Use, reproduction and disclosure by the US Government is
 subject to restrictions as set forth in subparagraphs (a)
 and (c) of the Commercial Computer Software - Restricted
 Rights clause in FAR 52.227-19.
  
 Gaussian, Inc.
 340 Quinnipiac St., Bldg. 40, Wallingford CT 06492
  
  
 ---------------------------------------------------------------
 Warning -- This program may not be used in any manner that
 competes with the business of Gaussian, Inc. or will provide
 assistance to any competitor of Gaussian, Inc.  The licensee
 of this program is prohibited from giving any competitor of
 Gaussian, Inc. access to this program.  By using this program,
 the user acknowledges that Gaussian, Inc. is engaged in the
 business of creating and licensing software in the field of
 computational chemistry and represents and warrants to the
 licensee that it is not a competitor of Gaussian, Inc. and that
 it will not use this program in any manner prohibited above.
 ---------------------------------------------------------------
  

 Cite this work as:
 Gaussian 09, Revision E.01,
 M. J. Frisch, G. W. Trucks, H. B. Schlegel, G. E. Scuseria, 
 M. A. Robb, J. R. Cheeseman, G. Scalmani, V. Barone, B. Mennucci, 
 G. A. Petersson, H. Nakatsuji, M. Caricato, X. Li, H. P. Hratchian, 
 A. F. Izmaylov, J. Bloino, G. Zheng, J. L. Sonnenberg, M. Hada, 
 M. Ehara, K. Toyota, R. Fukuda, J. Hasegawa, M. Ishida, T. Nakajima, 
 Y. Honda, O. Kitao, H. Nakai, T. Vreven, J. A. Montgomery, Jr., 
 J. E. Peralta, F. Ogliaro, M. Bearpark, J. J. Heyd, E. Brothers, 
 K. N. Kudin, V. N. Staroverov, T. Keith, R. Kobayashi, J. Normand, 
 K. Raghavachari, A. Rendell, J. C. Burant, S. S. Iyengar, J. Tomasi, 
 M. Cossi, N. Rega, J. M. Millam, M. Klene, J. E. Knox, J. B. Cross, 
 V. Bakken, C. Adamo, J. Jaramillo, R. Gomperts, R. E. Stratmann, 
 O. Yazyev, A. J. Austin, R. Cammi, C. Pomelli, J. W. Ochterski, 
 R. L. Martin, K. Morokuma, V. G. Zakrzewski, G. A. Voth, 
 P. Salvador, J. J. Dannenberg, S. Dapprich, A. D. Daniels, 
 O. Farkas, J. B. Foresman, J. V. Ortiz, J. Cioslowski, 
 and D. J. Fox, Gaussian, Inc., Wallingford CT, 2013.
 
 ******************************************
 Gaussian 09:  ES64L-G09RevE.01 30-Nov-2015
                20-Feb-2017 
 ******************************************
 %chk=h10.chk
 ----------------------------------------------------------------------
 #rhf/gen scf(symm,tight,novaracc,noincfock,fulldiag) stable(crhf) gues
 s=read geom=nocrowd test
 ----------------------------------------------------------------------
 1/38=1/1;
 2/12=1,17=6,18=5,40=1/2;
 3/5=7,16=1,25=1,30=1,116=1/1,2,3;
 4/5=1,9=4/1;
 5/5=100002,15=2,16=1,32=2,38=6/2;
 8/6=1,10=90,11=11/1,4;
 9/8=4,13=1/2;
 6/7=2,8=2,9=2,10=2,28=1/1;
 99/5=1,9=1/99;
 ----------------------------------------------------------------------
 hf stability analysis of h10 triangular lattice, y= 0.9428899751596989
 7
 ----------------------------------------------------------------------
 Symbolic Z-matrix:
 Charge =  0 Multiplicity = 1
 H
 H                    1     1.12427 
 H                    1     1.12427  2     66. 
 H                    2     1.12427  1     114.     3     0.       0
 H                    3     1.12427  1     180.     2     0.       0
 H                    4     1.12427  2     180.     1     0.       0
 H                    5     1.12427  3     180.     2     0.       0
 H                    6     1.12427  4     180.     1     0.       0
 H                    7     1.12427  5     180.     2     0.       0
 H                    8     1.12427  6     180.     1     0.       0
 
                          Input orientation:                          
 ---------------------------------------------------------------------
 Center     Atomic      Atomic             Coordinates (Angstroms)
 Number     Number       Type             X           Y           Z
 ---------------------------------------------------------------------
      1          1           0        0.000000    0.000000    0.000000
      2          1           0        0.000000    0.000000    1.124267
      3          1           0        1.027069    0.000000    0.457281
      4          1           0        1.027069    0.000000    1.581548
      5          1           0        2.054139    0.000000    0.914561
      6          1           0        2.054139    0.000000    2.038829
      7          1           0        3.081208    0.000000    1.371842
      8          1           0        3.081208    0.000000    2.496110
      9          1           0        4.108277    0.000000    1.829123
     10          1           0        4.108277    0.000000    2.953390
 ---------------------------------------------------------------------
                    Distance matrix (angstroms):
                    1          2          3          4          5
     1  H    0.000000
     2  H    1.124267   0.000000
     3  H    1.124267   1.224640   0.000000
     4  H    1.885780   1.124267   1.124267   0.000000
     5  H    2.248535   2.064815   1.124267   1.224640   0.000000
     6  H    2.894185   2.248535   1.885780   1.124267   1.124267
     7  H    3.372802   3.091138   2.248535   2.064815   1.124267
     8  H    3.965401   3.372802   2.894185   2.248535   1.885780
     9  H    4.497070   4.168305   3.372802   3.091138   2.248535
    10  H    5.059689   4.497070   3.965401   3.372802   2.894185
                    6          7          8          9         10
     6  H    0.000000
     7  H    1.224640   0.000000
     8  H    1.124267   1.124267   0.000000
     9  H    2.064815   1.124267   1.224640   0.000000
    10  H    2.248535   1.885780   1.124267   1.124267   0.000000
 Stoichiometry    H10
 Framework group  C2H[SGH(H10)]
 Deg. of freedom     9
 Full point group                 C2H     NOp   4
 Largest Abelian subgroup         C2H     NOp   4
 Largest concise Abelian subgroup C2      NOp   2
                         Standard orientation:                         
 ---------------------------------------------------------------------
 Center     Atomic      Atomic             Coordinates (Angstroms)
 Number     Number       Type             X           Y           Z
 ---------------------------------------------------------------------
      1          1           0        2.054139    1.476695    0.000000
      2          1           0        2.054139    0.352428    0.000000
      3          1           0        1.027069    1.019414    0.000000
      4          1           0        1.027069   -0.104853    0.000000
      5          1           0        0.000000    0.562134    0.000000
      6          1           0       -0.000000   -0.562134    0.000000
      7          1           0       -1.027069    0.104853    0.000000
      8          1           0       -1.027069   -1.019414    0.000000
      9          1           0       -2.054139   -0.352428    0.000000
     10          1           0       -2.054139   -1.476695    0.000000
 ---------------------------------------------------------------------
 Rotational constants (GHZ):    194.5269667     19.3898982     17.6323549
 General basis read from cards:  (5D, 7F)
 There are     5 symmetry adapted cartesian basis functions of AG  symmetry.
 There are     0 symmetry adapted cartesian basis functions of BG  symmetry.
 There are     0 symmetry adapted cartesian basis functions of AU  symmetry.
 There are     5 symmetry adapted cartesian basis functions of BU  symmetry.
 There are     5 symmetry adapted basis functions of AG  symmetry.
 There are     0 symmetry adapted basis functions of BG  symmetry.
 There are     0 symmetry adapted basis functions of AU  symmetry.
 There are     5 symmetry adapted basis functions of BU  symmetry.
    10 basis functions,   100 primitive gaussians,    10 cartesian basis functions
     5 alpha electrons        5 beta electrons
       nuclear repulsion energy        13.4029906690 Hartrees.
 NAtoms=   10 NActive=   10 NUniq=    5 SFac= 4.00D+00 NAtFMM=   60 NAOKFM=F Big=F
 Integral buffers will be    131072 words long.
 Regular integral format.
 Two-electron integral symmetry is turned on.
 One-electron integrals computed using PRISM.
 NBasis=    10 RedAO= T EigKep=  1.65D-01  NBF=     5     0     0     5
 NBsUse=    10 1.00D-06 EigRej= -1.00D+00 NBFU=     5     0     0     5
 Initial guess from the checkpoint file:  "h10.chk"
 B after Tr=     0.000000    0.000000   -0.000000
         Rot=    0.999992    0.000000   -0.000000   -0.003879 Ang=  -0.44 deg.
 Initial guess orbital symmetries:
       Occupied  (AG) (BU) (AG) (BU) (BU)
       Virtual   (AG) (BU) (AG) (AG) (BU)
 Keep R1 ints in memory in symmetry-blocked form, NReq=879441.
 Requested convergence on RMS density matrix=1.00D-08 within 128 cycles.
 Requested convergence on MAX density matrix=1.00D-06.
 Requested convergence on             energy=1.00D-06.
 No special actions if energy rises.
 SCF Done:  E(RHF) =  -4.86605594562     A.U. after    8 cycles
            NFock=  8  Conv=0.50D-08     -V/T= 1.9511
 Range of M.O.s used for correlation:     1    10
 NBasis=    10 NAE=     5 NBE=     5 NFC=     0 NFV=     0
 NROrb=     10 NOA=     5 NOB=     5 NVA=     5 NVB=     5
 Semi-Direct transformation.
 ModeAB=           4 MOrb=             5 LenV=     134107148
 LASXX=         1030 LTotXX=        1030 LenRXX=        2480
 LTotAB=        1450 MaxLAS=        1500 LenRXY=           0
 NonZer=        3510 LenScr=      655360 LnRSAI=        1500
 LnScr1=      655360 LExtra=           0 Total=      1314700
 MaxDsk=          -1 SrtSym=           T ITran=            3
 JobTyp=0 Pass  1:  I=   1 to   5.
 (rs|ai) integrals will be sorted in core.
 Spin components of T(2) and E(2):
     alpha-alpha T2 =       0.6254764301D-02 E2=     -0.7655220065D-02
     alpha-beta  T2 =       0.7637708136D-01 E2=     -0.9716425890D-01
     beta-beta   T2 =       0.6254764301D-02 E2=     -0.7655220065D-02
 ANorm=    0.1043497298D+01
 E2 =    -0.1124746990D+00 EUMP2 =    -0.49785306446470D+01
 Second order stability test of a single determinant RHF wave function:
 Stabil:  MDV=134217728
 ***********************************************************************
 Matrix         Lowest Root    Major Pairs
 ***********************************************************************
 Internal RHF     0.0607065    Stable
 RRHF --> CRHF    0.0116149    Stable
 RRHF --> RUHF   -0.1013326    5A=6B
 Not stable.
 ***********************************************************************

 **********************************************************************

            Population analysis using the SCF density.

 **********************************************************************

 Orbital symmetries:
       Occupied  (AG) (BU) (AG) (BU) (BU)
       Virtual   (AG) (BU) (AG) (AG) (BU)
 The electronic state is 1-AG.
 Alpha  occ. eigenvalues --   -0.85150  -0.74043  -0.54902  -0.36605  -0.30175
 Alpha virt. eigenvalues --   -0.01457   0.22829   0.25826   0.54480   0.68191
          Condensed to atoms (all electrons):
               1          2          3          4          5          6
     1  H    1.014895   0.353092  -0.048292  -0.174179  -0.065832  -0.003305
     2  H    0.353092   0.656256  -0.050674  -0.023078  -0.111333   0.028623
     3  H   -0.048292  -0.050674   0.746241   0.101836   0.337302  -0.146427
     4  H   -0.174179  -0.023078   0.101836   1.189116   0.018072   0.187756
     5  H   -0.065832  -0.111333   0.337302   0.018072   0.995141  -0.216611
     6  H   -0.003305   0.028623  -0.146427   0.187756  -0.216611   0.995141
     7  H    0.017971  -0.004040  -0.012628  -0.185555   0.187756   0.018072
     8  H    0.004055   0.011687  -0.037820  -0.012628  -0.146427   0.337302
     9  H   -0.000433  -0.001131   0.011687  -0.004040   0.028623  -0.111333
    10  H   -0.000881  -0.000433   0.004055   0.017971  -0.003305  -0.065832
               7          8          9         10
     1  H    0.017971   0.004055  -0.000433  -0.000881
     2  H   -0.004040   0.011687  -0.001131  -0.000433
     3  H   -0.012628  -0.037820   0.011687   0.004055
     4  H   -0.185555  -0.012628  -0.004040   0.017971
     5  H    0.187756  -0.146427   0.028623  -0.003305
     6  H    0.018072   0.337302  -0.111333  -0.065832
     7  H    1.189116   0.101836  -0.023078  -0.174179
     8  H    0.101836   0.746241  -0.050674  -0.048292
     9  H   -0.023078  -0.050674   0.656256   0.353092
    10  H   -0.174179  -0.048292   0.353092   1.014895
 Mulliken charges:
               1
     1  H   -0.097092
     2  H    0.141030
     3  H    0.094719
     4  H   -0.115271
     5  H   -0.023386
     6  H   -0.023386
     7  H   -0.115271
     8  H    0.094719
     9  H    0.141030
    10  H   -0.097092
 Sum of Mulliken charges =  -0.00000
 Mulliken charges with hydrogens summed into heavy atoms:
               1
 Electronic spatial extent (au):  <R**2>=            133.2431
 Charge=             -0.0000 electrons
 Dipole moment (field-independent basis, Debye):
    X=             -0.0000    Y=              0.0000    Z=              0.0000  Tot=              0.0000
 Quadrupole moment (field-independent basis, Debye-Ang):
   XX=            -14.4108   YY=            -15.2792   ZZ=            -12.9259
   XY=             -1.6861   XZ=              0.0000   YZ=              0.0000
 Traceless Quadrupole moment (field-independent basis, Debye-Ang):
   XX=             -0.2055   YY=             -1.0739   ZZ=              1.2794
   XY=             -1.6861   XZ=              0.0000   YZ=              0.0000
 Octapole moment (field-independent basis, Debye-Ang**2):
  XXX=              0.0000  YYY=             -0.0000  ZZZ=             -0.0000  XYY=             -0.0000
  XXY=             -0.0000  XXZ=             -0.0000  XZZ=             -0.0000  YZZ=             -0.0000
  YYZ=             -0.0000  XYZ=             -0.0000
 Hexadecapole moment (field-independent basis, Debye-Ang**3):
 XXXX=           -213.3325 YYYY=            -80.8481 ZZZZ=            -15.5820 XXXY=            -61.4123
 XXXZ=              0.0000 YYYX=            -43.5431 YYYZ=              0.0000 ZZZX=              0.0000
 ZZZY=              0.0000 XXYY=            -56.1472 XXZZ=            -34.1725 YYZZ=            -15.8076
 XXYZ=              0.0000 YYXZ=              0.0000 ZZXY=            -13.0595
 N-N= 1.340299066901D+01 E-N=-3.603658197592D+01  KE= 5.115986821272D+00
 Symmetry AG   KE= 1.487933718614D+00
 Symmetry BG   KE= 0.000000000000D+00
 Symmetry AU   KE= 0.000000000000D+00
 Symmetry BU   KE= 3.628053102657D+00

 Test job not archived.
 1\1\GINC-SULU\Stability\RHF\Gen\H10\LCJ1\20-Feb-2017\0\\#rhf/gen scf(s
 ymm,tight,novaracc,noincfock,fulldiag) stable(crhf) guess=read geom=no
 crowd test\\hf stability analysis of h10 triangular lattice, y= 0.9428
 8997515969897\\0,1\H\H,1,1.1242673754\H,1,1.1242673754,2,66.\H,2,1.124
 2673754,1,114.,3,0.,0\H,3,1.1242673754,1,180.,2,0.,0\H,4,1.1242673754,
 2,180.,1,0.,0\H,5,1.1242673754,3,180.,2,0.,0\H,6,1.1242673754,4,180.,1
 ,0.,0\H,7,1.1242673754,5,180.,2,0.,0\H,8,1.1242673754,6,180.,1,0.,0\\V
 ersion=ES64L-G09RevE.01\State=1-AG\HF=-4.8660559\MP2=-4.9785306\RMSD=5
 .046e-09\Dipole=0.,0.,0.\Quadrupole=-0.1527663,0.9511847,-0.7984183,0.
 ,-1.2536065,0.\PG=C02H [SGH(H10)]\\@


 Discoveries are often made by not following instructions,
 by going off the main road, by trying the untried.
 -- Frank Tyger
 Job cpu time:       0 days  0 hours  0 minutes  0.8 seconds.
 File lengths (MBytes):  RWF=     84 Int=      0 D2E=      0 Chk=      2 Scr=      2
 Normal termination of Gaussian 09 at Mon Feb 20 11:35:41 2017.
