 Entering Gaussian System, Link 0=g09
 AtFile(1): H.gbs
            H     0
            S   10   1.00
               1000.000000000000            0.000068713567
                316.227766000000            0.000169141320
                100.000000000000            0.000823394812
                 31.622776600000            0.003425569236
                 10.000000000000            0.013951996000
                  3.162277660000            0.056909313560
                  1.000000000000            0.198286399900
                  0.316227766000            0.496922426700
                  0.100000000000            0.369846276400
                  0.031622776600            0.003752720039
            ****
 Initial command:
 /projects/guscus/apps/gau/g09-e1/g09/l1.exe "/users/lcj1/gaussian/h10/rhfstability/2rows/zmat/guessfrommix/alpha25/bck/Gau-4244.inp" -scrdir="/users/lcj1/gaussian/h10/rhfstability/2rows/zmat/guessfrommix/alpha25/bck/"
 Entering Link 1 = /projects/guscus/apps/gau/g09-e1/g09/l1.exe PID=      4245.
  
 Copyright (c) 1988,1990,1992,1993,1995,1998,2003,2009,2015,
            Gaussian, Inc.  All Rights Reserved.
  
 This is part of the Gaussian(R) 09 program.  It is based on
 the Gaussian(R) 03 system (copyright 2003, Gaussian, Inc.),
 the Gaussian(R) 98 system (copyright 1998, Gaussian, Inc.),
 the Gaussian(R) 94 system (copyright 1995, Gaussian, Inc.),
 the Gaussian 92(TM) system (copyright 1992, Gaussian, Inc.),
 the Gaussian 90(TM) system (copyright 1990, Gaussian, Inc.),
 the Gaussian 88(TM) system (copyright 1988, Gaussian, Inc.),
 the Gaussian 86(TM) system (copyright 1986, Carnegie Mellon
 University), and the Gaussian 82(TM) system (copyright 1983,
 Carnegie Mellon University). Gaussian is a federally registered
 trademark of Gaussian, Inc.
  
 This software contains proprietary and confidential information,
 including trade secrets, belonging to Gaussian, Inc.
  
 This software is provided under written license and may be
 used, copied, transmitted, or stored only in accord with that
 written license.
  
 The following legend is applicable only to US Government
 contracts under FAR:
  
                    RESTRICTED RIGHTS LEGEND
  
 Use, reproduction and disclosure by the US Government is
 subject to restrictions as set forth in subparagraphs (a)
 and (c) of the Commercial Computer Software - Restricted
 Rights clause in FAR 52.227-19.
  
 Gaussian, Inc.
 340 Quinnipiac St., Bldg. 40, Wallingford CT 06492
  
  
 ---------------------------------------------------------------
 Warning -- This program may not be used in any manner that
 competes with the business of Gaussian, Inc. or will provide
 assistance to any competitor of Gaussian, Inc.  The licensee
 of this program is prohibited from giving any competitor of
 Gaussian, Inc. access to this program.  By using this program,
 the user acknowledges that Gaussian, Inc. is engaged in the
 business of creating and licensing software in the field of
 computational chemistry and represents and warrants to the
 licensee that it is not a competitor of Gaussian, Inc. and that
 it will not use this program in any manner prohibited above.
 ---------------------------------------------------------------
  

 Cite this work as:
 Gaussian 09, Revision E.01,
 M. J. Frisch, G. W. Trucks, H. B. Schlegel, G. E. Scuseria, 
 M. A. Robb, J. R. Cheeseman, G. Scalmani, V. Barone, B. Mennucci, 
 G. A. Petersson, H. Nakatsuji, M. Caricato, X. Li, H. P. Hratchian, 
 A. F. Izmaylov, J. Bloino, G. Zheng, J. L. Sonnenberg, M. Hada, 
 M. Ehara, K. Toyota, R. Fukuda, J. Hasegawa, M. Ishida, T. Nakajima, 
 Y. Honda, O. Kitao, H. Nakai, T. Vreven, J. A. Montgomery, Jr., 
 J. E. Peralta, F. Ogliaro, M. Bearpark, J. J. Heyd, E. Brothers, 
 K. N. Kudin, V. N. Staroverov, T. Keith, R. Kobayashi, J. Normand, 
 K. Raghavachari, A. Rendell, J. C. Burant, S. S. Iyengar, J. Tomasi, 
 M. Cossi, N. Rega, J. M. Millam, M. Klene, J. E. Knox, J. B. Cross, 
 V. Bakken, C. Adamo, J. Jaramillo, R. Gomperts, R. E. Stratmann, 
 O. Yazyev, A. J. Austin, R. Cammi, C. Pomelli, J. W. Ochterski, 
 R. L. Martin, K. Morokuma, V. G. Zakrzewski, G. A. Voth, 
 P. Salvador, J. J. Dannenberg, S. Dapprich, A. D. Daniels, 
 O. Farkas, J. B. Foresman, J. V. Ortiz, J. Cioslowski, 
 and D. J. Fox, Gaussian, Inc., Wallingford CT, 2013.
 
 ******************************************
 Gaussian 09:  ES64L-G09RevE.01 30-Nov-2015
                20-Feb-2017 
 ******************************************
 %chk=h10.chk
 ----------------------------------------------------------------------
 #rhf/gen scf(symm,tight,novaracc,noincfock,fulldiag) stable(crhf) gues
 s=read geom=nocrowd test
 ----------------------------------------------------------------------
 1/38=1/1;
 2/12=1,17=6,18=5,40=1/2;
 3/5=7,16=1,25=1,30=1,116=1/1,2,3;
 4/5=1,9=4/1;
 5/5=100002,15=2,16=1,32=2,38=6/2;
 8/6=1,10=90,11=11/1,4;
 9/8=4,13=1/2;
 6/7=2,8=2,9=2,10=2,28=1/1;
 99/5=1,9=1/99;
 ----------------------------------------------------------------------
 hf stability analysis of h10 triangular lattice, y= 0.4950461160480687
 5
 ----------------------------------------------------------------------
 Symbolic Z-matrix:
 Charge =  0 Multiplicity = 1
 H
 H                    1     1.26697 
 H                    1     1.26697  2     134. 
 H                    2     1.26697  1     46.      3     0.       0
 H                    3     1.26697  1     180.     2     0.       0
 H                    4     1.26697  2     180.     1     0.       0
 H                    5     1.26697  3     180.     2     0.       0
 H                    6     1.26697  4     180.     1     0.       0
 H                    7     1.26697  5     180.     2     0.       0
 H                    8     1.26697  6     180.     1     0.       0
 
                          Input orientation:                          
 ---------------------------------------------------------------------
 Center     Atomic      Atomic             Coordinates (Angstroms)
 Number     Number       Type             X           Y           Z
 ---------------------------------------------------------------------
      1          1           0        0.000000    0.000000    0.000000
      2          1           0        0.000000    0.000000    1.266974
      3          1           0        0.911385    0.000000   -0.880114
      4          1           0        0.911385    0.000000    0.386860
      5          1           0        1.822769    0.000000   -1.760228
      6          1           0        1.822769    0.000000   -0.493254
      7          1           0        2.734154    0.000000   -2.640342
      8          1           0        2.734154    0.000000   -1.373368
      9          1           0        3.645539    0.000000   -3.520456
     10          1           0        3.645539    0.000000   -2.253482
 ---------------------------------------------------------------------
                    Distance matrix (angstroms):
                    1          2          3          4          5
     1  H    0.000000
     2  H    1.266974   0.000000
     3  H    1.266974   2.332511   0.000000
     4  H    0.990092   1.266974   1.266974   0.000000
     5  H    2.533948   3.533615   1.266974   2.332511   0.000000
     6  H    1.888329   2.533948   0.990092   1.266974   1.266974
     7  H    3.800921   4.768932   2.533948   3.533615   1.266974
     8  H    3.059696   3.800921   1.888329   2.533948   0.990092
     9  H    5.067895   6.017428   3.800921   4.768932   2.533948
    10  H    4.285806   5.067895   3.059696   3.800921   1.888329
                    6          7          8          9         10
     6  H    0.000000
     7  H    2.332511   0.000000
     8  H    1.266974   1.266974   0.000000
     9  H    3.533615   1.266974   2.332511   0.000000
    10  H    2.533948   0.990092   1.266974   1.266974   0.000000
 Stoichiometry    H10
 Framework group  C2H[SGH(H10)]
 Deg. of freedom     9
 Full point group                 C2H     NOp   4
 Largest Abelian subgroup         C2H     NOp   4
 Largest concise Abelian subgroup C2      NOp   2
                         Standard orientation:                         
 ---------------------------------------------------------------------
 Center     Atomic      Atomic             Coordinates (Angstroms)
 Number     Number       Type             X           Y           Z
 ---------------------------------------------------------------------
      1          1           0        1.822769   -1.126741    0.000000
      2          1           0        1.822769   -2.393715    0.000000
      3          1           0        0.911385   -0.246627    0.000000
      4          1           0        0.911385   -1.513601    0.000000
      5          1           0        0.000000    0.633487    0.000000
      6          1           0       -0.000000   -0.633487    0.000000
      7          1           0       -0.911385    1.513601    0.000000
      8          1           0       -0.911385    0.246627    0.000000
      9          1           0       -1.822769    2.393715    0.000000
     10          1           0       -1.822769    1.126741    0.000000
 ---------------------------------------------------------------------
 Rotational constants (GHZ):    256.9927400     14.6769065     13.8839892
 General basis read from cards:  (5D, 7F)
 There are     5 symmetry adapted cartesian basis functions of AG  symmetry.
 There are     0 symmetry adapted cartesian basis functions of BG  symmetry.
 There are     0 symmetry adapted cartesian basis functions of AU  symmetry.
 There are     5 symmetry adapted cartesian basis functions of BU  symmetry.
 There are     5 symmetry adapted basis functions of AG  symmetry.
 There are     0 symmetry adapted basis functions of BG  symmetry.
 There are     0 symmetry adapted basis functions of AU  symmetry.
 There are     5 symmetry adapted basis functions of BU  symmetry.
    10 basis functions,   100 primitive gaussians,    10 cartesian basis functions
     5 alpha electrons        5 beta electrons
       nuclear repulsion energy        12.5630374030 Hartrees.
 NAtoms=   10 NActive=   10 NUniq=    5 SFac= 4.00D+00 NAtFMM=   60 NAOKFM=F Big=F
 Integral buffers will be    131072 words long.
 Regular integral format.
 Two-electron integral symmetry is turned on.
 One-electron integrals computed using PRISM.
 NBasis=    10 RedAO= T EigKep=  1.90D-01  NBF=     5     0     0     5
 NBsUse=    10 1.00D-06 EigRej= -1.00D+00 NBFU=     5     0     0     5
 Initial guess from the checkpoint file:  "h10.chk"
 B after Tr=     0.000000   -0.000000   -0.000000
         Rot=    0.999992   -0.000000    0.000000    0.003879 Ang=   0.44 deg.
 Initial guess orbital symmetries:
       Occupied  (AG) (BU) (AG) (BU) (BU)
       Virtual   (AG) (AG) (BU) (BU) (AG)
 Keep R1 ints in memory in symmetry-blocked form, NReq=878139.
 Requested convergence on RMS density matrix=1.00D-08 within 128 cycles.
 Requested convergence on MAX density matrix=1.00D-06.
 Requested convergence on             energy=1.00D-06.
 No special actions if energy rises.
 SCF Done:  E(RHF) =  -4.80955911741     A.U. after    9 cycles
            NFock=  9  Conv=0.16D-08     -V/T= 1.9664
 Range of M.O.s used for correlation:     1    10
 NBasis=    10 NAE=     5 NBE=     5 NFC=     0 NFV=     0
 NROrb=     10 NOA=     5 NOB=     5 NVA=     5 NVB=     5
 Semi-Direct transformation.
 ModeAB=           4 MOrb=             5 LenV=     134108842
 LASXX=         1030 LTotXX=        1030 LenRXX=        2480
 LTotAB=        1450 MaxLAS=        1500 LenRXY=           0
 NonZer=        3510 LenScr=      655360 LnRSAI=        1500
 LnScr1=      655360 LExtra=           0 Total=      1314700
 MaxDsk=          -1 SrtSym=           T ITran=            3
 JobTyp=0 Pass  1:  I=   1 to   5.
 (rs|ai) integrals will be sorted in core.
 Spin components of T(2) and E(2):
     alpha-alpha T2 =       0.6988856244D-02 E2=     -0.7651571414D-02
     alpha-beta  T2 =       0.1000454933D+00 E2=     -0.1084420179D+00
     beta-beta   T2 =       0.6988856244D-02 E2=     -0.7651571414D-02
 ANorm=    0.1055472977D+01
 E2 =    -0.1237451607D+00 EUMP2 =    -0.49333042781428D+01
 Second order stability test of a single determinant RHF wave function:
 Stabil:  MDV=134217728
 ***********************************************************************
 Matrix         Lowest Root    Major Pairs
 ***********************************************************************
 Internal RHF     0.0813602    Stable
 RRHF --> CRHF    0.0441805    Stable
 RRHF --> RUHF   -0.1107156    5A=6B 5A=7B
 Not stable.
 ***********************************************************************

 **********************************************************************

            Population analysis using the SCF density.

 **********************************************************************

 Orbital symmetries:
       Occupied  (AG) (BU) (AG) (BU) (BU)
       Virtual   (AG) (AG) (BU) (BU) (AG)
 The electronic state is 1-AG.
 Alpha  occ. eigenvalues --   -0.80217  -0.72922  -0.55306  -0.33342  -0.23308
 Alpha virt. eigenvalues --    0.02945   0.14269   0.22102   0.40525   0.61081
          Condensed to atoms (all electrons):
               1          2          3          4          5          6
     1  H    0.719607   0.193862   0.113901   0.000528   0.043937  -0.156650
     2  H    0.193862   0.856642  -0.096747   0.090781   0.002355  -0.048573
     3  H    0.113901  -0.096747   1.146707  -0.079735   0.185970   0.025557
     4  H    0.000528   0.090781  -0.079735   0.680291  -0.093324   0.274366
     5  H    0.043937   0.002355   0.185970  -0.093324   1.207055  -0.342633
     6  H   -0.156650  -0.048573   0.025557   0.274366  -0.342633   1.207055
     7  H    0.006538   0.000425   0.018445  -0.009705   0.274366  -0.093324
     8  H   -0.020592   0.007529  -0.193027   0.018445   0.025557   0.185970
     9  H    0.000075  -0.000152   0.007529   0.000425  -0.048573   0.002355
    10  H   -0.002080   0.000075  -0.020592   0.006538  -0.156650   0.043937
               7          8          9         10
     1  H    0.006538  -0.020592   0.000075  -0.002080
     2  H    0.000425   0.007529  -0.000152   0.000075
     3  H    0.018445  -0.193027   0.007529  -0.020592
     4  H   -0.009705   0.018445   0.000425   0.006538
     5  H    0.274366   0.025557  -0.048573  -0.156650
     6  H   -0.093324   0.185970   0.002355   0.043937
     7  H    0.680291  -0.079735   0.090781   0.000528
     8  H   -0.079735   1.146707  -0.096747   0.113901
     9  H    0.090781  -0.096747   0.856642   0.193862
    10  H    0.000528   0.113901   0.193862   0.719607
 Mulliken charges:
               1
     1  H    0.100874
     2  H   -0.006197
     3  H   -0.108007
     4  H    0.111391
     5  H   -0.098060
     6  H   -0.098060
     7  H    0.111391
     8  H   -0.108007
     9  H   -0.006197
    10  H    0.100874
 Sum of Mulliken charges =  -0.00000
 Mulliken charges with hydrogens summed into heavy atoms:
               1
 Electronic spatial extent (au):  <R**2>=            156.3953
 Charge=             -0.0000 electrons
 Dipole moment (field-independent basis, Debye):
    X=              0.0000    Y=             -0.0000    Z=              0.0000  Tot=              0.0000
 Quadrupole moment (field-independent basis, Debye-Ang):
   XX=            -11.8196   YY=            -11.9126   ZZ=            -13.1449
   XY=             -2.8790   XZ=             -0.0000   YZ=              0.0000
 Traceless Quadrupole moment (field-independent basis, Debye-Ang):
   XX=              0.4728   YY=              0.3798   ZZ=             -0.8525
   XY=             -2.8790   XZ=             -0.0000   YZ=              0.0000
 Octapole moment (field-independent basis, Debye-Ang**2):
  XXX=              0.0000  YYY=             -0.0000  ZZZ=             -0.0000  XYY=              0.0000
  XXY=             -0.0000  XXZ=             -0.0000  XZZ=              0.0000  YZZ=             -0.0000
  YYZ=             -0.0000  XYZ=             -0.0000
 Hexadecapole moment (field-independent basis, Debye-Ang**3):
 XXXX=           -149.0162 YYYY=           -166.6025 ZZZZ=            -16.0568 XXXY=             62.7755
 XXXZ=              0.0000 YYYX=             59.4791 YYYZ=             -0.0000 ZZZX=              0.0000
 ZZZY=             -0.0000 XXYY=            -53.3834 XXZZ=            -27.8454 YYZZ=            -31.8041
 XXYZ=             -0.0000 YYXZ=              0.0000 ZZXY=             21.0904
 N-N= 1.256303740300D+01 E-N=-3.442027788724D+01  KE= 4.976970257130D+00
 Symmetry AG   KE= 1.435635505099D+00
 Symmetry BG   KE= 0.000000000000D+00
 Symmetry AU   KE= 0.000000000000D+00
 Symmetry BU   KE= 3.541334752031D+00

 Test job not archived.
 1\1\GINC-SULU\Stability\RHF\Gen\H10\LCJ1\20-Feb-2017\0\\#rhf/gen scf(s
 ymm,tight,novaracc,noincfock,fulldiag) stable(crhf) guess=read geom=no
 crowd test\\hf stability analysis of h10 triangular lattice, y= 0.4950
 4611604806875\\0,1\H\H,1,1.266973801\H,1,1.266973801,2,134.\H,2,1.2669
 73801,1,46.,3,0.,0\H,3,1.266973801,1,180.,2,0.,0\H,4,1.266973801,2,180
 .,1,0.,0\H,5,1.266973801,3,180.,2,0.,0\H,6,1.266973801,4,180.,1,0.,0\H
 ,7,1.266973801,5,180.,2,0.,0\H,8,1.266973801,6,180.,1,0.,0\\Version=ES
 64L-G09RevE.01\State=1-AG\HF=-4.8095591\MP2=-4.9333043\RMSD=1.613e-09\
 Dipole=0.,0.,0.\Quadrupole=0.3515036,-0.6338453,0.2823416,0.,-2.140469
 9,0.\PG=C02H [SGH(H10)]\\@


 Where a calculator on the ENIAC is equipped with 18,000
 vacuum tubes and weighs 30 tons, computers inthe future
 may  have only 1,000 vacuum tubes and weigh only 1 1/2 tons.
              ---Popular Mechanics, March 1949
 Job cpu time:       0 days  0 hours  0 minutes  0.7 seconds.
 File lengths (MBytes):  RWF=     84 Int=      0 D2E=      0 Chk=      2 Scr=      2
 Normal termination of Gaussian 09 at Mon Feb 20 11:28:12 2017.
