 Entering Gaussian System, Link 0=g09
 AtFile(1): H.gbs
            H     0
            S   10   1.00
               1000.000000000000            0.000068713567
                316.227766000000            0.000169141320
                100.000000000000            0.000823394812
                 31.622776600000            0.003425569236
                 10.000000000000            0.013951996000
                  3.162277660000            0.056909313560
                  1.000000000000            0.198286399900
                  0.316227766000            0.496922426700
                  0.100000000000            0.369846276400
                  0.031622776600            0.003752720039
            ****
 Initial command:
 /projects/guscus/apps/gau/g09-e1/g09/l1.exe "/users/lcj1/gaussian/h10/2rows_uhf/ag2bu3/Gau-31880.inp" -scrdir="/users/lcj1/gaussian/h10/2rows_uhf/ag2bu3/"
 Entering Link 1 = /projects/guscus/apps/gau/g09-e1/g09/l1.exe PID=     31881.
  
 Copyright (c) 1988,1990,1992,1993,1995,1998,2003,2009,2015,
            Gaussian, Inc.  All Rights Reserved.
  
 This is part of the Gaussian(R) 09 program.  It is based on
 the Gaussian(R) 03 system (copyright 2003, Gaussian, Inc.),
 the Gaussian(R) 98 system (copyright 1998, Gaussian, Inc.),
 the Gaussian(R) 94 system (copyright 1995, Gaussian, Inc.),
 the Gaussian 92(TM) system (copyright 1992, Gaussian, Inc.),
 the Gaussian 90(TM) system (copyright 1990, Gaussian, Inc.),
 the Gaussian 88(TM) system (copyright 1988, Gaussian, Inc.),
 the Gaussian 86(TM) system (copyright 1986, Carnegie Mellon
 University), and the Gaussian 82(TM) system (copyright 1983,
 Carnegie Mellon University). Gaussian is a federally registered
 trademark of Gaussian, Inc.
  
 This software contains proprietary and confidential information,
 including trade secrets, belonging to Gaussian, Inc.
  
 This software is provided under written license and may be
 used, copied, transmitted, or stored only in accord with that
 written license.
  
 The following legend is applicable only to US Government
 contracts under FAR:
  
                    RESTRICTED RIGHTS LEGEND
  
 Use, reproduction and disclosure by the US Government is
 subject to restrictions as set forth in subparagraphs (a)
 and (c) of the Commercial Computer Software - Restricted
 Rights clause in FAR 52.227-19.
  
 Gaussian, Inc.
 340 Quinnipiac St., Bldg. 40, Wallingford CT 06492
  
  
 ---------------------------------------------------------------
 Warning -- This program may not be used in any manner that
 competes with the business of Gaussian, Inc. or will provide
 assistance to any competitor of Gaussian, Inc.  The licensee
 of this program is prohibited from giving any competitor of
 Gaussian, Inc. access to this program.  By using this program,
 the user acknowledges that Gaussian, Inc. is engaged in the
 business of creating and licensing software in the field of
 computational chemistry and represents and warrants to the
 licensee that it is not a competitor of Gaussian, Inc. and that
 it will not use this program in any manner prohibited above.
 ---------------------------------------------------------------
  

 Cite this work as:
 Gaussian 09, Revision E.01,
 M. J. Frisch, G. W. Trucks, H. B. Schlegel, G. E. Scuseria, 
 M. A. Robb, J. R. Cheeseman, G. Scalmani, V. Barone, B. Mennucci, 
 G. A. Petersson, H. Nakatsuji, M. Caricato, X. Li, H. P. Hratchian, 
 A. F. Izmaylov, J. Bloino, G. Zheng, J. L. Sonnenberg, M. Hada, 
 M. Ehara, K. Toyota, R. Fukuda, J. Hasegawa, M. Ishida, T. Nakajima, 
 Y. Honda, O. Kitao, H. Nakai, T. Vreven, J. A. Montgomery, Jr., 
 J. E. Peralta, F. Ogliaro, M. Bearpark, J. J. Heyd, E. Brothers, 
 K. N. Kudin, V. N. Staroverov, T. Keith, R. Kobayashi, J. Normand, 
 K. Raghavachari, A. Rendell, J. C. Burant, S. S. Iyengar, J. Tomasi, 
 M. Cossi, N. Rega, J. M. Millam, M. Klene, J. E. Knox, J. B. Cross, 
 V. Bakken, C. Adamo, J. Jaramillo, R. Gomperts, R. E. Stratmann, 
 O. Yazyev, A. J. Austin, R. Cammi, C. Pomelli, J. W. Ochterski, 
 R. L. Martin, K. Morokuma, V. G. Zakrzewski, G. A. Voth, 
 P. Salvador, J. J. Dannenberg, S. Dapprich, A. D. Daniels, 
 O. Farkas, J. B. Foresman, J. V. Ortiz, J. Cioslowski, 
 and D. J. Fox, Gaussian, Inc., Wallingford CT, 2013.
 
 ******************************************
 Gaussian 09:  ES64L-G09RevE.01 30-Nov-2015
                22-Feb-2017 
 ******************************************
 %chk=h10.chk
 ----------------------------------------------------------------------
 #rhf/gen scf(symm,tight,novaracc,noincfock,fulldiag) stable=opt guess=
 read geom=nocrowd test
 ----------------------------------------------------------------------
 1/38=1/1;
 2/12=1,17=6,18=5,40=1/2;
 3/5=7,11=2,16=1,25=1,30=1,116=1/1,2,3;
 4/5=1,9=4/1;
 5/5=100002,15=2,16=1,32=2,38=6/2;
 6/7=2,8=2,9=2,10=2,28=1/1;
 8/6=1,10=90,11=11/1;
 9/8=-3,42=1,46=1/14;
 5/5=100002,8=3,16=1,17=40,32=2,38=6/8(-2);
 6/7=2,8=2,9=2,10=2,28=1/1;
 99/5=1,9=1/99;
 ----------------------------------------------------------------------
 hf stability analysis of h10 triangular lattice, y= 1.0205721581109972
 ----------------------------------------------------------------------
 Symbolic Z-matrix:
 Charge =  0 Multiplicity = 1
 H
 H                    1     1.16688 
 H                    1     1.16688  2     58. 
 H                    2     1.16688  1     122.     3     0.       0
 H                    3     1.16688  1     180.     2     0.       0
 H                    4     1.16688  2     180.     1     0.       0
 H                    5     1.16688  3     180.     2     0.       0
 H                    6     1.16688  4     180.     1     0.       0
 H                    7     1.16688  5     180.     2     0.       0
 H                    8     1.16688  6     180.     1     0.       0
 
                          Input orientation:                          
 ---------------------------------------------------------------------
 Center     Atomic      Atomic             Coordinates (Angstroms)
 Number     Number       Type             X           Y           Z
 ---------------------------------------------------------------------
      1          1           0        0.000000    0.000000    0.000000
      2          1           0        0.000000    0.000000    1.166875
      3          1           0        0.989566    0.000000    0.618350
      4          1           0        0.989566    0.000000    1.785225
      5          1           0        1.979133    0.000000    1.236699
      6          1           0        1.979133    0.000000    2.403575
      7          1           0        2.968699    0.000000    1.855049
      8          1           0        2.968699    0.000000    3.021924
      9          1           0        3.958266    0.000000    2.473399
     10          1           0        3.958266    0.000000    3.640274
 ---------------------------------------------------------------------
                    Distance matrix (angstroms):
                    1          2          3          4          5
     1  H    0.000000
     2  H    1.166875   0.000000
     3  H    1.166875   1.131425   0.000000
     4  H    2.041144   1.166875   1.166875   0.000000
     5  H    2.333751   1.980364   1.166875   1.131425   0.000000
     6  H    3.113541   2.333751   2.041144   1.166875   1.166875
     7  H    3.500626   3.047418   2.333751   1.980364   1.166875
     8  H    4.236178   3.500626   3.113541   2.333751   2.041144
     9  H    4.667501   4.168317   3.500626   3.047418   2.333751
    10  H    5.377682   4.667501   4.236178   3.500626   3.113541
                    6          7          8          9         10
     6  H    0.000000
     7  H    1.131425   0.000000
     8  H    1.166875   1.166875   0.000000
     9  H    1.980364   1.166875   1.131425   0.000000
    10  H    2.333751   2.041144   1.166875   1.166875   0.000000
 Stoichiometry    H10
 Framework group  C2H[SGH(H10)]
 Deg. of freedom     9
 Full point group                 C2H     NOp   4
 Largest Abelian subgroup         C2H     NOp   4
 Largest concise Abelian subgroup C2      NOp   2
                         Standard orientation:                         
 ---------------------------------------------------------------------
 Center     Atomic      Atomic             Coordinates (Angstroms)
 Number     Number       Type             X           Y           Z
 ---------------------------------------------------------------------
      1          1           0        1.979133    1.820137   -0.000000
      2          1           0        1.979133    0.653262   -0.000000
      3          1           0        0.989566    1.201787   -0.000000
      4          1           0        0.989566    0.034912   -0.000000
      5          1           0        0.000000    0.583438    0.000000
      6          1           0       -0.000000   -0.583438   -0.000000
      7          1           0       -0.989566   -0.034912   -0.000000
      8          1           0       -0.989566   -1.201787   -0.000000
      9          1           0       -1.979133   -0.653262   -0.000000
     10          1           0       -1.979133   -1.820137   -0.000000
 ---------------------------------------------------------------------
 Rotational constants (GHZ):    212.7055522     17.7327669     16.3681891
 General basis read from cards:  (5D, 7F)
 There are     5 symmetry adapted cartesian basis functions of AG  symmetry.
 There are     0 symmetry adapted cartesian basis functions of BG  symmetry.
 There are     0 symmetry adapted cartesian basis functions of AU  symmetry.
 There are     5 symmetry adapted cartesian basis functions of BU  symmetry.
 There are     5 symmetry adapted basis functions of AG  symmetry.
 There are     0 symmetry adapted basis functions of BG  symmetry.
 There are     0 symmetry adapted basis functions of AU  symmetry.
 There are     5 symmetry adapted basis functions of BU  symmetry.
    10 basis functions,   100 primitive gaussians,    10 cartesian basis functions
     5 alpha electrons        5 beta electrons
       nuclear repulsion energy        13.1292640782 Hartrees.
 NAtoms=   10 NActive=   10 NUniq=    5 SFac= 4.00D+00 NAtFMM=   60 NAOKFM=F Big=F
 Integral buffers will be    131072 words long.
 Raffenetti 2 integral format.
 Two-electron integral symmetry is turned on.
 One-electron integrals computed using PRISM.
 NBasis=    10 RedAO= T EigKep=  1.96D-01  NBF=     5     0     0     5
 NBsUse=    10 1.00D-06 EigRej= -1.00D+00 NBFU=     5     0     0     5
 Initial guess from the checkpoint file:  "h10.chk"
 B after Tr=    -0.000000    0.000000   -0.000000
         Rot=    0.988758    0.000000    0.000000    0.149527 Ang=  17.20 deg.
 Initial guess orbital symmetries:
       Occupied  (AG) (BU) (AG) (BU) (BU)
       Virtual   (AG) (BU) (AG) (BU) (AG)
 Keep R1 ints in memory in symmetry-blocked form, NReq=878951.
 Requested convergence on RMS density matrix=1.00D-08 within 128 cycles.
 Requested convergence on MAX density matrix=1.00D-06.
 Requested convergence on             energy=1.00D-06.
 No special actions if energy rises.
 SCF Done:  E(RHF) =  -4.86595608079     A.U. after   10 cycles
            NFock= 10  Conv=0.43D-08     -V/T= 1.9646

 **********************************************************************

            Population analysis using the SCF density.

 **********************************************************************

 Orbital symmetries:
       Occupied  (AG) (BU) (AG) (BU) (BU)
       Virtual   (AG) (AG) (BU) (BU) (AG)
 The electronic state is 1-AG.
 Alpha  occ. eigenvalues --   -0.83782  -0.73967  -0.55183  -0.33049  -0.30923
 Alpha virt. eigenvalues --    0.00409   0.20640   0.24085   0.54998   0.56598
          Condensed to atoms (all electrons):
               1          2          3          4          5          6
     1  H    0.978233   0.290592   0.010252  -0.145460  -0.065618   0.001747
     2  H    0.290592   0.641300  -0.015720   0.033684  -0.126797   0.035912
     3  H    0.010252  -0.015720   0.693465   0.023570   0.315604  -0.129011
     4  H   -0.145460   0.033684   0.023570   1.181814   0.037354   0.178929
     5  H   -0.065618  -0.126797   0.315604   0.037354   1.070774  -0.270610
     6  H    0.001747   0.035912  -0.129011   0.178929  -0.270610   1.070774
     7  H    0.013744  -0.011152   0.002792  -0.193734   0.178929   0.037354
     8  H    0.002120   0.009304  -0.022799   0.002792  -0.129011   0.315604
     9  H   -0.000136  -0.001352   0.009304  -0.011152   0.035912  -0.126797
    10  H   -0.000512  -0.000136   0.002120   0.013744   0.001747  -0.065618
               7          8          9         10
     1  H    0.013744   0.002120  -0.000136  -0.000512
     2  H   -0.011152   0.009304  -0.001352  -0.000136
     3  H    0.002792  -0.022799   0.009304   0.002120
     4  H   -0.193734   0.002792  -0.011152   0.013744
     5  H    0.178929  -0.129011   0.035912   0.001747
     6  H    0.037354   0.315604  -0.126797  -0.065618
     7  H    1.181814   0.023570   0.033684  -0.145460
     8  H    0.023570   0.693465  -0.015720   0.010252
     9  H    0.033684  -0.015720   0.641300   0.290592
    10  H   -0.145460   0.010252   0.290592   0.978233
 Mulliken charges:
               1
     1  H   -0.084962
     2  H    0.144365
     3  H    0.110422
     4  H   -0.121541
     5  H   -0.048283
     6  H   -0.048283
     7  H   -0.121541
     8  H    0.110422
     9  H    0.144365
    10  H   -0.084962
 Sum of Mulliken charges =   0.00000
 Mulliken charges with hydrogens summed into heavy atoms:
               1
 Electronic spatial extent (au):  <R**2>=            140.4121
 Charge=              0.0000 electrons
 Dipole moment (field-independent basis, Debye):
    X=              0.0000    Y=              0.0000    Z=             -0.0000  Tot=              0.0000
 Quadrupole moment (field-independent basis, Debye-Ang):
   XX=            -13.3006   YY=            -15.3974   ZZ=            -13.0104
   XY=             -0.6624   XZ=             -0.0000   YZ=             -0.0000
 Traceless Quadrupole moment (field-independent basis, Debye-Ang):
   XX=              0.6022   YY=             -1.4946   ZZ=              0.8924
   XY=             -0.6624   XZ=             -0.0000   YZ=             -0.0000
 Octapole moment (field-independent basis, Debye-Ang**2):
  XXX=              0.0000  YYY=             -0.0000  ZZZ=              0.0000  XYY=              0.0000
  XXY=              0.0000  XXZ=              0.0000  XZZ=              0.0000  YZZ=             -0.0000
  YYZ=              0.0000  XYZ=              0.0000
 Hexadecapole moment (field-independent basis, Debye-Ang**3):
 XXXX=           -187.4947 YYYY=           -114.7923 ZZZZ=            -15.7562 XXXY=            -66.7071
 XXXZ=             -0.0000 YYYX=            -58.4262 YYYZ=             -0.0000 ZZZX=             -0.0000
 ZZZY=             -0.0000 XXYY=            -61.0086 XXZZ=            -32.0217 YYZZ=            -20.9599
 XXYZ=             -0.0000 YYXZ=             -0.0000 ZZXY=            -16.7071
 N-N= 1.312926407820D+01 E-N=-3.549695784996D+01  KE= 5.044591581611D+00
 Symmetry AG   KE= 1.466020743490D+00
 Symmetry BG   KE= 0.000000000000D+00
 Symmetry AU   KE= 0.000000000000D+00
 Symmetry BU   KE= 3.578570838122D+00
 Range of M.O.s used for correlation:     1    10
 NBasis=    10 NAE=     5 NBE=     5 NFC=     0 NFV=     0
 NROrb=     10 NOA=     5 NOB=     5 NVA=     5 NVB=     5
 Keep R1 and R2 ints in memory in symmetry-blocked form, NReq=802982.
 Orbital symmetries:
       Occupied  (AG) (BU) (AG) (BU) (BU)
       Virtual   (AG) (AG) (BU) (BU) (AG)
    24 initial guesses have been made.
 Convergence on wavefunction:    0.001000000000000
 Iteration     1 Dimension    24 NMult     0 NNew     24
 CISAX will form    24 AO SS matrices at one time.
 New state      1 was old state      4
 Iteration     2 Dimension    46 NMult    24 NNew     22
 ***********************************************************************
 Stability analysis using <AA,BB:AA,BB> singles matrix:
 ***********************************************************************

 Eigenvectors of the stability matrix:
 
 Eigenvector   1:      Triplet-BU   Eigenvalue=-0.0738665  <S**2>=2.000
       4 ->  6        -0.45524
       4 ->  7         0.16475
       5 ->  6         0.49407
 
 Eigenvector   2:      Triplet-BU   Eigenvalue=-0.0584014  <S**2>=2.000
       3 ->  8        -0.14609
       4 ->  6         0.51486
       4 ->  7         0.13738
       4 -> 10         0.10177
       5 ->  6         0.40988
 
 Eigenvector   3:      Triplet-BU   Eigenvalue= 0.0623939  <S**2>=2.000
       2 ->  6        -0.18183
       3 ->  9         0.11085
       5 ->  7         0.64590
 
 Eigenvector   4:      Singlet-BU   Eigenvalue= 0.0884879  <S**2>=0.000
       4 ->  6         0.32210
       5 ->  6         0.58200
       5 ->  7        -0.19448
 
 Eigenvector   5:      Triplet-AG   Eigenvalue= 0.0888950  <S**2>=2.000
       2 ->  8        -0.15839
       3 ->  6        -0.45220
       3 ->  7        -0.14660
       3 -> 10         0.11208
       5 ->  8         0.45897
 
 Eigenvector   6:      Singlet-BU   Eigenvalue= 0.1463236  <S**2>=0.000
       4 ->  6         0.49250
       4 ->  7        -0.12082
       5 ->  6        -0.35665
       5 ->  7        -0.30374
 SavETr:  write IOETrn=   770 NScale= 10 NData=  16 NLR=1 NState=    6 LETran=     118.
 The wavefunction has an RHF -> UHF instability.
 Keep R1 and R2 ints in memory in symmetry-blocked form, NReq=860290.
 The two search directions are symmetric.
 Gradient too large for Newton-Raphson -- use scaled steepest descent instead.
 Gradient too large for Newton-Raphson -- use scaled steepest descent instead.
     Accept linear search using points  3 and  4.
     Minimum is close to point  4 DX= -2.30D-01 DF= -7.63D-06 DXR=  8.96D-02 DFR=  9.90D-03 which will be used.
 Gradient too large for Newton-Raphson -- use scaled steepest descent instead.
     Accept linear search using points  1 and  2.
 Gradient too large for Newton-Raphson -- use scaled steepest descent instead.
     Accept linear search using points  1 and  2.
 Gradient too large for Newton-Raphson -- use scaled steepest descent instead.
     Accept linear search using points  1 and  2.
     Minimum is close to point  2 DX= -1.48D-01 DF= -7.57D-06 DXR=  9.54D-02 DFR=  1.74D-02 which will be used.
 Gradient too large for Newton-Raphson -- use scaled steepest descent instead.
     Accept linear search using points  1 and  2.
     Minimum is close to point  2 DX= -1.13D-01 DF= -4.50D-06 DXR=  7.61D-02 DFR=  1.08D-02 which will be used.
 Gradient too large for Newton-Raphson -- use scaled steepest descent instead.
     Accept linear search using points  1 and  2.
     Minimum is close to point  2 DX= -2.07D-02 DF= -1.42D-07 DXR=  1.40D-02 DFR=  3.75D-04 which will be used.
 Gradient too large for Newton-Raphson -- use scaled steepest descent instead.
 Gradient too large for Newton-Raphson -- use scaled steepest descent instead.
     Accept linear search using points  1 and  2.
     Minimum is close to point  2 DX= -1.06D-02 DF= -3.01D-08 DXR=  6.67D-03 DFR=  1.02D-04 which will be used.
 Gradient too large for Newton-Raphson -- use scaled steepest descent instead.
     Minimum is close to point  2 DX= -2.54D-03 DF= -5.81D-10 DXR=  1.50D-03 DFR=  2.24D-06 which will be used.
 LinEq1:  Iter=  0 NonCon=     1 RMS=2.37D-03 Max=8.46D-03 NDo=     1
 AX will form     1 AO Fock derivatives at one time.
 LinEq1:  Iter=  1 NonCon=     1 RMS=1.24D-03 Max=3.06D-03 NDo=     1
 LinEq1:  Iter=  2 NonCon=     1 RMS=5.08D-05 Max=1.51D-04 NDo=     1
 LinEq1:  Iter=  3 NonCon=     1 RMS=1.19D-05 Max=3.10D-05 NDo=     1
 LinEq1:  Iter=  4 NonCon=     1 RMS=1.97D-06 Max=5.16D-06 NDo=     1
 LinEq1:  Iter=  5 NonCon=     1 RMS=2.28D-07 Max=3.76D-07 NDo=     1
 LinEq1:  Iter=  6 NonCon=     1 RMS=3.91D-08 Max=8.65D-08 NDo=     1
 LinEq1:  Iter=  7 NonCon=     1 RMS=7.03D-09 Max=1.41D-08 NDo=     1
 LinEq1:  Iter=  8 NonCon=     1 RMS=1.19D-09 Max=2.30D-09 NDo=     1
 LinEq1:  Iter=  9 NonCon=     0 RMS=1.39D-10 Max=4.30D-10 NDo=     1
 Linear equations converged to 1.000D-09 1.000D-08 after     9 iterations.
     Accept linear search using points  1 and  2.
 LinEq1:  Iter=  0 NonCon=     1 RMS=1.27D-03 Max=3.89D-03 NDo=     1
 LinEq1:  Iter=  1 NonCon=     1 RMS=4.27D-04 Max=8.59D-04 NDo=     1
 LinEq1:  Iter=  2 NonCon=     1 RMS=1.57D-04 Max=4.41D-04 NDo=     1
 LinEq1:  Iter=  3 NonCon=     1 RMS=3.09D-05 Max=9.08D-05 NDo=     1
 LinEq1:  Iter=  4 NonCon=     1 RMS=7.42D-06 Max=1.61D-05 NDo=     1
 LinEq1:  Iter=  5 NonCon=     1 RMS=1.02D-06 Max=2.25D-06 NDo=     1
 LinEq1:  Iter=  6 NonCon=     1 RMS=1.74D-07 Max=4.15D-07 NDo=     1
 LinEq1:  Iter=  7 NonCon=     1 RMS=2.20D-08 Max=5.58D-08 NDo=     1
 LinEq1:  Iter=  8 NonCon=     1 RMS=2.90D-09 Max=5.77D-09 NDo=     1
 LinEq1:  Iter=  9 NonCon=     0 RMS=4.44D-10 Max=9.16D-10 NDo=     1
 Linear equations converged to 1.000D-09 1.000D-08 after     9 iterations.
     Minimum is close to point  2 DX=  8.71D-02 DF= -9.74D-07 DXR=  8.02D-02 DFR=  6.47D-03 which will be used.
 LinEq1:  Iter=  0 NonCon=     1 RMS=7.53D-05 Max=3.47D-04 NDo=     1
 LinEq1:  Iter=  1 NonCon=     1 RMS=1.64D-05 Max=3.19D-05 NDo=     1
 LinEq1:  Iter=  2 NonCon=     1 RMS=6.15D-06 Max=1.82D-05 NDo=     1
 LinEq1:  Iter=  3 NonCon=     1 RMS=1.93D-06 Max=4.50D-06 NDo=     1
 LinEq1:  Iter=  4 NonCon=     1 RMS=3.02D-07 Max=7.99D-07 NDo=     1
 LinEq1:  Iter=  5 NonCon=     1 RMS=5.02D-08 Max=1.18D-07 NDo=     1
 LinEq1:  Iter=  6 NonCon=     1 RMS=8.05D-09 Max=1.89D-08 NDo=     1
 LinEq1:  Iter=  7 NonCon=     1 RMS=1.27D-09 Max=2.33D-09 NDo=     1
 LinEq1:  Iter=  8 NonCon=     0 RMS=1.96D-10 Max=3.78D-10 NDo=     1
 Linear equations converged to 1.000D-09 1.000D-08 after     8 iterations.
     Minimum is close to point  2 DX=  1.23D-02 DF= -1.49D-10 DXR=  1.22D-02 DFR=  1.48D-04 which will be used.
 LinEq1:  Iter=  0 NonCon=     1 RMS=1.07D-06 Max=4.50D-06 NDo=     1
 LinEq1:  Iter=  1 NonCon=     1 RMS=2.31D-07 Max=5.14D-07 NDo=     1
 LinEq1:  Iter=  2 NonCon=     1 RMS=8.75D-08 Max=2.43D-07 NDo=     1
 LinEq1:  Iter=  3 NonCon=     1 RMS=2.46D-08 Max=7.72D-08 NDo=     1
 LinEq1:  Iter=  4 NonCon=     1 RMS=5.80D-09 Max=1.33D-08 NDo=     1
 LinEq1:  Iter=  5 NonCon=     1 RMS=6.95D-10 Max=1.83D-09 NDo=     1
 LinEq1:  Iter=  6 NonCon=     1 RMS=1.12D-10 Max=2.58D-10 NDo=     1
 LinEq1:  Iter=  7 NonCon=     0 RMS=2.15D-11 Max=4.71D-11 NDo=     1
 Linear equations converged to 4.050D-11 4.050D-10 after     7 iterations.
 Density matrix breaks symmetry, PCut= 1.00D-04
 Density matrix has no symmetry -- integrals replicated.
 Density matrix is not symmetric, so final MOs not symmetrized.
 SCF Done:  E(UHF) =  -4.88776321363     a.u. after   15 cycles
            Convg  =    0.7879D-07                    71 Fock formations.
              S**2 =  0.9924                  -V/T =  1.9481
 <Sx>= 0.0000 <Sy>= 0.0000 <Sz>= 0.0000 <S**2>= 0.9924 S= 0.6146
 <L.S>= 0.000000000000E+00
 Annihilation of the first spin contaminant:
 S**2 before annihilation     0.9924,   after     1.2015
 Range of M.O.s used for correlation:     1    10
 NBasis=    10 NAE=     5 NBE=     5 NFC=     0 NFV=     0
 NROrb=     10 NOA=     5 NOB=     5 NVA=     5 NVB=     5
 Keep R1 and R2 ints in memory in symmetry-blocked form, NReq=802982.
 Orbital symmetries:
 Alpha Orbitals:
       Occupied  (BG) (BG) (BG) (BG) (BG)
       Virtual   (BG) (BG) (BG) (BG) (BG)
 Beta  Orbitals:
       Occupied  (BG) (BG) (BG) (BG) (BG)
       Virtual   (BG) (BG) (BG) (BG) (BG)
    12 initial guesses have been made.
 Convergence on wavefunction:    0.001000000000000
 Iteration     1 Dimension    12 NMult     0 NNew     12
 CISAX will form    12 AO SS matrices at one time.
 Iteration     2 Dimension    24 NMult    12 NNew     12
 Iteration     3 Dimension    27 NMult    24 NNew      3
 Iteration     4 Dimension    30 NMult    27 NNew      3
 Iteration     5 Dimension    33 NMult    30 NNew      3
 ***********************************************************************
 Stability analysis using <AA,BB:AA,BB> singles matrix:
 ***********************************************************************

 Eigenvectors of the stability matrix:
 
 Eigenvector   1:  2.729-AG   Eigenvalue= 0.0252970  <S**2>=1.612
      4A ->  6A        0.39306
      4A ->  7A       -0.11608
      4A -> 10A        0.10761
      5A ->  6A        0.53481
      4B ->  6B        0.39306
      4B ->  7B       -0.11608
      4B -> 10B        0.10761
      5B ->  6B        0.53481
 SavETr:  write IOETrn=   770 NScale= 10 NData=  16 NLR=1 NState=    1 LETran=      28.
 The wavefunction is stable under the perturbations considered.
 The wavefunction is already stable.

 **********************************************************************

            Population analysis using the SCF density.

 **********************************************************************

 Orbital symmetries:
 Alpha Orbitals:
       Occupied  (BG) (BG) (BG) (BG) (BG)
       Virtual   (BG) (BG) (BG) (BG) (BG)
 Beta  Orbitals:
       Occupied  (BG) (BG) (BG) (BG) (BG)
       Virtual   (BG) (BG) (BG) (BG) (BG)
 Unable to determine electronic state:  partially filled degenerate orbitals.
 Alpha  occ. eigenvalues --   -0.84978  -0.73401  -0.56233  -0.35667  -0.33943
 Alpha virt. eigenvalues --    0.04293   0.19567   0.27445   0.52987   0.57810
  Beta  occ. eigenvalues --   -0.84978  -0.73401  -0.56233  -0.35667  -0.33943
  Beta virt. eigenvalues --    0.04293   0.19567   0.27445   0.52987   0.57810
          Condensed to atoms (all electrons):
               1          2          3          4          5          6
     1  H    0.967207   0.150706   0.079549  -0.138716  -0.036339  -0.001575
     2  H    0.150706   0.842433  -0.069013   0.127566  -0.129334   0.009969
     3  H    0.079549  -0.069013   0.824346  -0.047497   0.254332  -0.104486
     4  H   -0.138716   0.127566  -0.047497   1.203341  -0.003647   0.160752
     5  H   -0.036339  -0.129334   0.254332  -0.003647   0.930113  -0.100720
     6  H   -0.001575   0.009969  -0.104486   0.160752  -0.100720   0.930113
     7  H    0.010469  -0.004858  -0.008945  -0.165700   0.160752  -0.003647
     8  H    0.001789   0.005041  -0.012334  -0.008945  -0.104486   0.254332
     9  H   -0.000320   0.000736   0.005041  -0.004858   0.009969  -0.129334
    10  H   -0.000310  -0.000320   0.001789   0.010469  -0.001575  -0.036339
               7          8          9         10
     1  H    0.010469   0.001789  -0.000320  -0.000310
     2  H   -0.004858   0.005041   0.000736  -0.000320
     3  H   -0.008945  -0.012334   0.005041   0.001789
     4  H   -0.165700  -0.008945  -0.004858   0.010469
     5  H    0.160752  -0.104486   0.009969  -0.001575
     6  H   -0.003647   0.254332  -0.129334  -0.036339
     7  H    1.203341  -0.047497   0.127566  -0.138716
     8  H   -0.047497   0.824346  -0.069013   0.079549
     9  H    0.127566  -0.069013   0.842433   0.150706
    10  H   -0.138716   0.079549   0.150706   0.967207
          Atomic-Atomic Spin Densities.
               1          2          3          4          5          6
     1  H   -0.637471   0.089457  -0.005824   0.059901  -0.001069  -0.010317
     2  H    0.089457   0.608995  -0.172096  -0.043355  -0.086871   0.021788
     3  H   -0.005824  -0.172096   0.544686  -0.178662   0.197070  -0.048332
     4  H    0.059901  -0.043355  -0.178662  -0.136553  -0.004812   0.210552
     5  H   -0.001069  -0.086871   0.197070  -0.004812   0.126672  -0.000000
     6  H   -0.010317   0.021788  -0.048332   0.210552  -0.000000  -0.126672
     7  H   -0.000138   0.013522  -0.003658  -0.000000  -0.210552   0.004812
     8  H   -0.001071   0.001957  -0.000000   0.003658   0.048332  -0.197070
     9  H    0.000994  -0.000000  -0.001957  -0.013522  -0.021788   0.086871
    10  H    0.000000  -0.000994   0.001071   0.000138   0.010317   0.001069
               7          8          9         10
     1  H   -0.000138  -0.001071   0.000994   0.000000
     2  H    0.013522   0.001957  -0.000000  -0.000994
     3  H   -0.003658  -0.000000  -0.001957   0.001071
     4  H   -0.000000   0.003658  -0.013522   0.000138
     5  H   -0.210552   0.048332  -0.021788   0.010317
     6  H    0.004812  -0.197070   0.086871   0.001069
     7  H    0.136553   0.178662   0.043355  -0.059901
     8  H    0.178662  -0.544686   0.172096   0.005824
     9  H    0.043355   0.172096  -0.608995  -0.089457
    10  H   -0.059901   0.005824  -0.089457   0.637471
 Mulliken charges and spin densities:
               1          2
     1  H   -0.032460  -0.505538
     2  H    0.067073   0.432402
     3  H    0.077219   0.332297
     4  H   -0.132767  -0.102655
     5  H    0.020936   0.057298
     6  H    0.020936  -0.057298
     7  H   -0.132767   0.102655
     8  H    0.077219  -0.332297
     9  H    0.067073  -0.432402
    10  H   -0.032460   0.505538
 Sum of Mulliken charges =   0.00000  -0.00000
 Mulliken charges and spin densities with hydrogens summed into heavy atoms:
               1          2
 Electronic spatial extent (au):  <R**2>=            140.5879
 Charge=              0.0000 electrons
 Dipole moment (field-independent basis, Debye):
    X=             -0.0000    Y=             -0.0000    Z=             -0.0000  Tot=              0.0000
 Quadrupole moment (field-independent basis, Debye-Ang):
   XX=            -14.4282   YY=            -14.5742   ZZ=            -12.9423
   XY=              0.2711   XZ=              0.0000   YZ=             -0.0000
 Traceless Quadrupole moment (field-independent basis, Debye-Ang):
   XX=             -0.4466   YY=             -0.5926   ZZ=              1.0393
   XY=              0.2711   XZ=              0.0000   YZ=             -0.0000
 Octapole moment (field-independent basis, Debye-Ang**2):
  XXX=             -0.0000  YYY=             -0.0000  ZZZ=              0.0000  XYY=             -0.0000
  XXY=             -0.0000  XXZ=              0.0000  XZZ=             -0.0000  YZZ=             -0.0000
  YYZ=              0.0000  XYZ=              0.0000
 Hexadecapole moment (field-independent basis, Debye-Ang**3):
 XXXX=           -185.7183 YYYY=           -113.4546 ZZZZ=            -15.6332 XXXY=            -56.3277
 XXXZ=             -0.0000 YYYX=            -54.3525 YYYZ=             -0.0000 ZZZX=             -0.0000
 ZZZY=             -0.0000 XXYY=            -54.0390 XXZZ=            -31.8912 YYZZ=            -20.6350
 XXYZ=             -0.0000 YYXZ=             -0.0000 ZZXY=            -16.2342
 N-N= 1.312926407820D+01 E-N=-3.550519380962D+01  KE= 5.155570336074D+00
 Symmetry AG   KE= 1.986242450959D+00
 Symmetry BG   KE= 0.000000000000D+00
 Symmetry AU   KE= 0.000000000000D+00
 Symmetry BU   KE= 3.169327885115D+00
                          Isotropic Fermi Contact Couplings
        Atom                 a.u.       MegaHertz       Gauss      10(-4) cm-1
     1  H(1)              -0.18322    -409.47515    -146.11091    -136.58621
     2  H(1)               0.16808     375.64046     134.03785     125.30017
     3  H(1)               0.14527     324.65882     115.84634     108.29453
     4  H(1)              -0.04030     -90.06553     -32.13762     -30.04263
     5  H(1)               0.03386      75.66912      27.00062      25.24050
     6  H(1)              -0.03386     -75.66912     -27.00062     -25.24050
     7  H(1)               0.04030      90.06553      32.13762      30.04263
     8  H(1)              -0.14527    -324.65882    -115.84634    -108.29453
     9  H(1)              -0.16808    -375.64046    -134.03785    -125.30017
    10  H(1)               0.18322     409.47515     146.11091     136.58621
 --------------------------------------------------------
       Center         ----  Spin Dipole Couplings  ----
                      3XX-RR        3YY-RR        3ZZ-RR
 --------------------------------------------------------
     1   Atom        0.002046      0.049233     -0.051279
     2   Atom        0.019905     -0.048433      0.028528
     3   Atom        0.042093     -0.057040      0.014947
     4   Atom        0.028815      0.013467     -0.042281
     5   Atom       -0.004266      0.014646     -0.010380
     6   Atom        0.004266     -0.014646      0.010380
     7   Atom       -0.028815     -0.013467      0.042281
     8   Atom       -0.042093      0.057040     -0.014947
     9   Atom       -0.019905      0.048433     -0.028528
    10   Atom       -0.002046     -0.049233      0.051279
 --------------------------------------------------------
                        XY            XZ            YZ
 --------------------------------------------------------
     1   Atom        0.013354     -0.000000     -0.000000
     2   Atom       -0.037248     -0.000000      0.000000
     3   Atom       -0.047623      0.000000     -0.000000
     4   Atom        0.004880     -0.000000     -0.000000
     5   Atom        0.026687     -0.000000     -0.000000
     6   Atom       -0.026687     -0.000000     -0.000000
     7   Atom       -0.004880      0.000000     -0.000000
     8   Atom        0.047623      0.000000      0.000000
     9   Atom        0.037248      0.000000      0.000000
    10   Atom       -0.013354     -0.000000     -0.000000
 --------------------------------------------------------


 ---------------------------------------------------------------------------------
              Anisotropic Spin Dipole Couplings in Principal Axis System
 ---------------------------------------------------------------------------------

       Atom             a.u.   MegaHertz   Gauss  10(-4) cm-1        Axes

              Baa    -0.0513   -27.360    -9.763    -9.126  0.0000  0.0000  1.0000
     1 H(1)   Bbb    -0.0015    -0.785    -0.280    -0.262  0.9670 -0.2547  0.0000
              Bcc     0.0528    28.145    10.043     9.388  0.2547  0.9670 -0.0000
 
              Baa    -0.0648   -34.580   -12.339   -11.535  0.4025  0.9154  0.0000
     2 H(1)   Bbb     0.0285    15.221     5.431     5.077  0.0000  0.0000  1.0000
              Bcc     0.0363    19.359     6.908     6.457  0.9154 -0.4025  0.0000
 
              Baa    -0.0762   -40.663   -14.509   -13.564  0.3734  0.9277  0.0000
     3 H(1)   Bbb     0.0149     7.975     2.846     2.660  0.0000  0.0000  1.0000
              Bcc     0.0613    32.688    11.664    10.903  0.9277 -0.3734  0.0000
 
              Baa    -0.0423   -22.559    -8.050    -7.525  0.0000  0.0000  1.0000
     4 H(1)   Bbb     0.0120     6.427     2.293     2.144 -0.2794  0.9602  0.0000
              Bcc     0.0302    16.132     5.756     5.381  0.9602  0.2794  0.0000
 
              Baa    -0.0231   -12.337    -4.402    -4.115  0.8167 -0.5771  0.0000
     5 H(1)   Bbb    -0.0104    -5.538    -1.976    -1.847  0.0000  0.0000  1.0000
              Bcc     0.0335    17.876     6.378     5.963  0.5771  0.8167  0.0000
 
              Baa    -0.0335   -17.876    -6.378    -5.963  0.5771  0.8167  0.0000
     6 H(1)   Bbb     0.0104     5.538     1.976     1.847  0.0000  0.0000  1.0000
              Bcc     0.0231    12.337     4.402     4.115  0.8167 -0.5771  0.0000
 
              Baa    -0.0302   -16.132    -5.756    -5.381  0.9602  0.2794  0.0000
     7 H(1)   Bbb    -0.0120    -6.427    -2.293    -2.144 -0.2794  0.9602 -0.0000
              Bcc     0.0423    22.559     8.050     7.525  0.0000  0.0000  1.0000
 
              Baa    -0.0613   -32.688   -11.664   -10.903  0.9277 -0.3734  0.0000
     8 H(1)   Bbb    -0.0149    -7.975    -2.846    -2.660  0.0000  0.0000  1.0000
              Bcc     0.0762    40.663    14.509    13.564  0.3734  0.9277  0.0000
 
              Baa    -0.0363   -19.359    -6.908    -6.457  0.9154 -0.4025  0.0000
     9 H(1)   Bbb    -0.0285   -15.221    -5.431    -5.077  0.0000  0.0000  1.0000
              Bcc     0.0648    34.580    12.339    11.535  0.4025  0.9154  0.0000
 
              Baa    -0.0528   -28.145   -10.043    -9.388  0.2547  0.9670  0.0000
    10 H(1)   Bbb     0.0015     0.785     0.280     0.262  0.9670 -0.2547  0.0000
              Bcc     0.0513    27.360     9.763     9.126  0.0000  0.0000  1.0000
 

 ---------------------------------------------------------------------------------


 Test job not archived.
 1\1\GINC-SULU\Stability\UHF\Gen\H10\LCJ1\22-Feb-2017\0\\#rhf/gen scf(s
 ymm,tight,novaracc,noincfock,fulldiag) stable=opt guess=read geom=nocr
 owd test\\hf stability analysis of h10 triangular lattice, y= 1.020572
 1581109972\\0,1\H\H,1,1.1668753094\H,1,1.1668753094,2,58.\H,2,1.166875
 3094,1,122.,3,0.,0\H,3,1.1668753094,1,180.,2,0.,0\H,4,1.1668753094,2,1
 80.,1,0.,0\H,5,1.1668753094,3,180.,2,0.,0\H,6,1.1668753094,4,180.,1,0.
 ,0\H,7,1.1668753094,5,180.,2,0.,0\H,8,1.1668753094,6,180.,1,0.,0\\Vers
 ion=ES64L-G09RevE.01\State=1-AG\HF=-4.8877632\S2=0.992389\S2-1=0.\S2A=
 1.201456\RMSD=4.320e-09\Dipole=0.,0.,0.\Quadrupole=-0.3320687,0.772682
 8,-0.4406141,0.,0.2015773,0.\PG=C02H [SGH(H10)]\\@


 K N O W I N G  IS A BARRIER WHICH PREVENTS LEARNING

                     -- TEACHING OF THE BENE GESSERIT
 Job cpu time:       0 days  0 hours  0 minutes  1.2 seconds.
 File lengths (MBytes):  RWF=     77 Int=      0 D2E=      0 Chk=      2 Scr=      2
 Normal termination of Gaussian 09 at Wed Feb 22 12:37:32 2017.
