 Entering Gaussian System, Link 0=g09
 AtFile(1): H.gbs
            H     0
            S   10   1.00
               1000.000000000000            0.000068713567
                316.227766000000            0.000169141320
                100.000000000000            0.000823394812
                 31.622776600000            0.003425569236
                 10.000000000000            0.013951996000
                  3.162277660000            0.056909313560
                  1.000000000000            0.198286399900
                  0.316227766000            0.496922426700
                  0.100000000000            0.369846276400
                  0.031622776600            0.003752720039
            ****
 Initial command:
 /projects/guscus/apps/gau/g09-e1/g09/l1.exe "/users/lcj1/gaussian/h10/rhfstability/2rows/zmat/guessfrommix/alpha45/fwd/Gau-21864.inp" -scrdir="/users/lcj1/gaussian/h10/rhfstability/2rows/zmat/guessfrommix/alpha45/fwd/"
 Entering Link 1 = /projects/guscus/apps/gau/g09-e1/g09/l1.exe PID=     21865.
  
 Copyright (c) 1988,1990,1992,1993,1995,1998,2003,2009,2015,
            Gaussian, Inc.  All Rights Reserved.
  
 This is part of the Gaussian(R) 09 program.  It is based on
 the Gaussian(R) 03 system (copyright 2003, Gaussian, Inc.),
 the Gaussian(R) 98 system (copyright 1998, Gaussian, Inc.),
 the Gaussian(R) 94 system (copyright 1995, Gaussian, Inc.),
 the Gaussian 92(TM) system (copyright 1992, Gaussian, Inc.),
 the Gaussian 90(TM) system (copyright 1990, Gaussian, Inc.),
 the Gaussian 88(TM) system (copyright 1988, Gaussian, Inc.),
 the Gaussian 86(TM) system (copyright 1986, Carnegie Mellon
 University), and the Gaussian 82(TM) system (copyright 1983,
 Carnegie Mellon University). Gaussian is a federally registered
 trademark of Gaussian, Inc.
  
 This software contains proprietary and confidential information,
 including trade secrets, belonging to Gaussian, Inc.
  
 This software is provided under written license and may be
 used, copied, transmitted, or stored only in accord with that
 written license.
  
 The following legend is applicable only to US Government
 contracts under FAR:
  
                    RESTRICTED RIGHTS LEGEND
  
 Use, reproduction and disclosure by the US Government is
 subject to restrictions as set forth in subparagraphs (a)
 and (c) of the Commercial Computer Software - Restricted
 Rights clause in FAR 52.227-19.
  
 Gaussian, Inc.
 340 Quinnipiac St., Bldg. 40, Wallingford CT 06492
  
  
 ---------------------------------------------------------------
 Warning -- This program may not be used in any manner that
 competes with the business of Gaussian, Inc. or will provide
 assistance to any competitor of Gaussian, Inc.  The licensee
 of this program is prohibited from giving any competitor of
 Gaussian, Inc. access to this program.  By using this program,
 the user acknowledges that Gaussian, Inc. is engaged in the
 business of creating and licensing software in the field of
 computational chemistry and represents and warrants to the
 licensee that it is not a competitor of Gaussian, Inc. and that
 it will not use this program in any manner prohibited above.
 ---------------------------------------------------------------
  

 Cite this work as:
 Gaussian 09, Revision E.01,
 M. J. Frisch, G. W. Trucks, H. B. Schlegel, G. E. Scuseria, 
 M. A. Robb, J. R. Cheeseman, G. Scalmani, V. Barone, B. Mennucci, 
 G. A. Petersson, H. Nakatsuji, M. Caricato, X. Li, H. P. Hratchian, 
 A. F. Izmaylov, J. Bloino, G. Zheng, J. L. Sonnenberg, M. Hada, 
 M. Ehara, K. Toyota, R. Fukuda, J. Hasegawa, M. Ishida, T. Nakajima, 
 Y. Honda, O. Kitao, H. Nakai, T. Vreven, J. A. Montgomery, Jr., 
 J. E. Peralta, F. Ogliaro, M. Bearpark, J. J. Heyd, E. Brothers, 
 K. N. Kudin, V. N. Staroverov, T. Keith, R. Kobayashi, J. Normand, 
 K. Raghavachari, A. Rendell, J. C. Burant, S. S. Iyengar, J. Tomasi, 
 M. Cossi, N. Rega, J. M. Millam, M. Klene, J. E. Knox, J. B. Cross, 
 V. Bakken, C. Adamo, J. Jaramillo, R. Gomperts, R. E. Stratmann, 
 O. Yazyev, A. J. Austin, R. Cammi, C. Pomelli, J. W. Ochterski, 
 R. L. Martin, K. Morokuma, V. G. Zakrzewski, G. A. Voth, 
 P. Salvador, J. J. Dannenberg, S. Dapprich, A. D. Daniels, 
 O. Farkas, J. B. Foresman, J. V. Ortiz, J. Cioslowski, 
 and D. J. Fox, Gaussian, Inc., Wallingford CT, 2013.
 
 ******************************************
 Gaussian 09:  ES64L-G09RevE.01 30-Nov-2015
                20-Feb-2017 
 ******************************************
 %chk=h10.chk
 ----------------------------------------------------------------------
 #rhf/gen scf(symm,tight,novaracc,noincfock,fulldiag) stable(crhf) gues
 s=read geom=nocrowd test
 ----------------------------------------------------------------------
 1/38=1/1;
 2/12=1,17=6,18=5,40=1/2;
 3/5=7,16=1,25=1,30=1,116=1/1,2,3;
 4/5=1,9=4/1;
 5/5=100002,15=2,16=1,32=2,38=6/2;
 8/6=1,10=90,11=11/1,4;
 9/8=4,13=1/2;
 6/7=2,8=2,9=2,10=2,28=1/1;
 99/5=1,9=1/99;
 ----------------------------------------------------------------------
 hf stability analysis of h10 triangular lattice, y= 0.9080427759821990
 7
 ----------------------------------------------------------------------
 Symbolic Z-matrix:
 Charge =  0 Multiplicity = 1
 H
 H                    1     1.10852 
 H                    1     1.10852  2     70. 
 H                    2     1.10852  1     110.     3     0.       0
 H                    3     1.10852  1     180.     2     0.       0
 H                    4     1.10852  2     180.     1     0.       0
 H                    5     1.10852  3     180.     2     0.       0
 H                    6     1.10852  4     180.     1     0.       0
 H                    7     1.10852  5     180.     2     0.       0
 H                    8     1.10852  6     180.     1     0.       0
 
                          Input orientation:                          
 ---------------------------------------------------------------------
 Center     Atomic      Atomic             Coordinates (Angstroms)
 Number     Number       Type             X           Y           Z
 ---------------------------------------------------------------------
      1          1           0        0.000000    0.000000    0.000000
      2          1           0        0.000000    0.000000    1.108516
      3          1           0        1.041664    0.000000    0.379135
      4          1           0        1.041664    0.000000    1.487650
      5          1           0        2.083328    0.000000    0.758269
      6          1           0        2.083328    0.000000    1.866785
      7          1           0        3.124992    0.000000    1.137404
      8          1           0        3.124992    0.000000    2.245919
      9          1           0        4.166655    0.000000    1.516539
     10          1           0        4.166655    0.000000    2.625054
 ---------------------------------------------------------------------
                    Distance matrix (angstroms):
                    1          2          3          4          5
     1  H    0.000000
     2  H    1.108516   0.000000
     3  H    1.108516   1.271637   0.000000
     4  H    1.816086   1.108516   1.108516   0.000000
     5  H    2.217031   2.112564   1.108516   1.271637   0.000000
     6  H    2.797345   2.217031   1.816086   1.108516   1.108516
     7  H    3.325547   3.125125   2.217031   2.112564   1.108516
     8  H    3.848341   3.325547   2.797345   2.217031   1.816086
     9  H    4.434062   4.186586   3.325547   3.125125   2.217031
    10  H    4.924625   4.434062   3.848341   3.325547   2.797345
                    6          7          8          9         10
     6  H    0.000000
     7  H    1.271637   0.000000
     8  H    1.108516   1.108516   0.000000
     9  H    2.112564   1.108516   1.271637   0.000000
    10  H    2.217031   1.816086   1.108516   1.108516   0.000000
 Stoichiometry    H10
 Framework group  C2H[SGH(H10)]
 Deg. of freedom     9
 Full point group                 C2H     NOp   4
 Largest Abelian subgroup         C2H     NOp   4
 Largest concise Abelian subgroup C2      NOp   2
                         Standard orientation:                         
 ---------------------------------------------------------------------
 Center     Atomic      Atomic             Coordinates (Angstroms)
 Number     Number       Type             X           Y           Z
 ---------------------------------------------------------------------
      1          1           0        2.083328    1.312527    0.000000
      2          1           0        2.083328    0.204012    0.000000
      3          1           0        1.041664    0.933392    0.000000
      4          1           0        1.041664   -0.175123    0.000000
      5          1           0       -0.000000    0.554258    0.000000
      6          1           0       -0.000000   -0.554258    0.000000
      7          1           0       -1.041664    0.175123    0.000000
      8          1           0       -1.041664   -0.933392    0.000000
      9          1           0       -2.083328   -0.204012    0.000000
     10          1           0       -2.083328   -1.312527    0.000000
 ---------------------------------------------------------------------
 Rotational constants (GHZ):    187.8897302     20.0748498     18.1370218
 General basis read from cards:  (5D, 7F)
 There are     5 symmetry adapted cartesian basis functions of AG  symmetry.
 There are     0 symmetry adapted cartesian basis functions of BG  symmetry.
 There are     0 symmetry adapted cartesian basis functions of AU  symmetry.
 There are     5 symmetry adapted cartesian basis functions of BU  symmetry.
 There are     5 symmetry adapted basis functions of AG  symmetry.
 There are     0 symmetry adapted basis functions of BG  symmetry.
 There are     0 symmetry adapted basis functions of AU  symmetry.
 There are     5 symmetry adapted basis functions of BU  symmetry.
    10 basis functions,   100 primitive gaussians,    10 cartesian basis functions
     5 alpha electrons        5 beta electrons
       nuclear repulsion energy        13.5097838980 Hartrees.
 NAtoms=   10 NActive=   10 NUniq=    5 SFac= 4.00D+00 NAtFMM=   60 NAOKFM=F Big=F
 Integral buffers will be    131072 words long.
 Regular integral format.
 Two-electron integral symmetry is turned on.
 One-electron integrals computed using PRISM.
 NBasis=    10 RedAO= T EigKep=  1.51D-01  NBF=     5     0     0     5
 NBsUse=    10 1.00D-06 EigRej= -1.00D+00 NBFU=     5     0     0     5
 Initial guess from the checkpoint file:  "h10.chk"
 B after Tr=    -0.000000    0.000000    0.000000
         Rot=    0.999992    0.000000    0.000000   -0.003879 Ang=  -0.44 deg.
 Initial guess orbital symmetries:
       Occupied  (AG) (BU) (AG) (BU) (AG)
       Virtual   (BU) (BU) (AG) (AG) (BU)
 Keep R1 ints in memory in symmetry-blocked form, NReq=879469.
 Requested convergence on RMS density matrix=1.00D-08 within 128 cycles.
 Requested convergence on MAX density matrix=1.00D-06.
 Requested convergence on             energy=1.00D-06.
 No special actions if energy rises.
 SCF Done:  E(RHF) =  -4.82695196789     A.U. after    8 cycles
            NFock=  8  Conv=0.48D-08     -V/T= 1.9415
 Range of M.O.s used for correlation:     1    10
 NBasis=    10 NAE=     5 NBE=     5 NFC=     0 NFV=     0
 NROrb=     10 NOA=     5 NOB=     5 NVA=     5 NVB=     5
 Semi-Direct transformation.
 ModeAB=           4 MOrb=             5 LenV=     134107176
 LASXX=         1030 LTotXX=        1030 LenRXX=        2480
 LTotAB=        1450 MaxLAS=        1500 LenRXY=           0
 NonZer=        3510 LenScr=      655360 LnRSAI=        1500
 LnScr1=      655360 LExtra=           0 Total=      1314700
 MaxDsk=          -1 SrtSym=           T ITran=            3
 JobTyp=0 Pass  1:  I=   1 to   5.
 (rs|ai) integrals will be sorted in core.
 Spin components of T(2) and E(2):
     alpha-alpha T2 =       0.6796953689D-02 E2=     -0.8792195793D-02
     alpha-beta  T2 =       0.6757364584D-01 E2=     -0.9147374279D-01
     beta-beta   T2 =       0.6796953689D-02 E2=     -0.8792195793D-02
 ANorm=    0.1039792072D+01
 E2 =    -0.1090581344D+00 EUMP2 =    -0.49360101022699D+01
 Second order stability test of a single determinant RHF wave function:
 Stabil:  MDV=134217728
 ***********************************************************************
 Matrix         Lowest Root    Major Pairs
 ***********************************************************************
 Internal RHF     0.0087181    Stable
 RRHF --> CRHF   -0.037724     5A=6A
 RRHF --> RUHF   -0.1549197    5A=6B
 Not stable.
 ***********************************************************************

 **********************************************************************

            Population analysis using the SCF density.

 **********************************************************************

 Orbital symmetries:
       Occupied  (AG) (BU) (AG) (BU) (AG)
       Virtual   (BU) (BU) (AG) (AG) (BU)
 The electronic state is 1-AG.
 Alpha  occ. eigenvalues --   -0.86367  -0.73693  -0.53137  -0.43603  -0.28050
 Alpha virt. eigenvalues --   -0.04306   0.19031   0.29808   0.54223   0.73365
          Condensed to atoms (all electrons):
               1          2          3          4          5          6
     1  H    0.676204  -0.087140   0.423737  -0.130065   0.011736  -0.025755
     2  H   -0.087140   1.027750  -0.204003   0.483774  -0.118244  -0.036234
     3  H    0.423737  -0.204003   1.000245  -0.359235   0.239338  -0.050255
     4  H   -0.130065   0.483774  -0.359235   1.095028  -0.198014   0.189114
     5  H    0.011736  -0.118244   0.239338  -0.198014   0.874128   0.115440
     6  H   -0.025755  -0.036234  -0.050255   0.189114   0.115440   0.874128
     7  H   -0.008289   0.008276  -0.035509   0.002583   0.189114  -0.198014
     8  H    0.003402  -0.011623   0.013932  -0.035509  -0.050255   0.239338
     9  H   -0.000639   0.005126  -0.011623   0.008276  -0.036234  -0.118244
    10  H    0.000821  -0.000639   0.003402  -0.008289  -0.025755   0.011736
               7          8          9         10
     1  H   -0.008289   0.003402  -0.000639   0.000821
     2  H    0.008276  -0.011623   0.005126  -0.000639
     3  H   -0.035509   0.013932  -0.011623   0.003402
     4  H    0.002583  -0.035509   0.008276  -0.008289
     5  H    0.189114  -0.050255  -0.036234  -0.025755
     6  H   -0.198014   0.239338  -0.118244   0.011736
     7  H    1.095028  -0.359235   0.483774  -0.130065
     8  H   -0.359235   1.000245  -0.204003   0.423737
     9  H    0.483774  -0.204003   1.027750  -0.087140
    10  H   -0.130065   0.423737  -0.087140   0.676204
 Mulliken charges:
               1
     1  H    0.135988
     2  H   -0.067044
     3  H   -0.020029
     4  H   -0.047662
     5  H   -0.001253
     6  H   -0.001253
     7  H   -0.047662
     8  H   -0.020029
     9  H   -0.067044
    10  H    0.135988
 Sum of Mulliken charges =  -0.00000
 Mulliken charges with hydrogens summed into heavy atoms:
               1
 Electronic spatial extent (au):  <R**2>=            127.6835
 Charge=             -0.0000 electrons
 Dipole moment (field-independent basis, Debye):
    X=              0.0000    Y=              0.0000    Z=              0.0000  Tot=              0.0000
 Quadrupole moment (field-independent basis, Debye-Ang):
   XX=            -11.1064   YY=            -14.8601   ZZ=            -12.9725
   XY=              4.8309   XZ=              0.0000   YZ=              0.0000
 Traceless Quadrupole moment (field-independent basis, Debye-Ang):
   XX=              1.8733   YY=             -1.8804   ZZ=              0.0072
   XY=              4.8309   XZ=              0.0000   YZ=              0.0000
 Octapole moment (field-independent basis, Debye-Ang**2):
  XXX=              0.0000  YYY=             -0.0000  ZZZ=             -0.0000  XYY=              0.0000
  XXY=              0.0000  XXZ=             -0.0000  XZZ=              0.0000  YZZ=             -0.0000
  YYZ=             -0.0000  XYZ=              0.0000
 Hexadecapole moment (field-independent basis, Debye-Ang**3):
 XXXX=           -160.0525 YYYY=            -71.7416 ZZZZ=            -15.6968 XXXY=             -0.6240
 XXXZ=              0.0000 YYYX=            -26.8567 YYYZ=              0.0000 ZZZX=             -0.0000
 ZZZY=             -0.0000 XXYY=            -34.4734 XXZZ=            -33.5883 YYZZ=            -14.1610
 XXYZ=             -0.0000 YYXZ=              0.0000 ZZXY=             -9.1797
 N-N= 1.350978389801D+01 E-N=-3.610321707429D+01  KE= 5.126746210421D+00
 Symmetry AG   KE= 3.164585312609D+00
 Symmetry BG   KE= 0.000000000000D+00
 Symmetry AU   KE= 0.000000000000D+00
 Symmetry BU   KE= 1.962160897812D+00

 Test job not archived.
 1\1\GINC-SULU\Stability\RHF\Gen\H10\LCJ1\20-Feb-2017\0\\#rhf/gen scf(s
 ymm,tight,novaracc,noincfock,fulldiag) stable(crhf) guess=read geom=no
 crowd test\\hf stability analysis of h10 triangular lattice, y= 0.9080
 4277598219907\\0,1\H\H,1,1.1085155257\H,1,1.1085155257,2,70.\H,2,1.108
 5155257,1,110.,3,0.,0\H,3,1.1085155257,1,180.,2,0.,0\H,4,1.1085155257,
 2,180.,1,0.,0\H,5,1.1085155257,3,180.,2,0.,0\H,6,1.1085155257,4,180.,1
 ,0.,0\H,7,1.1085155257,5,180.,2,0.,0\H,8,1.1085155257,6,180.,1,0.,0\\V
 ersion=ES64L-G09RevE.01\State=1-AG\HF=-4.826952\MP2=-4.9360101\RMSD=4.
 822e-09\Dipole=0.,0.,0.\Quadrupole=1.3927425,0.00532,-1.3980625,0.,3.5
 916771,0.\PG=C02H [SGH(H10)]\\@


 DESK:  A WASTEBASKET WITH DRAWERS.
 Job cpu time:       0 days  0 hours  0 minutes  0.8 seconds.
 File lengths (MBytes):  RWF=     84 Int=      0 D2E=      0 Chk=      2 Scr=      2
 Normal termination of Gaussian 09 at Mon Feb 20 11:37:24 2017.
