 Entering Gaussian System, Link 0=g09
 AtFile(1): H.gbs
            H     0
            S   10   1.00
               1000.000000000000            0.000068713567
                316.227766000000            0.000169141320
                100.000000000000            0.000823394812
                 31.622776600000            0.003425569236
                 10.000000000000            0.013951996000
                  3.162277660000            0.056909313560
                  1.000000000000            0.198286399900
                  0.316227766000            0.496922426700
                  0.100000000000            0.369846276400
                  0.031622776600            0.003752720039
            ****
 Initial command:
 /projects/guscus/apps/gau/g09-e1/g09/l1.exe "/users/lcj1/gaussian/h10/rhfstability/2rows/zmat/guessfrommix/alpha45/fwd/Gau-19933.inp" -scrdir="/users/lcj1/gaussian/h10/rhfstability/2rows/zmat/guessfrommix/alpha45/fwd/"
 Entering Link 1 = /projects/guscus/apps/gau/g09-e1/g09/l1.exe PID=     19934.
  
 Copyright (c) 1988,1990,1992,1993,1995,1998,2003,2009,2015,
            Gaussian, Inc.  All Rights Reserved.
  
 This is part of the Gaussian(R) 09 program.  It is based on
 the Gaussian(R) 03 system (copyright 2003, Gaussian, Inc.),
 the Gaussian(R) 98 system (copyright 1998, Gaussian, Inc.),
 the Gaussian(R) 94 system (copyright 1995, Gaussian, Inc.),
 the Gaussian 92(TM) system (copyright 1992, Gaussian, Inc.),
 the Gaussian 90(TM) system (copyright 1990, Gaussian, Inc.),
 the Gaussian 88(TM) system (copyright 1988, Gaussian, Inc.),
 the Gaussian 86(TM) system (copyright 1986, Carnegie Mellon
 University), and the Gaussian 82(TM) system (copyright 1983,
 Carnegie Mellon University). Gaussian is a federally registered
 trademark of Gaussian, Inc.
  
 This software contains proprietary and confidential information,
 including trade secrets, belonging to Gaussian, Inc.
  
 This software is provided under written license and may be
 used, copied, transmitted, or stored only in accord with that
 written license.
  
 The following legend is applicable only to US Government
 contracts under FAR:
  
                    RESTRICTED RIGHTS LEGEND
  
 Use, reproduction and disclosure by the US Government is
 subject to restrictions as set forth in subparagraphs (a)
 and (c) of the Commercial Computer Software - Restricted
 Rights clause in FAR 52.227-19.
  
 Gaussian, Inc.
 340 Quinnipiac St., Bldg. 40, Wallingford CT 06492
  
  
 ---------------------------------------------------------------
 Warning -- This program may not be used in any manner that
 competes with the business of Gaussian, Inc. or will provide
 assistance to any competitor of Gaussian, Inc.  The licensee
 of this program is prohibited from giving any competitor of
 Gaussian, Inc. access to this program.  By using this program,
 the user acknowledges that Gaussian, Inc. is engaged in the
 business of creating and licensing software in the field of
 computational chemistry and represents and warrants to the
 licensee that it is not a competitor of Gaussian, Inc. and that
 it will not use this program in any manner prohibited above.
 ---------------------------------------------------------------
  

 Cite this work as:
 Gaussian 09, Revision E.01,
 M. J. Frisch, G. W. Trucks, H. B. Schlegel, G. E. Scuseria, 
 M. A. Robb, J. R. Cheeseman, G. Scalmani, V. Barone, B. Mennucci, 
 G. A. Petersson, H. Nakatsuji, M. Caricato, X. Li, H. P. Hratchian, 
 A. F. Izmaylov, J. Bloino, G. Zheng, J. L. Sonnenberg, M. Hada, 
 M. Ehara, K. Toyota, R. Fukuda, J. Hasegawa, M. Ishida, T. Nakajima, 
 Y. Honda, O. Kitao, H. Nakai, T. Vreven, J. A. Montgomery, Jr., 
 J. E. Peralta, F. Ogliaro, M. Bearpark, J. J. Heyd, E. Brothers, 
 K. N. Kudin, V. N. Staroverov, T. Keith, R. Kobayashi, J. Normand, 
 K. Raghavachari, A. Rendell, J. C. Burant, S. S. Iyengar, J. Tomasi, 
 M. Cossi, N. Rega, J. M. Millam, M. Klene, J. E. Knox, J. B. Cross, 
 V. Bakken, C. Adamo, J. Jaramillo, R. Gomperts, R. E. Stratmann, 
 O. Yazyev, A. J. Austin, R. Cammi, C. Pomelli, J. W. Ochterski, 
 R. L. Martin, K. Morokuma, V. G. Zakrzewski, G. A. Voth, 
 P. Salvador, J. J. Dannenberg, S. Dapprich, A. D. Daniels, 
 O. Farkas, J. B. Foresman, J. V. Ortiz, J. Cioslowski, 
 and D. J. Fox, Gaussian, Inc., Wallingford CT, 2013.
 
 ******************************************
 Gaussian 09:  ES64L-G09RevE.01 30-Nov-2015
                20-Feb-2017 
 ******************************************
 %chk=h10.chk
 ----------------------------------------------------------------------
 #rhf/gen scf(symm,tight,novaracc,noincfock,fulldiag) stable(crhf) gues
 s=read geom=nocrowd test
 ----------------------------------------------------------------------
 1/38=1/1;
 2/12=1,17=6,18=5,40=1/2;
 3/5=7,16=1,25=1,30=1,116=1/1,2,3;
 4/5=1,9=4/1;
 5/5=100002,15=2,16=1,32=2,38=6/2;
 8/6=1,10=90,11=11/1,4;
 9/8=4,13=1/2;
 6/7=2,8=2,9=2,10=2,28=1/1;
 99/5=1,9=1/99;
 ----------------------------------------------------------------------
 hf stability analysis of h10 triangular lattice, y= 0.8149635215757493
 6
 ----------------------------------------------------------------------
 Symbolic Z-matrix:
 Charge =  0 Multiplicity = 1
 H
 H                    1     1.07984 
 H                    1     1.07984  2     82. 
 H                    2     1.07984  1     98.      3     0.       0
 H                    3     1.07984  1     180.     2     0.       0
 H                    4     1.07984  2     180.     1     0.       0
 H                    5     1.07984  3     180.     2     0.       0
 H                    6     1.07984  4     180.     1     0.       0
 H                    7     1.07984  5     180.     2     0.       0
 H                    8     1.07984  6     180.     1     0.       0
 
                          Input orientation:                          
 ---------------------------------------------------------------------
 Center     Atomic      Atomic             Coordinates (Angstroms)
 Number     Number       Type             X           Y           Z
 ---------------------------------------------------------------------
      1          1           0        0.000000    0.000000    0.000000
      2          1           0        0.000000    0.000000    1.079837
      3          1           0        1.069328    0.000000    0.150284
      4          1           0        1.069328    0.000000    1.230122
      5          1           0        2.138657    0.000000    0.300569
      6          1           0        2.138657    0.000000    1.380406
      7          1           0        3.207985    0.000000    0.450853
      8          1           0        3.207985    0.000000    1.530690
      9          1           0        4.277313    0.000000    0.601137
     10          1           0        4.277313    0.000000    1.680974
 ---------------------------------------------------------------------
                    Distance matrix (angstroms):
                    1          2          3          4          5
     1  H    0.000000
     2  H    1.079837   0.000000
     3  H    1.079837   1.416874   0.000000
     4  H    1.629927   1.079837   1.079837   0.000000
     5  H    2.159674   2.276206   1.079837   1.416874   0.000000
     6  H    2.545461   2.159674   1.629927   1.079837   1.079837
     7  H    3.239512   3.269065   2.159674   2.276206   1.079837
     8  H    3.554459   3.239512   2.545461   2.159674   1.629927
     9  H    4.319349   4.304017   3.239512   3.269065   2.159674
    10  H    4.595768   4.319349   3.554459   3.239512   2.545461
                    6          7          8          9         10
     6  H    0.000000
     7  H    1.416874   0.000000
     8  H    1.079837   1.079837   0.000000
     9  H    2.276206   1.079837   1.416874   0.000000
    10  H    2.159674   1.629927   1.079837   1.079837   0.000000
 Stoichiometry    H10
 Framework group  C2H[SGH(H10)]
 Deg. of freedom     9
 Full point group                 C2H     NOp   4
 Largest Abelian subgroup         C2H     NOp   4
 Largest concise Abelian subgroup C2      NOp   2
                         Standard orientation:                         
 ---------------------------------------------------------------------
 Center     Atomic      Atomic             Coordinates (Angstroms)
 Number     Number       Type             X           Y           Z
 ---------------------------------------------------------------------
      1          1           0        2.138657    0.840487    0.000000
      2          1           0        2.138657   -0.239350    0.000000
      3          1           0        1.069328    0.690203    0.000000
      4          1           0        1.069328   -0.389634    0.000000
      5          1           0        0.000000    0.539919    0.000000
      6          1           0       -0.000000   -0.539919    0.000000
      7          1           0       -1.069328    0.389634    0.000000
      8          1           0       -1.069328   -0.690203    0.000000
      9          1           0       -2.138657    0.239350    0.000000
     10          1           0       -2.138657   -0.840487    0.000000
 ---------------------------------------------------------------------
 Rotational constants (GHZ):    175.9001357     21.4431797     19.1131795
 General basis read from cards:  (5D, 7F)
 There are     5 symmetry adapted cartesian basis functions of AG  symmetry.
 There are     0 symmetry adapted cartesian basis functions of BG  symmetry.
 There are     0 symmetry adapted cartesian basis functions of AU  symmetry.
 There are     5 symmetry adapted cartesian basis functions of BU  symmetry.
 There are     5 symmetry adapted basis functions of AG  symmetry.
 There are     0 symmetry adapted basis functions of BG  symmetry.
 There are     0 symmetry adapted basis functions of AU  symmetry.
 There are     5 symmetry adapted basis functions of BU  symmetry.
    10 basis functions,   100 primitive gaussians,    10 cartesian basis functions
     5 alpha electrons        5 beta electrons
       nuclear repulsion energy        13.7125698450 Hartrees.
 NAtoms=   10 NActive=   10 NUniq=    5 SFac= 4.00D+00 NAtFMM=   60 NAOKFM=F Big=F
 Integral buffers will be    131072 words long.
 Regular integral format.
 Two-electron integral symmetry is turned on.
 One-electron integrals computed using PRISM.
 NBasis=    10 RedAO= T EigKep=  1.26D-01  NBF=     5     0     0     5
 NBsUse=    10 1.00D-06 EigRej= -1.00D+00 NBFU=     5     0     0     5
 Initial guess from the checkpoint file:  "h10.chk"
 B after Tr=     0.000000   -0.000000   -0.000000
         Rot=    0.999992   -0.000000    0.000000   -0.003879 Ang=  -0.44 deg.
 Initial guess orbital symmetries:
       Occupied  (AG) (BU) (AG) (BU) (AG)
       Virtual   (BU) (BU) (AG) (AG) (BU)
 Keep R1 ints in memory in symmetry-blocked form, NReq=879371.
 Requested convergence on RMS density matrix=1.00D-08 within 128 cycles.
 Requested convergence on MAX density matrix=1.00D-06.
 Requested convergence on             energy=1.00D-06.
 No special actions if energy rises.
 SCF Done:  E(RHF) =  -4.87770554307     A.U. after    8 cycles
            NFock=  8  Conv=0.55D-08     -V/T= 1.9560
 Range of M.O.s used for correlation:     1    10
 NBasis=    10 NAE=     5 NBE=     5 NFC=     0 NFV=     0
 NROrb=     10 NOA=     5 NOB=     5 NVA=     5 NVB=     5
 Semi-Direct transformation.
 ModeAB=           4 MOrb=             5 LenV=     134107148
 LASXX=         1030 LTotXX=        1030 LenRXX=        2480
 LTotAB=        1450 MaxLAS=        1500 LenRXY=           0
 NonZer=        3510 LenScr=      655360 LnRSAI=        1500
 LnScr1=      655360 LExtra=           0 Total=      1314700
 MaxDsk=          -1 SrtSym=           T ITran=            3
 JobTyp=0 Pass  1:  I=   1 to   5.
 (rs|ai) integrals will be sorted in core.
 Spin components of T(2) and E(2):
     alpha-alpha T2 =       0.6917481807D-02 E2=     -0.9067896397D-02
     alpha-beta  T2 =       0.6227007668D-01 E2=     -0.8740751871D-01
     beta-beta   T2 =       0.6917481807D-02 E2=     -0.9067896397D-02
 ANorm=    0.1037354829D+01
 E2 =    -0.1055433115D+00 EUMP2 =    -0.49832488545789D+01
 Second order stability test of a single determinant RHF wave function:
 Stabil:  MDV=134217728
 ***********************************************************************
 Matrix         Lowest Root    Major Pairs
 ***********************************************************************
 Internal RHF     0.0612122    Stable
 RRHF --> CRHF    0.002635     Stable
 RRHF --> RUHF   -0.137537     5A=6B
 Not stable.
 ***********************************************************************

 **********************************************************************

            Population analysis using the SCF density.

 **********************************************************************

 Orbital symmetries:
       Occupied  (AG) (BU) (AG) (BU) (AG)
       Virtual   (BU) (BU) (AG) (AG) (BU)
 The electronic state is 1-AG.
 Alpha  occ. eigenvalues --   -0.87540  -0.74395  -0.52729  -0.46353  -0.30702
 Alpha virt. eigenvalues --   -0.01871   0.16013   0.35502   0.51925   0.87316
          Condensed to atoms (all electrons):
               1          2          3          4          5          6
     1  H    0.735219  -0.056225   0.437888  -0.145280  -0.005486  -0.044273
     2  H   -0.056225   0.881812  -0.178265   0.462824  -0.080452  -0.023938
     3  H    0.437888  -0.178265   1.029757  -0.372446   0.230096  -0.082764
     4  H   -0.145280   0.462824  -0.372446   1.052492  -0.139582   0.208307
     5  H   -0.005486  -0.080452   0.230096  -0.139582   0.853407   0.097371
     6  H   -0.044273  -0.023938  -0.082764   0.208307   0.097371   0.853407
     7  H   -0.011277   0.007620  -0.043096   0.015563   0.208307  -0.139582
     8  H    0.005363  -0.012741   0.017798  -0.043096  -0.082764   0.230096
     9  H   -0.000639   0.003570  -0.012741   0.007620  -0.023938  -0.080452
    10  H    0.001741  -0.000639   0.005363  -0.011277  -0.044273  -0.005486
               7          8          9         10
     1  H   -0.011277   0.005363  -0.000639   0.001741
     2  H    0.007620  -0.012741   0.003570  -0.000639
     3  H   -0.043096   0.017798  -0.012741   0.005363
     4  H    0.015563  -0.043096   0.007620  -0.011277
     5  H    0.208307  -0.082764  -0.023938  -0.044273
     6  H   -0.139582   0.230096  -0.080452  -0.005486
     7  H    1.052492  -0.372446   0.462824  -0.145280
     8  H   -0.372446   1.029757  -0.178265   0.437888
     9  H    0.462824  -0.178265   0.881812  -0.056225
    10  H   -0.145280   0.437888  -0.056225   0.735219
 Mulliken charges:
               1
     1  H    0.082969
     2  H   -0.003567
     3  H   -0.031590
     4  H   -0.035124
     5  H   -0.012688
     6  H   -0.012688
     7  H   -0.035124
     8  H   -0.031590
     9  H   -0.003567
    10  H    0.082969
 Sum of Mulliken charges =  -0.00000
 Mulliken charges with hydrogens summed into heavy atoms:
               1
 Electronic spatial extent (au):  <R**2>=            123.5577
 Charge=             -0.0000 electrons
 Dipole moment (field-independent basis, Debye):
    X=             -0.0000    Y=             -0.0000    Z=              0.0000  Tot=              0.0000
 Quadrupole moment (field-independent basis, Debye-Ang):
   XX=            -10.2153   YY=            -16.9993   ZZ=            -12.9575
   XY=              2.0458   XZ=             -0.0000   YZ=              0.0000
 Traceless Quadrupole moment (field-independent basis, Debye-Ang):
   XX=              3.1754   YY=             -3.6086   ZZ=              0.4332
   XY=              2.0458   XZ=             -0.0000   YZ=              0.0000
 Octapole moment (field-independent basis, Debye-Ang**2):
  XXX=              0.0000  YYY=             -0.0000  ZZZ=             -0.0000  XYY=              0.0000
  XXY=              0.0000  XXZ=             -0.0000  XZZ=             -0.0000  YZZ=             -0.0000
  YYZ=             -0.0000  XYZ=              0.0000
 Hexadecapole moment (field-independent basis, Debye-Ang**3):
 XXXX=           -161.2484 YYYY=            -53.7916 ZZZZ=            -15.6517 XXXY=              1.0753
 XXXZ=             -0.0000 YYYX=            -13.0797 YYYZ=             -0.0000 ZZZX=             -0.0000
 ZZZY=             -0.0000 XXYY=            -45.2377 XXZZ=            -34.9430 YYZZ=            -11.2453
 XXYZ=              0.0000 YYXZ=             -0.0000 ZZXY=             -3.7199
 N-N= 1.371256984499D+01 E-N=-3.644840852392D+01  KE= 5.102258013607D+00
 Symmetry AG   KE= 3.159546856243D+00
 Symmetry BG   KE= 0.000000000000D+00
 Symmetry AU   KE= 0.000000000000D+00
 Symmetry BU   KE= 1.942711157365D+00

 Test job not archived.
 1\1\GINC-SULU\Stability\RHF\Gen\H10\LCJ1\20-Feb-2017\0\\#rhf/gen scf(s
 ymm,tight,novaracc,noincfock,fulldiag) stable(crhf) guess=read geom=no
 crowd test\\hf stability analysis of h10 triangular lattice, y= 0.8149
 6352157574936\\0,1\H\H,1,1.0798372329\H,1,1.0798372329,2,82.\H,2,1.079
 8372329,1,98.,3,0.,0\H,3,1.0798372329,1,180.,2,0.,0\H,4,1.0798372329,2
 ,180.,1,0.,0\H,5,1.0798372329,3,180.,2,0.,0\H,6,1.0798372329,4,180.,1,
 0.,0\H,7,1.0798372329,5,180.,2,0.,0\H,8,1.0798372329,6,180.,1,0.,0\\Ve
 rsion=ES64L-G09RevE.01\State=1-AG\HF=-4.8777055\MP2=-4.9832489\RMSD=5.
 535e-09\Dipole=0.,0.,0.\Quadrupole=2.360831,0.3220496,-2.6828806,0.,1.
 5210272,0.\PG=C02H [SGH(H10)]\\@


 SIC AS THE CAWSE OF EWERY THING IS, SIC WILBE THE EFFECT.
 -- PROVERBS AND REASONS OF THE YEAR 1585
           AS REPRINTED IN PAISLEY MAGAZINE 1828.
 Job cpu time:       0 days  0 hours  0 minutes  0.8 seconds.
 File lengths (MBytes):  RWF=     84 Int=      0 D2E=      0 Chk=      2 Scr=      2
 Normal termination of Gaussian 09 at Mon Feb 20 11:36:27 2017.
