 Entering Gaussian System, Link 0=gdv
 AtFile(1): H.gbs
            H     0
            S   10   1.00
               1000.000000000000            0.000068713567
                316.227766000000            0.000169141320
                100.000000000000            0.000823394812
                 31.622776600000            0.003425569236
                 10.000000000000            0.013951996000
                  3.162277660000            0.056909313560
                  1.000000000000            0.198286399900
                  0.316227766000            0.496922426700
                  0.100000000000            0.369846276400
                  0.031622776600            0.003752720039
            ****
 Initial command:
 /users/lcj1/GHF_hess/exe-dir/l1.exe "/users/lcj1/GHF_hess/h10_2rows/mixrmY/Gau-15335.inp" -scrdir="/users/lcj1/GHF_hess/h10_2rows/mixrmY/"
 Entering Link 1 = /users/lcj1/GHF_hess/exe-dir/l1.exe PID=     15336.
  
 Copyright (c) 1988,1990,1992,1993,1995,1998,2003,2009,2012,
            Gaussian, Inc.  All Rights Reserved.
  
 This is the private, development version of
 the Gaussian(R) DV system of programs. It is based on
 the Gaussian(R) 09 system (copyright 2009, Gaussian, Inc.),
 the Gaussian(R) 03 system (copyright 2003, Gaussian, Inc.),
 the Gaussian(R) 98 system (copyright 1998, Gaussian, Inc.),
 the Gaussian(R) 94 system (copyright 1995, Gaussian, Inc.),
 the Gaussian 92(TM) system (copyright 1992, Gaussian, Inc.),
 the Gaussian 90(TM) system (copyright 1990, Gaussian, Inc.),
 the Gaussian 88(TM) system (copyright 1988, Gaussian, Inc.),
 the Gaussian 86(TM) system (copyright 1986, Carnegie Mellon
 University), and the Gaussian 82(TM) system (copyright 1983,
 Carnegie Mellon University). Gaussian is a federally registered
 trademark of Gaussian, Inc.
  
 This software contains proprietary and confidential information,
 including trade secrets, belonging to Gaussian, Inc.
  
 This software is provided under written license and may be
 used, copied, transmitted, or stored only in accord with that
 written license.
  
 The following legend is applicable only to US Government
 contracts under FAR:
  
                    RESTRICTED RIGHTS LEGEND
  
 Use, reproduction and disclosure by the US Government is
 subject to restrictions as set forth in subparagraphs (a)
 and (c) of the Commercial Computer Software - Restricted
 Rights clause in FAR 52.227-19.
  
 Gaussian, Inc.
 340 Quinnipiac St., Bldg. 40, Wallingford CT 06492
  
  
 ---------------------------------------------------------------
 Warning -- This program may not be used in any manner that
 competes with the business of Gaussian, Inc. or will provide
 assistance to any competitor of Gaussian, Inc.  The licensee
 of this program is prohibited from giving any competitor of
 Gaussian, Inc. access to this program.  By using this program,
 the user acknowledges that Gaussian, Inc. is engaged in the
 business of creating and licensing software in the field of
 computational chemistry and represents and warrants to the
 licensee that it is not a competitor of Gaussian, Inc. and that
 it will not use this program in any manner prohibited above.
 ---------------------------------------------------------------
  

 Cite this work as:
 Gaussian Development Version, Revision H.21,
 M. J. Frisch, G. W. Trucks, H. B. Schlegel, G. E. Scuseria, 
 M. A. Robb, J. R. Cheeseman, G. Scalmani, V. Barone, B. Mennucci, 
 G. A. Petersson, H. Nakatsuji, M. Caricato, X. Li, H. P. Hratchian, 
 A. F. Izmaylov, J. Bloino, G. Zheng, J. L. Sonnenberg, W. Liang, 
 M. Hada, M. Ehara, K. Toyota, R. Fukuda, J. Hasegawa, M. Ishida, 
 T. Nakajima, Y. Honda, O. Kitao, H. Nakai, T. Vreven, 
 J. A. Montgomery, Jr., J. E. Peralta, F. Ogliaro, M. Bearpark, 
 J. J. Heyd, E. Brothers, K. N. Kudin, V. N. Staroverov, T. Keith, 
 R. Kobayashi, J. Normand, K. Raghavachari, A. Rendell, J. C. Burant, 
 S. S. Iyengar, J. Tomasi, M. Cossi, N. Rega, J. M. Millam, M. Klene, 
 J. E. Knox, J. B. Cross, V. Bakken, C. Adamo, J. Jaramillo, 
 R. Gomperts, R. E. Stratmann, O. Yazyev, A. J. Austin, R. Cammi, 
 C. Pomelli, J. W. Ochterski, R. L. Martin, K. Morokuma, 
 V. G. Zakrzewski, G. A. Voth, P. Salvador, J. J. Dannenberg, 
 S. Dapprich, P. V. Parandekar, N. J. Mayhall, A. D. Daniels, 
 O. Farkas, J. B. Foresman, J. V. Ortiz, J. Cioslowski, 
 and D. J. Fox, Gaussian, Inc., Wallingford CT, 2010.
 
 ******************************************
 Gaussian DV:  EM64L-GDVRevH.21 13-May-2012
                28-Feb-2017 
 ******************************************
 %chk=h10.chk
 ----------------------------------------------------------------------
 #ghf/gen scf(tight,novaracc,noincfock,fulldiag) stable guess=mix geom=
 nocrowd use=l802 use=l902 test
 ----------------------------------------------------------------------
 ********************************************
   THE COMPLEX ERI TRANSFORMATION WITH L802  
        COMPLEX STABILITY WITH L902          
 ********************************************
 1/38=1/1;
 2/12=1,17=6,18=5,40=1/2;
 3/5=7,16=1,25=20,28=1,116=7/1,2,3,20;
 4/13=-1/1;
 5/5=100001,16=1,32=2,38=1/2;
 8/6=1,10=90,11=11/1,2;
 9/8=4,13=1/1,2;
 6/7=2,8=2,9=2,10=2,28=1/1;
 99/5=1,9=1/99;
 ----------------------------------------------------------------------
 hf stability analysis of h10 triangular lattice, y= 0.7631583969428945
 6 alpha= 45.250000000000000
 ----------------------------------------------------------------------
 Symbolic Z-Matrix:
 Charge =  0 Multiplicity = 1
 H
 H                    1     1.07459 
 H                    1     1.07459  2     89.5 
 H                    2     1.07459  1     90.5     3     0.       0
 H                    3     1.07459  1     180.     2     0.       0
 H                    4     1.07459  2     180.     1     0.       0
 H                    5     1.07459  3     180.     2     0.       0
 H                    6     1.07459  4     180.     1     0.       0
 H                    7     1.07459  5     180.     2     0.       0
 H                    8     1.07459  6     180.     1     0.       0
 
                          Input orientation:                          
 ---------------------------------------------------------------------
 Center     Atomic      Atomic             Coordinates (Angstroms)
 Number     Number       Type             X           Y           Z
 ---------------------------------------------------------------------
      1          1           0        0.000000    0.000000    0.000000
      2          1           0        0.000000    0.000000    1.074590
      3          1           0        1.074549    0.000000    0.009377
      4          1           0        1.074549    0.000000    1.083968
      5          1           0        2.149099    0.000000    0.018755
      6          1           0        2.149099    0.000000    1.093345
      7          1           0        3.223648    0.000000    0.028132
      8          1           0        3.223648    0.000000    1.102723
      9          1           0        4.298198    0.000000    0.037510
     10          1           0        4.298198    0.000000    1.112100
 ---------------------------------------------------------------------
                    Distance matrix (angstroms):
                    1          2          3          4          5
     1  H    0.000000
     2  H    1.074590   0.000000
     3  H    1.074590   1.513055   0.000000
     4  H    1.526317   1.074590   1.074590   0.000000
     5  H    2.149181   2.394455   1.074590   1.513055   0.000000
     6  H    2.411230   2.149181   1.526317   1.074590   1.074590
     7  H    3.223771   3.389245   2.149181   2.394455   1.074590
     8  H    3.407038   3.223771   2.411230   2.149181   1.526317
     9  H    4.298362   4.421543   3.223771   3.389245   2.149181
    10  H    4.439738   4.298362   3.407038   3.223771   2.411230
                    6          7          8          9         10
     6  H    0.000000
     7  H    1.513055   0.000000
     8  H    1.074590   1.074590   0.000000
     9  H    2.394455   1.074590   1.513055   0.000000
    10  H    2.149181   1.526317   1.074590   1.074590   0.000000
 Stoichiometry    H10
 Framework group  C2H[SGH(H10)]
 Deg. of freedom     9
 Full point group                 C2H     NOp   4
 Largest Abelian subgroup         C2H     NOp   4
 Largest concise Abelian subgroup C2      NOp   2
                         Standard orientation:                         
 ---------------------------------------------------------------------
 Center     Atomic      Atomic             Coordinates (Angstroms)
 Number     Number       Type             X           Y           Z
 ---------------------------------------------------------------------
      1          1           0        2.149099    0.556050    0.000000
      2          1           0        2.149099   -0.518540    0.000000
      3          1           0        1.074549    0.546673    0.000000
      4          1           0        1.074549   -0.527918    0.000000
      5          1           0        0.000000    0.537295    0.000000
      6          1           0        0.000000   -0.537295    0.000000
      7          1           0       -1.074549    0.527918    0.000000
      8          1           0       -1.074549   -0.546673    0.000000
      9          1           0       -2.149099    0.518540    0.000000
     10          1           0       -2.149099   -0.556050    0.000000
 ---------------------------------------------------------------------
 Rotational constants (GHZ):    173.7176480     21.7125800     19.3002810
 General basis read from cards:  (5D, 7F)
 There are     5 symmetry adapted cartesian basis functions of AG  symmetry.
 There are     0 symmetry adapted cartesian basis functions of BG  symmetry.
 There are     0 symmetry adapted cartesian basis functions of AU  symmetry.
 There are     5 symmetry adapted cartesian basis functions of BU  symmetry.
 There are     5 symmetry adapted basis functions of AG  symmetry.
 There are     0 symmetry adapted basis functions of BG  symmetry.
 There are     0 symmetry adapted basis functions of AU  symmetry.
 There are     5 symmetry adapted basis functions of BU  symmetry.
    10 basis functions,   100 primitive gaussians,    10 cartesian basis functions
     5 alpha electrons        5 beta electrons
       nuclear repulsion energy        13.7508898667 Hartrees.
 NAtoms=   10 NActive=   10 NUniq=    5 SFac= 4.00D+00 NAtFMM=   60 NAOKFM=F Big=F
 Integral buffers will be    131072 words long.
 Regular integral format.
 Two-electron integral symmetry is turned off.
 One-electron integrals computed using PRISM.
 NBasis=    10 RedAO= T EigKep=  1.22D-01  NBF=     5     0     0     5
 NBsUse=    10 1.00D-06 EigRej= -1.00D+00 NBFU=     5     0     0     5
 IOp(28)                       1
                        1                       0
                        2                       1
                        3                       1
                        4                      20
                        5                       0
                        6                       0
                        7                      10
                        8                       1
                        9                       4
                       10                       0
                       11              1073741824
                       12                      20
                       13                       2
                       14                  131070
                       15                       1
                       16                       1
                       17                  131073
                       18                       0
                       19                       0
                       20                       0
                       21                       2
                       22                  131070
                       23                       0
                       24                       0
                       25                       0
                       26                       0
                       27                   65535
                       28                       2
                       29                  131072
                       30                       0
 IHMeth                       1
 ib3: ISMode =                        0                       4
 Enter DskPsm, NBasis=  10 NBas6D=  10 NShell=  10 IDoSP=4.
 Out2e will use a cutoff of  1.00D-10
 FoFCou: FMM=F IPFlag=           0 FMFlag=           0 FMFlg1=           0
         NFxFlg=           0 DoJE=F BraDBF=F KetDBF=F FulRan=T
         wScrn=  0.000000 ICntrl=     600 IOpCl=  9 I1Cent=           0 NGrid=           0
         NMat0=    0 NMatS0=      0 NMatT0=    0 NMatD0=    0 NMtDS0=    0 NMtDT0=    0
 Symmetry not used in FoFCou.
 Entering PrmDigJobTyp =                      20
 LenSav and NKeep                       0                       0
 Entered Stor2E with KNTT1,2                       2                  131070
 Leave Stor2X
 Entering PrmDigJobTyp =                      20
 LenSav and NKeep                       0                       0
 Entered Stor2E with KNTT1,2                       2                  131056
 Leave Stor2X
 Entering PrmDigJobTyp =                      20
 LenSav and NKeep                       0                       0
 Entered Stor2E with KNTT1,2                       2                  131042
 Leave Stor2X
 Entering PrmDigJobTyp =                      20
 LenSav and NKeep                       0                       0
 Entered Stor2E with KNTT1,2                       2                  131028
 Leave Stor2X
 Entering PrmDigJobTyp =                      20
 LenSav and NKeep                       0                       0
 Entered Stor2E with KNTT1,2                       2                  131014
 Leave Stor2X
 Entering PrmDigJobTyp =                      20
 LenSav and NKeep                       0                       0
 Entered Stor2E with KNTT1,2                       2                  131000
 Leave Stor2X
 Entering PrmDigJobTyp =                      20
 LenSav and NKeep                       0                       0
 Entered Stor2E with KNTT1,2                       2                  130986
 Leave Stor2X
 Entering PrmDigJobTyp =                      20
 LenSav and NKeep                       0                       0
 Entered Stor2E with KNTT1,2                       2                  130972
 Leave Stor2X
 Entering PrmDigJobTyp =                      20
 LenSav and NKeep                       0                       0
 Entered Stor2E with KNTT1,2                       2                  130960
 Leave Stor2X
 Entering PrmDigJobTyp =                      20
 LenSav and NKeep                       0                       0
 Entered Stor2E with KNTT1,2                       2                  130946
 Leave Stor2X
 Entering PrmDigJobTyp =                      20
 LenSav and NKeep                       0                       0
 Entered Stor2E with KNTT1,2                       2                  130932
 Leave Stor2X
 Entering PrmDigJobTyp =                      20
 LenSav and NKeep                       0                       0
 Entered Stor2E with KNTT1,2                       2                  130918
 Leave Stor2X
 Entering PrmDigJobTyp =                      20
 LenSav and NKeep                       0                       0
 Entered Stor2E with KNTT1,2                       2                  130904
 Leave Stor2X
 Entering PrmDigJobTyp =                      20
 LenSav and NKeep                       0                       0
 Entered Stor2E with KNTT1,2                       2                  130890
 Leave Stor2X
 Entering PrmDigJobTyp =                      20
 LenSav and NKeep                       0                       0
 Entered Stor2E with KNTT1,2                       2                  130876
 Leave Stor2X
 Entering PrmDigJobTyp =                      20
 LenSav and NKeep                       0                       0
 Entered Stor2E with KNTT1,2                       2                  130862
 Leave Stor2X
 Entering PrmDigJobTyp =                      20
 LenSav and NKeep                       0                       0
 Entered Stor2E with KNTT1,2                       2                  130848
 Leave Stor2X
 Entering PrmDigJobTyp =                      20
 LenSav and NKeep                       0                       0
 Entered Stor2E with KNTT1,2                       2                  130834
 Leave Stor2X
 Entering PrmDigJobTyp =                      20
 LenSav and NKeep                       0                       0
 Entered Stor2E with KNTT1,2                       2                  130820
 Leave Stor2X
 Entering PrmDigJobTyp =                      20
 LenSav and NKeep                       0                       0
 Entered Stor2E with KNTT1,2                       2                  130806
 Leave Stor2X
 Entering PrmDigJobTyp =                      20
 LenSav and NKeep                       0                       0
 Entered Stor2E with KNTT1,2                       2                  130792
 Leave Stor2X
 Entering PrmDigJobTyp =                      20
 LenSav and NKeep                       0                       0
 Entered Stor2E with KNTT1,2                       2                  130778
 Leave Stor2X
 Entering PrmDigJobTyp =                      20
 LenSav and NKeep                       0                       0
 Entered Stor2E with KNTT1,2                       2                  130764
 Leave Stor2X
 Entering PrmDigJobTyp =                      20
 LenSav and NKeep                       0                       0
 Entered Stor2E with KNTT1,2                       2                  130750
 Leave Stor2X
 Entering PrmDigJobTyp =                      20
 LenSav and NKeep                       0                       0
 Entered Stor2E with KNTT1,2                       2                  130736
 Leave Stor2X
 Entering PrmDigJobTyp =                      20
 LenSav and NKeep                       0                       0
 Entered Stor2E with KNTT1,2                       2                  130722
 Leave Stor2X
 Entering PrmDigJobTyp =                      20
 LenSav and NKeep                       0                       0
 Entered Stor2E with KNTT1,2                       2                  130708
 Leave Stor2X
 Entering PrmDigJobTyp =                      20
 LenSav and NKeep                       0                       0
 Entered Stor2E with KNTT1,2                       2                  130700
 Leave Stor2X
 Entering PrmDigJobTyp =                      20
 LenSav and NKeep                       0                       0
 Entered Stor2E with KNTT1,2                       6                  130684
 Leave Stor2X
 Entering PrmDigJobTyp =                      20
 LenSav and NKeep                       0                       0
 Entered Stor2E with KNTT1,2                      16                  130674
 Leave Stor2X
 Entering PrmDigJobTyp =                      20
 LenSav and NKeep                       0                       0
 Entered Stor2E with KNTT1,2                      28                  130666
 Leave Stor2X
 Entering PrmDigJobTyp =                      20
 LenSav and NKeep                       0                       0
 Entered Stor2E with KNTT1,2                      42                  130660
 Leave Stor2X
 Entering PrmDigJobTyp =                      20
 LenSav and NKeep                       0                       0
 Entered Stor2E with KNTT1,2                      56                  130654
 Leave Stor2X
 Entering PrmDigJobTyp =                      20
 LenSav and NKeep                       0                       0
 Entered Stor2E with KNTT1,2                      70                  130648
 Leave Stor2X
 Entering PrmDigJobTyp =                      20
 LenSav and NKeep                       0                       0
 Entered Stor2E with KNTT1,2                      84                  130642
 Leave Stor2X
 Entering PrmDigJobTyp =                      20
 LenSav and NKeep                       0                       0
 Entered Stor2E with KNTT1,2                      98                  130636
 Leave Stor2X
 Entering PrmDigJobTyp =                      20
 LenSav and NKeep                       0                       0
 Entered Stor2E with KNTT1,2                     114                  130632
 Leave Stor2X
 Entering PrmDigJobTyp =                      20
 LenSav and NKeep                       0                       0
 Entered Stor2E with KNTT1,2                     114                  130630
 Leave Stor2X
 Entering PrmDigJobTyp =                      20
 LenSav and NKeep                       0                       0
 Entered Stor2E with KNTT1,2                     114                  130614
 Leave Stor2X
 Entering PrmDigJobTyp =                      20
 LenSav and NKeep                       0                       0
 Entered Stor2E with KNTT1,2                     114                  130598
 Leave Stor2X
 Entering PrmDigJobTyp =                      20
 LenSav and NKeep                       0                       0
 Entered Stor2E with KNTT1,2                     114                  130582
 Leave Stor2X
 Entering PrmDigJobTyp =                      20
 LenSav and NKeep                       0                       0
 Entered Stor2E with KNTT1,2                     114                  130566
 Leave Stor2X
 Entering PrmDigJobTyp =                      20
 LenSav and NKeep                       0                       0
 Entered Stor2E with KNTT1,2                     114                  130550
 Leave Stor2X
 Entering PrmDigJobTyp =                      20
 LenSav and NKeep                       0                       0
 Entered Stor2E with KNTT1,2                     114                  130534
 Leave Stor2X
 Entering PrmDigJobTyp =                      20
 LenSav and NKeep                       0                       0
 Entered Stor2E with KNTT1,2                     114                  130518
 Leave Stor2X
 Entering PrmDigJobTyp =                      20
 LenSav and NKeep                       0                       0
 Entered Stor2E with KNTT1,2                     114                  130502
 Leave Stor2X
 Entering PrmDigJobTyp =                      20
 LenSav and NKeep                       0                       0
 Entered Stor2E with KNTT1,2                     114                  130486
 Leave Stor2X
 Entering PrmDigJobTyp =                      20
 LenSav and NKeep                       0                       0
 Entered Stor2E with KNTT1,2                     114                  130470
 Leave Stor2X
 Entering PrmDigJobTyp =                      20
 LenSav and NKeep                       0                       0
 Entered Stor2E with KNTT1,2                     126                  130460
 Leave Stor2X
 Entering PrmDigJobTyp =                      20
 LenSav and NKeep                       0                       0
 Entered Stor2E with KNTT1,2                     138                  130450
 Leave Stor2X
 Entering PrmDigJobTyp =                      20
 LenSav and NKeep                       0                       0
 Entered Stor2E with KNTT1,2                     150                  130440
 Leave Stor2X
 Entering PrmDigJobTyp =                      20
 LenSav and NKeep                       0                       0
 Entered Stor2E with KNTT1,2                     164                  130432
 Leave Stor2X
 Entering PrmDigJobTyp =                      20
 LenSav and NKeep                       0                       0
 Entered Stor2E with KNTT1,2                     180                  130426
 Leave Stor2X
 Entering PrmDigJobTyp =                      20
 LenSav and NKeep                       0                       0
 Entered Stor2E with KNTT1,2                     190                  130414
 Leave Stor2X
 Entering PrmDigJobTyp =                      20
 LenSav and NKeep                       0                       0
 Entered Stor2E with KNTT1,2                     200                  130402
 Leave Stor2X
 Entering PrmDigJobTyp =                      20
 LenSav and NKeep                       0                       0
 Entered Stor2E with KNTT1,2                     218                  130398
 Leave Stor2X
 Entering PrmDigJobTyp =                      20
 LenSav and NKeep                       0                       0
 Entered Stor2E with KNTT1,2                     232                  130390
 Leave Stor2X
 Entering PrmDigJobTyp =                      20
 LenSav and NKeep                       0                       0
 Entered Stor2E with KNTT1,2                     234                  130382
 Leave Stor2X
 Entering PrmDigJobTyp =                      20
 LenSav and NKeep                       0                       0
 Entered Stor2E with KNTT1,2                     246                  130370
 Leave Stor2X
 Entering PrmDigJobTyp =                      20
 LenSav and NKeep                       0                       0
 Entered Stor2E with KNTT1,2                     262                  130362
 Leave Stor2X
 Entering PrmDigJobTyp =                      20
 LenSav and NKeep                       0                       0
 Entered Stor2E with KNTT1,2                     278                  130354
 Leave Stor2X
 Entering PrmDigJobTyp =                      20
 LenSav and NKeep                       0                       0
 Entered Stor2E with KNTT1,2                     278                  130336
 Leave Stor2X
 Entering PrmDigJobTyp =                      20
 LenSav and NKeep                       0                       0
 Entered Stor2E with KNTT1,2                     278                  130318
 Leave Stor2X
 Entering PrmDigJobTyp =                      20
 LenSav and NKeep                       0                       0
 Entered Stor2E with KNTT1,2                     278                  130300
 Leave Stor2X
 Entering PrmDigJobTyp =                      20
 LenSav and NKeep                       0                       0
 Entered Stor2E with KNTT1,2                     278                  130282
 Leave Stor2X
 Entering PrmDigJobTyp =                      20
 LenSav and NKeep                       0                       0
 Entered Stor2E with KNTT1,2                     278                  130264
 Leave Stor2X
 Entering PrmDigJobTyp =                      20
 LenSav and NKeep                       0                       0
 Entered Stor2E with KNTT1,2                     278                  130246
 Leave Stor2X
 Entering PrmDigJobTyp =                      20
 LenSav and NKeep                       0                       0
 Entered Stor2E with KNTT1,2                     278                  130234
 Leave Stor2X
 Entering PrmDigJobTyp =                      20
 LenSav and NKeep                       0                       0
 Entered Stor2E with KNTT1,2                     290                  130224
 Leave Stor2X
 Entering PrmDigJobTyp =                      20
 LenSav and NKeep                       0                       0
 Entered Stor2E with KNTT1,2                     302                  130214
 Leave Stor2X
 Entering PrmDigJobTyp =                      20
 LenSav and NKeep                       0                       0
 Entered Stor2E with KNTT1,2                     318                  130208
 Leave Stor2X
 Entering PrmDigJobTyp =                      20
 LenSav and NKeep                       0                       0
 Entered Stor2E with KNTT1,2                     330                  130198
 Leave Stor2X
 Entering PrmDigJobTyp =                      20
 LenSav and NKeep                       0                       0
 Entered Stor2E with KNTT1,2                     344                  130190
 Leave Stor2X
 Entering PrmDigJobTyp =                      20
 LenSav and NKeep                       0                       0
 Entered Stor2E with KNTT1,2                     356                  130180
 Leave Stor2X
 Entering PrmDigJobTyp =                      20
 LenSav and NKeep                       0                       0
 Entered Stor2E with KNTT1,2                     370                  130172
 Leave Stor2X
 Entering PrmDigJobTyp =                      20
 LenSav and NKeep                       0                       0
 Entered Stor2E with KNTT1,2                     370                  130170
 Leave Stor2X
 Entering PrmDigJobTyp =                      20
 LenSav and NKeep                       0                       0
 Entered Stor2E with KNTT1,2                     384                  130158
 Leave Stor2X
 Entering PrmDigJobTyp =                      20
 LenSav and NKeep                       0                       0
 Entered Stor2E with KNTT1,2                     400                  130148
 Leave Stor2X
 Entering PrmDigJobTyp =                      20
 LenSav and NKeep                       0                       0
 Entered Stor2E with KNTT1,2                     414                  130136
 Leave Stor2X
 Entering PrmDigJobTyp =                      20
 LenSav and NKeep                       0                       0
 Entered Stor2E with KNTT1,2                     426                  130130
 Leave Stor2X
 Entering PrmDigJobTyp =                      20
 LenSav and NKeep                       0                       0
 Entered Stor2E with KNTT1,2                     444                  130120
 Leave Stor2X
 Entering PrmDigJobTyp =                      20
 LenSav and NKeep                       0                       0
 Entered Stor2E with KNTT1,2                     452                  130114
 Leave Stor2X
 Entering PrmDigJobTyp =                      20
 LenSav and NKeep                       0                       0
 Entered Stor2E with KNTT1,2                     452                  130096
 Leave Stor2X
 Entering PrmDigJobTyp =                      20
 LenSav and NKeep                       0                       0
 Entered Stor2E with KNTT1,2                     452                  130078
 Leave Stor2X
 Entering PrmDigJobTyp =                      20
 LenSav and NKeep                       0                       0
 Entered Stor2E with KNTT1,2                     452                  130060
 Leave Stor2X
 Entering PrmDigJobTyp =                      20
 LenSav and NKeep                       0                       0
 Entered Stor2E with KNTT1,2                     452                  130042
 Leave Stor2X
 Entering PrmDigJobTyp =                      20
 LenSav and NKeep                       0                       0
 Entered Stor2E with KNTT1,2                     452                  130024
 Leave Stor2X
 Entering PrmDigJobTyp =                      20
 LenSav and NKeep                       0                       0
 Entered Stor2E with KNTT1,2                     452                  130006
 Leave Stor2X
 Entering PrmDigJobTyp =                      20
 LenSav and NKeep                       0                       0
 Entered Stor2E with KNTT1,2                     452                  129994
 Leave Stor2X
 Entering PrmDigJobTyp =                      20
 LenSav and NKeep                       0                       0
 Entered Stor2E with KNTT1,2                     466                  129984
 Leave Stor2X
 Entering PrmDigJobTyp =                      20
 LenSav and NKeep                       0                       0
 Entered Stor2E with KNTT1,2                     480                  129974
 Leave Stor2X
 Entering PrmDigJobTyp =                      20
 LenSav and NKeep                       0                       0
 Entered Stor2E with KNTT1,2                     494                  129964
 Leave Stor2X
 Entering PrmDigJobTyp =                      20
 LenSav and NKeep                       0                       0
 Entered Stor2E with KNTT1,2                     508                  129954
 Leave Stor2X
 Entering PrmDigJobTyp =                      20
 LenSav and NKeep                       0                       0
 Entered Stor2E with KNTT1,2                     524                  129946
 Leave Stor2X
 Entering PrmDigJobTyp =                      20
 LenSav and NKeep                       0                       0
 Entered Stor2E with KNTT1,2                     538                  129936
 Leave Stor2X
 Entering PrmDigJobTyp =                      20
 LenSav and NKeep                       0                       0
 Entered Stor2E with KNTT1,2                     544                  129930
 Leave Stor2X
 Entering PrmDigJobTyp =                      20
 LenSav and NKeep                       0                       0
 Entered Stor2E with KNTT1,2                     560                  129918
 Leave Stor2X
 Entering PrmDigJobTyp =                      20
 LenSav and NKeep                       0                       0
 Entered Stor2E with KNTT1,2                     576                  129906
 Leave Stor2X
 Entering PrmDigJobTyp =                      20
 LenSav and NKeep                       0                       0
 Entered Stor2E with KNTT1,2                     594                  129896
 Leave Stor2X
 Entering PrmDigJobTyp =                      20
 LenSav and NKeep                       0                       0
 Entered Stor2E with KNTT1,2                     600                  129890
 Leave Stor2X
 Entering PrmDigJobTyp =                      20
 LenSav and NKeep                       0                       0
 Entered Stor2E with KNTT1,2                     616                  129876
 Leave Stor2X
 Entering PrmDigJobTyp =                      20
 LenSav and NKeep                       0                       0
 Entered Stor2E with KNTT1,2                     634                  129864
 Leave Stor2X
 Entering PrmDigJobTyp =                      20
 LenSav and NKeep                       0                       0
 Entered Stor2E with KNTT1,2                     640                  129858
 Leave Stor2X
 Entering PrmDigJobTyp =                      20
 LenSav and NKeep                       0                       0
 Entered Stor2E with KNTT1,2                     658                  129844
 Leave Stor2X
 Entering PrmDigJobTyp =                      20
 LenSav and NKeep                       0                       0
 Entered Stor2E with KNTT1,2                     666                  129842
 Leave Stor2X
 Entering PrmDigJobTyp =                      20
 LenSav and NKeep                       0                       0
 Entered Stor2E with KNTT1,2                     666                  129820
 Leave Stor2X
 Entering PrmDigJobTyp =                      20
 LenSav and NKeep                       0                       0
 Entered Stor2E with KNTT1,2                     666                  129798
 Leave Stor2X
 Entering PrmDigJobTyp =                      20
 LenSav and NKeep                       0                       0
 Entered Stor2E with KNTT1,2                     666                  129776
 Leave Stor2X
 Entering PrmDigJobTyp =                      20
 LenSav and NKeep                       0                       0
 Entered Stor2E with KNTT1,2                     666                  129754
 Leave Stor2X
 Entering PrmDigJobTyp =                      20
 LenSav and NKeep                       0                       0
 Entered Stor2E with KNTT1,2                     666                  129732
 Leave Stor2X
 Entering PrmDigJobTyp =                      20
 LenSav and NKeep                       0                       0
 Entered Stor2E with KNTT1,2                     666                  129710
 Leave Stor2X
 Entering PrmDigJobTyp =                      20
 LenSav and NKeep                       0                       0
 Entered Stor2E with KNTT1,2                     666                  129688
 Leave Stor2X
 Entering PrmDigJobTyp =                      20
 LenSav and NKeep                       0                       0
 Entered Stor2E with KNTT1,2                     666                  129682
 Leave Stor2X
 Entering PrmDigJobTyp =                      20
 LenSav and NKeep                       0                       0
 Entered Stor2E with KNTT1,2                     682                  129670
 Leave Stor2X
 Entering PrmDigJobTyp =                      20
 LenSav and NKeep                       0                       0
 Entered Stor2E with KNTT1,2                     698                  129658
 Leave Stor2X
 Entering PrmDigJobTyp =                      20
 LenSav and NKeep                       0                       0
 Entered Stor2E with KNTT1,2                     716                  129648
 Leave Stor2X
 Entering PrmDigJobTyp =                      20
 LenSav and NKeep                       0                       0
 Entered Stor2E with KNTT1,2                     734                  129638
 Leave Stor2X
 Entering PrmDigJobTyp =                      20
 LenSav and NKeep                       0                       0
 Entered Stor2E with KNTT1,2                     752                  129628
 Leave Stor2X
 Entering PrmDigJobTyp =                      20
 LenSav and NKeep                       0                       0
 Entered Stor2E with KNTT1,2                     768                  129616
 Leave Stor2X
 Entering PrmDigJobTyp =                      20
 LenSav and NKeep                       0                       0
 Entered Stor2E with KNTT1,2                     786                  129606
 Leave Stor2X
 Entering PrmDigJobTyp =                      20
 LenSav and NKeep                       0                       0
 Entered Stor2E with KNTT1,2                     794                  129602
 Leave Stor2X
 Entering PrmDigJobTyp =                      20
 LenSav and NKeep                       0                       0
 Entered Stor2E with KNTT1,2                     814                  129590
 Leave Stor2X
 Entering PrmDigJobTyp =                      20
 LenSav and NKeep                       0                       0
 Entered Stor2E with KNTT1,2                     834                  129578
 Leave Stor2X
 Entering PrmDigJobTyp =                      20
 LenSav and NKeep                       0                       0
 Entered Stor2E with KNTT1,2                     854                  129566
 Leave Stor2X
 Entering PrmDigJobTyp =                      20
 LenSav and NKeep                       0                       0
 Entered Stor2E with KNTT1,2                     874                  129554
 Leave Stor2X
 Entering PrmDigJobTyp =                      20
 LenSav and NKeep                       0                       0
 Entered Stor2E with KNTT1,2                     896                  129542
 Leave Stor2X
 Entering PrmDigJobTyp =                      20
 LenSav and NKeep                       0                       0
 Entered Stor2E with KNTT1,2                     920                  129532
 Leave Stor2X
 Entering PrmDigJobTyp =                      20
 LenSav and NKeep                       0                       0
 Entered Stor2E with KNTT1,2                     938                  129522
 Leave Stor2X
 Entering PrmDigJobTyp =                      20
 LenSav and NKeep                       0                       0
 Entered Stor2E with KNTT1,2                     962                  129510
 Leave Stor2X
 Entering PrmDigJobTyp =                      20
 LenSav and NKeep                       0                       0
 Entered Stor2E with KNTT1,2                     986                  129498
 Leave Stor2X
 Entering PrmDigJobTyp =                      20
 LenSav and NKeep                       0                       0
 Entered Stor2E with KNTT1,2                    1002                  129490
 Leave Stor2X
 Entering PrmDigJobTyp =                      20
 LenSav and NKeep                       0                       0
 Entered Stor2E with KNTT1,2                    1022                  129468
 Leave Stor2X
 Entering PrmDigJobTyp =                      20
 LenSav and NKeep                       0                       0
 Entered Stor2E with KNTT1,2                    1042                  129458
 Leave Stor2X
 Entering PrmDigJobTyp =                      20
 LenSav and NKeep                       0                       0
 Entered Stor2E with KNTT1,2                    1042                  129434
 Leave Stor2X
 Entering PrmDigJobTyp =                      20
 LenSav and NKeep                       0                       0
 Entered Stor2E with KNTT1,2                    1042                  129418
 Leave Stor2X
 Entering PrmDigJobTyp =                      20
 LenSav and NKeep                       0                       0
 Entered Stor2E with KNTT1,2                    1062                  129406
 Leave Stor2X
 Entering PrmDigJobTyp =                      20
 LenSav and NKeep                       0                       0
 Entered Stor2E with KNTT1,2                    1078                  129402
 Leave Stor2X
 Entering PrmDigJobTyp =                      20
 LenSav and NKeep                       0                       0
 Entered Stor2E with KNTT1,2                    1102                  129394
 Leave Stor2X
 Entering PrmDigJobTyp =                      20
 LenSav and NKeep                       0                       0
 Entered Stor2E with KNTT1,2                    1118                  129386
 Leave Stor2X
 Entering PrmDigJobTyp =                      20
 LenSav and NKeep                       0                       0
 Entered Stor2E with KNTT1,2                    1134                  129378
 Leave Stor2X
 Entering PrmDigJobTyp =                      20
 LenSav and NKeep                       0                       0
 Entered Stor2E with KNTT1,2                    1150                  129362
 Leave Stor2X
 Entering PrmDigJobTyp =                      20
 LenSav and NKeep                       0                       0
 Entered Stor2E with KNTT1,2                    1152                  129358
 Leave Stor2X
 Entering PrmDigJobTyp =                      20
 LenSav and NKeep                       0                       0
 Entered Stor2E with KNTT1,2                    1152                  129334
 Leave Stor2X
 Entering PrmDigJobTyp =                      20
 LenSav and NKeep                       0                       0
 Entered Stor2E with KNTT1,2                    1152                  129318
 Leave Stor2X
 Entering PrmDigJobTyp =                      20
 LenSav and NKeep                       0                       0
 Entered Stor2E with KNTT1,2                    1174                  129306
 Leave Stor2X
 Entering PrmDigJobTyp =                      20
 LenSav and NKeep                       0                       0
 Entered Stor2E with KNTT1,2                    1188                  129302
 Leave Stor2X
 Entering PrmDigJobTyp =                      20
 LenSav and NKeep                       0                       0
 Entered Stor2E with KNTT1,2                    1212                  129294
 Leave Stor2X
 Entering PrmDigJobTyp =                      20
 LenSav and NKeep                       0                       0
 Entered Stor2E with KNTT1,2                    1228                  129286
 Leave Stor2X
 Entering PrmDigJobTyp =                      20
 LenSav and NKeep                       0                       0
 Entered Stor2E with KNTT1,2                    1244                  129278
 Leave Stor2X
 Entering PrmDigJobTyp =                      20
 LenSav and NKeep                       0                       0
 Entered Stor2E with KNTT1,2                    1260                  129262
 Leave Stor2X
 Entering PrmDigJobTyp =                      20
 LenSav and NKeep                       0                       0
 Entered Stor2E with KNTT1,2                    1260                  129254
 Leave Stor2X
 In PrSumR
 Called IWRITE
         1540 integrals produced for a total of         1540.
 ExpMin= 3.16D-02 ExpMax= 1.00D+03 ExpMxC= 1.00D+01 IAcc=3 IRadAn=         5 AccDes= 0.00D+00
 Harris functional with IExCor=  205 and IRadAn=       5 diagonalized for initial guess.
 HarFok:  IExCor=  205 AccDes= 0.00D+00 IRadAn=         5 IDoV= 1 UseB2=F ITyADJ=14
 ICtDFT=  3500011 ScaDFX=  1.000000  1.000000  1.000000  1.000000
 FoFCou: FMM=F IPFlag=           0 FMFlag=      100000 FMFlg1=           0
         NFxFlg=           0 DoJE=T BraDBF=F KetDBF=T FulRan=T
         wScrn=  0.000000 ICntrl=     500 IOpCl=  0 I1Cent=   200000004 NGrid=           0
         NMat0=    1 NMatS0=      1 NMatT0=    0 NMatD0=    1 NMtDS0=    0 NMtDT0=    0
 Petite list used in FoFCou.
 Mixing orbitals, IMix= 3 IMixAn=  0 NRI=2 NE=   10 Coef=  7.07106781D-01  7.07106781D-01
 Also mixing orbitals    10 and    12 Coef=  3.82683432D-01  9.23879533D-01
 Initial guess <Sx>= 0.0730 <Sy>=-0.2500 <Sz>= 0.4062 <S**2>= 0.9794 S= 0.6088
 Two-electron integrals will be kept in memory, NGetB=      152788.
 Requested convergence on RMS density matrix=1.00D-08 within 128 cycles.
 Requested convergence on MAX density matrix=1.00D-06.
 Requested convergence on             energy=1.00D-06.
 No special actions if energy rises.
 ************************************************
 *READING THE YAODEN.PDM FILE TO GET NEW DENSITY*
 ************************************************
 EnCoef did    33 forward-backward iterations
 EnCoef did   100 forward-backward iterations
 EnCoef did   100 forward-backward iterations
 EnCoef did   100 forward-backward iterations
 SCF Done:  E(GHF) =  -4.92498475357     A.U. after   26 cycles
            NFock= 26  Conv=0.33D-08     -V/T= 1.9435
 <Sx>=-0.9602 <Sy>=-0.2538 <Sz>=-0.1168 <S**2>= 2.1439 S= 1.0472
 <L.S>= 0.000000000000E+00
 Range of M.O.s used for correlation:     1    10
 NBasis=    10 NAE=    10 NBE=     0 NFC=     0 NFV=     0
 NROrb=     20 NOA=    10 NOB=     0 NVA=    10 NVB=     0
 jaja DoHack is true or false? T
 jaja in hckghf.F, NBasis=                      10
 jaja in hckGHF/FixOG, LC =                      800
 jaja in hckGHF/FixOG, IRwC=                      548
 bfr conversion (real):
                 1             2             3             4             5 
      1a -0.608738D-01  0.457305D-01 -0.124698D+00  0.169000D+00 -0.256729D+00
      1b  0.708027D-01  0.393175D-01  0.145038D+00  0.145301D+00  0.298603D+00
      2a -0.612464D-01  0.464208D-01 -0.124896D+00  0.170774D+00 -0.253562D+00
      2b  0.712361D-01  0.399111D-01  0.145267D+00  0.146826D+00  0.294920D+00
      3a -0.147140D+00  0.110524D+00 -0.178055D+00  0.180842D+00  0.481490D-01
      3b  0.171139D+00  0.950246D-01  0.207097D+00  0.155482D+00 -0.560025D-01
      4a -0.147352D+00  0.111044D+00 -0.177673D+00  0.179051D+00  0.522782D-01
      4b  0.171387D+00  0.954715D-01  0.206652D+00  0.153942D+00 -0.608051D-01
      5a -0.953324D-01  0.238811D+00 -0.112537D-02  0.111575D-02  0.210625D+00
      5b  0.110882D+00  0.205322D+00  0.130893D-02  0.959283D-03 -0.244979D+00
      6a -0.953324D-01  0.238811D+00  0.112537D-02 -0.111575D-02  0.210625D+00
      6b  0.110882D+00  0.205322D+00 -0.130893D-02 -0.959283D-03 -0.244979D+00
      7a -0.147352D+00  0.111044D+00  0.177673D+00 -0.179051D+00  0.522782D-01
      7b  0.171387D+00  0.954716D-01 -0.206652D+00 -0.153942D+00 -0.608051D-01
      8a -0.147140D+00  0.110524D+00  0.178055D+00 -0.180842D+00  0.481491D-01
      8b  0.171139D+00  0.950245D-01 -0.207097D+00 -0.155482D+00 -0.560025D-01
      9a -0.612464D-01  0.464208D-01  0.124896D+00 -0.170775D+00 -0.253562D+00
      9b  0.712361D-01  0.399110D-01 -0.145267D+00 -0.146826D+00  0.294920D+00
     10a -0.608737D-01  0.457304D-01  0.124698D+00 -0.169000D+00 -0.256729D+00
     10b  0.708027D-01  0.393175D-01 -0.145038D+00 -0.145301D+00  0.298603D+00
                 6             7             8             9            10 
      1a -0.258625D+00  0.163494D+00  0.770939D-01 -0.256072D+00  0.306522D+00
      1b -0.222357D+00 -0.190161D+00  0.662828D-01  0.297839D+00 -0.356517D+00
      2a -0.260262D+00 -0.163300D+00 -0.791977D-01  0.260627D+00  0.301679D+00
      2b -0.223765D+00  0.189935D+00 -0.680915D-01 -0.303137D+00 -0.350885D+00
      3a -0.677936D-01  0.284136D+00  0.249324D+00 -0.335163D+00 -0.320333D+00
      3b -0.582857D-01 -0.330481D+00  0.214360D+00  0.389830D+00  0.372582D+00
      4a -0.635709D-01 -0.286692D+00 -0.251132D+00  0.334649D+00 -0.319404D+00
      4b -0.546571D-01  0.333453D+00 -0.215915D+00 -0.389233D+00  0.371500D+00
      5a  0.324422D+00  0.194349D+00  0.473910D+00 -0.356824D-02 -0.570669D-02
      5b  0.278928D+00 -0.226047D+00  0.407451D+00  0.415024D-02  0.663749D-02
      6a  0.324423D+00 -0.194348D+00 -0.473909D+00 -0.356824D-02  0.570669D-02
      6b  0.278927D+00  0.226048D+00 -0.407452D+00  0.415024D-02 -0.663749D-02
      7a -0.635718D-01  0.286691D+00  0.251132D+00  0.334649D+00  0.319404D+00
      7b -0.546560D-01 -0.333453D+00  0.215915D+00 -0.389233D+00 -0.371501D+00
      8a -0.677927D-01 -0.284136D+00 -0.249324D+00 -0.335163D+00  0.320334D+00
      8b -0.582868D-01  0.330481D+00 -0.214360D+00  0.389830D+00 -0.372582D+00
      9a -0.260262D+00  0.163300D+00  0.791977D-01  0.260627D+00 -0.301679D+00
      9b -0.223764D+00 -0.189936D+00  0.680915D-01 -0.303137D+00  0.350885D+00
     10a -0.258625D+00 -0.163494D+00 -0.770939D-01 -0.256072D+00 -0.306522D+00
     10b -0.222357D+00  0.190161D+00 -0.662828D-01  0.297839D+00  0.356518D+00
                11            12            13            14            15 
      1a  0.326315D+00 -0.346377D+00  0.433661D+00 -0.503518D+00 -0.226045D+00
      1b  0.280555D+00 -0.297803D+00 -0.504394D+00 -0.432908D+00  0.262915D+00
      2a -0.329121D+00 -0.338626D+00 -0.439926D+00  0.511689D+00 -0.201741D+00
      2b -0.282967D+00 -0.291139D+00  0.511681D+00  0.439933D+00  0.234646D+00
      3a  0.362055D+00  0.383457D+00 -0.646873D-01 -0.914181D-01  0.462247D+00
      3b  0.311282D+00  0.329683D+00  0.752382D-01 -0.785983D-01 -0.537642D+00
      4a -0.361468D+00  0.388109D+00  0.748807D-01  0.785957D-01  0.436088D+00
      4b -0.310778D+00  0.333683D+00 -0.870942D-01  0.675739D-01 -0.507217D+00
      5a  0.266256D-02  0.562324D-02 -0.433489D+00  0.487643D+00 -0.573312D+00
      5b  0.228917D-02  0.483467D-02  0.504194D+00  0.419260D+00  0.666823D+00
      6a  0.266255D-02 -0.562324D-02  0.433489D+00 -0.487644D+00 -0.573312D+00
      6b  0.228918D-02 -0.483467D-02 -0.504194D+00 -0.419259D+00  0.666823D+00
      7a -0.361468D+00 -0.388109D+00 -0.748807D-01 -0.785956D-01  0.436088D+00
      7b -0.310778D+00 -0.333683D+00  0.870942D-01 -0.675740D-01 -0.507217D+00
      8a  0.362055D+00 -0.383457D+00  0.646872D-01  0.914182D-01  0.462247D+00
      8b  0.311282D+00 -0.329683D+00 -0.752382D-01  0.785982D-01 -0.537642D+00
      9a -0.329121D+00  0.338626D+00  0.439926D+00 -0.511689D+00 -0.201741D+00
      9b -0.282968D+00  0.291139D+00 -0.511681D+00 -0.439933D+00  0.234646D+00
     10a  0.326315D+00  0.346377D+00 -0.433661D+00  0.503518D+00 -0.226045D+00
     10b  0.280555D+00  0.297803D+00  0.504394D+00  0.432908D+00  0.262914D+00
                16            17            18            19            20 
      1a  0.299887D+00 -0.500442D+00  0.570456D+00 -0.337241D+00  0.429606D+00
      1b  0.257833D+00  0.582068D+00  0.490459D+00  0.392248D+00  0.369361D+00
      2a  0.285268D+00  0.511029D+00 -0.576803D+00  0.333962D+00 -0.425521D+00
      2b  0.245264D+00 -0.594381D+00 -0.495916D+00 -0.388434D+00 -0.365848D+00
      3a -0.546196D+00  0.488673D+00 -0.591846D+00  0.639419D+00 -0.774229D+00
      3b -0.469601D+00 -0.568379D+00 -0.508849D+00 -0.743712D+00 -0.665656D+00
      4a -0.529409D+00 -0.515226D+00  0.611271D+00 -0.635761D+00  0.770947D+00
      4b -0.455168D+00  0.599263D+00  0.525550D+00  0.739458D+00  0.662834D+00
      5a  0.595777D+00  0.175378D-01 -0.125733D-01 -0.805938D+00  0.849493D+00
      5b  0.512229D+00 -0.203984D-01 -0.108101D-01  0.937392D+00  0.730366D+00
      6a  0.595777D+00  0.175378D-01 -0.125733D-01  0.805938D+00 -0.849493D+00
      6b  0.512229D+00 -0.203984D-01 -0.108101D-01 -0.937392D+00 -0.730366D+00
      7a -0.529409D+00 -0.515226D+00  0.611271D+00  0.635761D+00 -0.770947D+00
      7b -0.455168D+00  0.599263D+00  0.525550D+00 -0.739458D+00 -0.662834D+00
      8a -0.546196D+00  0.488673D+00 -0.591846D+00 -0.639419D+00  0.774229D+00
      8b -0.469601D+00 -0.568379D+00 -0.508849D+00  0.743712D+00  0.665656D+00
      9a  0.285268D+00  0.511029D+00 -0.576803D+00 -0.333962D+00  0.425521D+00
      9b  0.245264D+00 -0.594381D+00 -0.495916D+00  0.388434D+00  0.365848D+00
     10a  0.299887D+00 -0.500442D+00  0.570456D+00  0.337241D+00 -0.429606D+00
     10b  0.257833D+00  0.582068D+00  0.490459D+00 -0.392248D+00 -0.369361D+00
 bfr conversion (imaginary):
                 1             2             3             4             5 
      1a  0.160908D-01  0.000000D+00  0.329615D-01  0.000000D+00  0.678610D-01
      1b  0.000000D+00  0.103928D-01  0.000000D+00  0.384073D-01  0.000000D+00
      2a  0.161893D-01  0.000000D+00  0.330136D-01  0.000000D+00  0.670241D-01
      2b  0.000000D+00  0.105497D-01  0.000000D+00  0.388105D-01  0.000000D+00
      3a  0.388934D-01  0.000000D+00  0.470653D-01  0.000000D+00 -0.127272D-01
      3b  0.000000D+00  0.251178D-01  0.000000D+00  0.410984D-01  0.000000D+00
      4a  0.389496D-01  0.000000D+00  0.469642D-01  0.000000D+00 -0.138187D-01
      4b  0.000000D+00  0.252360D-01  0.000000D+00  0.406915D-01  0.000000D+00
      5a  0.251992D-01  0.000000D+00  0.297470D-03  0.000000D+00 -0.556745D-01
      5b  0.000000D+00  0.542726D-01  0.000000D+00  0.253567D-03  0.000000D+00
      6a  0.251992D-01  0.000000D+00 -0.297470D-03  0.000000D+00 -0.556745D-01
      6b  0.000000D+00  0.542726D-01  0.000000D+00 -0.253567D-03  0.000000D+00
      7a  0.389496D-01  0.000000D+00 -0.469642D-01  0.000000D+00 -0.138187D-01
      7b  0.000000D+00  0.252360D-01  0.000000D+00 -0.406915D-01  0.000000D+00
      8a  0.388934D-01  0.000000D+00 -0.470652D-01  0.000000D+00 -0.127272D-01
      8b  0.000000D+00  0.251178D-01  0.000000D+00 -0.410984D-01  0.000000D+00
      9a  0.161893D-01  0.000000D+00 -0.330136D-01  0.000000D+00  0.670241D-01
      9b  0.000000D+00  0.105497D-01  0.000000D+00 -0.388105D-01  0.000000D+00
     10a  0.160908D-01  0.000000D+00 -0.329615D-01  0.000000D+00  0.678610D-01
     10b  0.000000D+00  0.103928D-01  0.000000D+00 -0.384073D-01  0.000000D+00
                 6             7             8             9            10 
      1a  0.000000D+00 -0.432164D-01  0.000000D+00  0.676875D-01 -0.810229D-01
      1b -0.587756D-01  0.000000D+00  0.175205D-01  0.000000D+00  0.000000D+00
      2a  0.000000D+00  0.431651D-01  0.000000D+00 -0.688915D-01 -0.797429D-01
      2b -0.591476D-01  0.000000D+00 -0.179986D-01  0.000000D+00  0.000000D+00
      3a  0.000000D+00 -0.751057D-01  0.000000D+00  0.885936D-01  0.846737D-01
      3b -0.154068D-01  0.000000D+00  0.566618D-01  0.000000D+00  0.000000D+00
      4a  0.000000D+00  0.757811D-01  0.000000D+00 -0.884578D-01  0.844280D-01
      4b -0.144473D-01  0.000000D+00 -0.570728D-01  0.000000D+00  0.000000D+00
      5a  0.000000D+00 -0.513720D-01  0.000000D+00  0.943192D-03  0.150845D-02
      5b  0.737288D-01  0.000000D+00  0.107702D+00  0.000000D+00  0.000000D+00
      6a  0.000000D+00  0.513721D-01  0.000000D+00  0.943192D-03 -0.150845D-02
      6b  0.737289D-01  0.000000D+00 -0.107702D+00  0.000000D+00  0.000000D+00
      7a  0.000000D+00 -0.757811D-01  0.000000D+00 -0.884578D-01 -0.844280D-01
      7b -0.144474D-01  0.000000D+00  0.570728D-01  0.000000D+00  0.000000D+00
      8a  0.000000D+00  0.751057D-01  0.000000D+00  0.885936D-01 -0.846737D-01
      8b -0.154068D-01  0.000000D+00 -0.566618D-01  0.000000D+00  0.000000D+00
      9a  0.000000D+00 -0.431651D-01  0.000000D+00 -0.688915D-01  0.797429D-01
      9b -0.591476D-01  0.000000D+00  0.179986D-01  0.000000D+00  0.000000D+00
     10a  0.000000D+00  0.432163D-01  0.000000D+00  0.676875D-01  0.810229D-01
     10b -0.587755D-01  0.000000D+00 -0.175205D-01  0.000000D+00  0.000000D+00
                11            12            13            14            15 
      1a  0.000000D+00  0.000000D+00 -0.114630D+00  0.000000D+00  0.597505D-01
      1b  0.741591D-01 -0.787182D-01  0.000000D+00 -0.114430D+00  0.000000D+00
      2a  0.000000D+00  0.000000D+00  0.116286D+00  0.000000D+00  0.533262D-01
      2b -0.747968D-01 -0.769568D-01  0.000000D+00  0.116287D+00  0.000000D+00
      3a  0.000000D+00  0.000000D+00  0.170988D-01  0.000000D+00 -0.122186D+00
      3b  0.822813D-01  0.871452D-01  0.000000D+00 -0.207759D-01  0.000000D+00
      4a  0.000000D+00  0.000000D+00 -0.197932D-01  0.000000D+00 -0.115271D+00
      4b -0.821479D-01  0.882023D-01  0.000000D+00  0.178618D-01  0.000000D+00
      5a  0.000000D+00  0.000000D+00  0.114584D+00  0.000000D+00  0.151544D+00
      5b  0.605097D-03  0.127795D-02  0.000000D+00  0.110823D+00  0.000000D+00
      6a  0.000000D+00  0.000000D+00 -0.114584D+00  0.000000D+00  0.151544D+00
      6b  0.605097D-03 -0.127795D-02  0.000000D+00 -0.110823D+00  0.000000D+00
      7a  0.000000D+00  0.000000D+00  0.197932D-01  0.000000D+00 -0.115271D+00
      7b -0.821479D-01 -0.882023D-01  0.000000D+00 -0.178618D-01  0.000000D+00
      8a  0.000000D+00  0.000000D+00 -0.170988D-01  0.000000D+00 -0.122186D+00
      8b  0.822813D-01 -0.871452D-01  0.000000D+00  0.207759D-01  0.000000D+00
      9a  0.000000D+00  0.000000D+00 -0.116286D+00  0.000000D+00  0.533262D-01
      9b -0.747968D-01  0.769568D-01  0.000000D+00 -0.116287D+00  0.000000D+00
     10a  0.000000D+00  0.000000D+00  0.114630D+00  0.000000D+00  0.597505D-01
     10b  0.741591D-01  0.787182D-01  0.000000D+00  0.114430D+00  0.000000D+00
                16            17            18            19            20 
      1a  0.000000D+00  0.132282D+00  0.000000D+00  0.891430D-01  0.000000D+00
      1b  0.681530D-01  0.000000D+00  0.129643D+00  0.000000D+00  0.976332D-01
      2a  0.000000D+00 -0.135080D+00  0.000000D+00 -0.882762D-01  0.000000D+00
      2b  0.648307D-01  0.000000D+00 -0.131085D+00  0.000000D+00 -0.967047D-01
      3a  0.000000D+00 -0.129171D+00  0.000000D+00 -0.169018D+00  0.000000D+00
      3b -0.124129D+00  0.000000D+00 -0.134504D+00  0.000000D+00 -0.175953D+00
      4a  0.000000D+00  0.136190D+00  0.000000D+00  0.168051D+00  0.000000D+00
      4b -0.120315D+00  0.000000D+00  0.138919D+00  0.000000D+00  0.175207D+00
      5a  0.000000D+00 -0.463578D-02  0.000000D+00  0.213034D+00  0.000000D+00
      5b  0.135398D+00  0.000000D+00 -0.285743D-02  0.000000D+00  0.193058D+00
      6a  0.000000D+00 -0.463578D-02  0.000000D+00 -0.213034D+00  0.000000D+00
      6b  0.135398D+00  0.000000D+00 -0.285743D-02  0.000000D+00 -0.193058D+00
      7a  0.000000D+00  0.136190D+00  0.000000D+00 -0.168051D+00  0.000000D+00
      7b -0.120315D+00  0.000000D+00  0.138919D+00  0.000000D+00 -0.175207D+00
      8a  0.000000D+00 -0.129171D+00  0.000000D+00  0.169018D+00  0.000000D+00
      8b -0.124129D+00  0.000000D+00 -0.134504D+00  0.000000D+00  0.175953D+00
      9a  0.000000D+00 -0.135080D+00  0.000000D+00  0.882762D-01  0.000000D+00
      9b  0.648307D-01  0.000000D+00 -0.131085D+00  0.000000D+00  0.967047D-01
     10a  0.000000D+00  0.132282D+00  0.000000D+00 -0.891430D-01  0.000000D+00
     10b  0.681530D-01  0.000000D+00  0.129643D+00  0.000000D+00 -0.976332D-01
 afr conversion (alpha, real):
                 1             2             3             4             5 
      1  -0.608738D-01  0.457305D-01 -0.124698D+00  0.169000D+00 -0.256729D+00
      2  -0.612464D-01  0.464208D-01 -0.124896D+00  0.170774D+00 -0.253562D+00
      3  -0.147140D+00  0.110524D+00 -0.178055D+00  0.180842D+00  0.481490D-01
      4  -0.147352D+00  0.111044D+00 -0.177673D+00  0.179051D+00  0.522782D-01
      5  -0.953324D-01  0.238811D+00 -0.112537D-02  0.111575D-02  0.210625D+00
      6  -0.953324D-01  0.238811D+00  0.112537D-02 -0.111575D-02  0.210625D+00
      7  -0.147352D+00  0.111044D+00  0.177673D+00 -0.179051D+00  0.522782D-01
      8  -0.147140D+00  0.110524D+00  0.178055D+00 -0.180842D+00  0.481491D-01
      9  -0.612464D-01  0.464208D-01  0.124896D+00 -0.170775D+00 -0.253562D+00
     10  -0.608737D-01  0.457304D-01  0.124698D+00 -0.169000D+00 -0.256729D+00
                 6             7             8             9            10 
      1  -0.258625D+00  0.163494D+00  0.770939D-01 -0.256072D+00  0.306522D+00
      2  -0.260262D+00 -0.163300D+00 -0.791977D-01  0.260627D+00  0.301679D+00
      3  -0.677936D-01  0.284136D+00  0.249324D+00 -0.335163D+00 -0.320333D+00
      4  -0.635709D-01 -0.286692D+00 -0.251132D+00  0.334649D+00 -0.319404D+00
      5   0.324422D+00  0.194349D+00  0.473910D+00 -0.356824D-02 -0.570669D-02
      6   0.324423D+00 -0.194348D+00 -0.473909D+00 -0.356824D-02  0.570669D-02
      7  -0.635718D-01  0.286691D+00  0.251132D+00  0.334649D+00  0.319404D+00
      8  -0.677927D-01 -0.284136D+00 -0.249324D+00 -0.335163D+00  0.320334D+00
      9  -0.260262D+00  0.163300D+00  0.791977D-01  0.260627D+00 -0.301679D+00
     10  -0.258625D+00 -0.163494D+00 -0.770939D-01 -0.256072D+00 -0.306522D+00
                11            12            13            14            15 
      1   0.326315D+00 -0.346377D+00  0.433661D+00 -0.503518D+00 -0.226045D+00
      2  -0.329121D+00 -0.338626D+00 -0.439926D+00  0.511689D+00 -0.201741D+00
      3   0.362055D+00  0.383457D+00 -0.646873D-01 -0.914181D-01  0.462247D+00
      4  -0.361468D+00  0.388109D+00  0.748807D-01  0.785957D-01  0.436088D+00
      5   0.266256D-02  0.562324D-02 -0.433489D+00  0.487643D+00 -0.573312D+00
      6   0.266255D-02 -0.562324D-02  0.433489D+00 -0.487644D+00 -0.573312D+00
      7  -0.361468D+00 -0.388109D+00 -0.748807D-01 -0.785956D-01  0.436088D+00
      8   0.362055D+00 -0.383457D+00  0.646872D-01  0.914182D-01  0.462247D+00
      9  -0.329121D+00  0.338626D+00  0.439926D+00 -0.511689D+00 -0.201741D+00
     10   0.326315D+00  0.346377D+00 -0.433661D+00  0.503518D+00 -0.226045D+00
                16            17            18            19            20 
      1   0.299887D+00 -0.500442D+00  0.570456D+00 -0.337241D+00  0.429606D+00
      2   0.285268D+00  0.511029D+00 -0.576803D+00  0.333962D+00 -0.425521D+00
      3  -0.546196D+00  0.488673D+00 -0.591846D+00  0.639419D+00 -0.774229D+00
      4  -0.529409D+00 -0.515226D+00  0.611271D+00 -0.635761D+00  0.770947D+00
      5   0.595777D+00  0.175378D-01 -0.125733D-01 -0.805938D+00  0.849493D+00
      6   0.595777D+00  0.175378D-01 -0.125733D-01  0.805938D+00 -0.849493D+00
      7  -0.529409D+00 -0.515226D+00  0.611271D+00  0.635761D+00 -0.770947D+00
      8  -0.546196D+00  0.488673D+00 -0.591846D+00 -0.639419D+00  0.774229D+00
      9   0.285268D+00  0.511029D+00 -0.576803D+00 -0.333962D+00  0.425521D+00
     10   0.299887D+00 -0.500442D+00  0.570456D+00  0.337241D+00 -0.429606D+00
 afr conversion (alpha, imaginary):
                 1             2             3             4             5 
      1   0.160908D-01  0.000000D+00  0.329615D-01  0.000000D+00  0.678610D-01
      2   0.161893D-01  0.000000D+00  0.330136D-01  0.000000D+00  0.670241D-01
      3   0.388934D-01  0.000000D+00  0.470653D-01  0.000000D+00 -0.127272D-01
      4   0.389496D-01  0.000000D+00  0.469642D-01  0.000000D+00 -0.138187D-01
      5   0.251992D-01  0.000000D+00  0.297470D-03  0.000000D+00 -0.556745D-01
      6   0.251992D-01  0.000000D+00 -0.297470D-03  0.000000D+00 -0.556745D-01
      7   0.389496D-01  0.000000D+00 -0.469642D-01  0.000000D+00 -0.138187D-01
      8   0.388934D-01  0.000000D+00 -0.470652D-01  0.000000D+00 -0.127272D-01
      9   0.161893D-01  0.000000D+00 -0.330136D-01  0.000000D+00  0.670241D-01
     10   0.160908D-01  0.000000D+00 -0.329615D-01  0.000000D+00  0.678610D-01
                 6             7             8             9            10 
      1   0.000000D+00 -0.432164D-01  0.000000D+00  0.676875D-01 -0.810229D-01
      2   0.000000D+00  0.431651D-01  0.000000D+00 -0.688915D-01 -0.797429D-01
      3   0.000000D+00 -0.751057D-01  0.000000D+00  0.885936D-01  0.846737D-01
      4   0.000000D+00  0.757811D-01  0.000000D+00 -0.884578D-01  0.844280D-01
      5   0.000000D+00 -0.513720D-01  0.000000D+00  0.943192D-03  0.150845D-02
      6   0.000000D+00  0.513721D-01  0.000000D+00  0.943192D-03 -0.150845D-02
      7   0.000000D+00 -0.757811D-01  0.000000D+00 -0.884578D-01 -0.844280D-01
      8   0.000000D+00  0.751057D-01  0.000000D+00  0.885936D-01 -0.846737D-01
      9   0.000000D+00 -0.431651D-01  0.000000D+00 -0.688915D-01  0.797429D-01
     10   0.000000D+00  0.432163D-01  0.000000D+00  0.676875D-01  0.810229D-01
                11            12            13            14            15 
      1   0.000000D+00  0.000000D+00 -0.114630D+00  0.000000D+00  0.597505D-01
      2   0.000000D+00  0.000000D+00  0.116286D+00  0.000000D+00  0.533262D-01
      3   0.000000D+00  0.000000D+00  0.170988D-01  0.000000D+00 -0.122186D+00
      4   0.000000D+00  0.000000D+00 -0.197932D-01  0.000000D+00 -0.115271D+00
      5   0.000000D+00  0.000000D+00  0.114584D+00  0.000000D+00  0.151544D+00
      6   0.000000D+00  0.000000D+00 -0.114584D+00  0.000000D+00  0.151544D+00
      7   0.000000D+00  0.000000D+00  0.197932D-01  0.000000D+00 -0.115271D+00
      8   0.000000D+00  0.000000D+00 -0.170988D-01  0.000000D+00 -0.122186D+00
      9   0.000000D+00  0.000000D+00 -0.116286D+00  0.000000D+00  0.533262D-01
     10   0.000000D+00  0.000000D+00  0.114630D+00  0.000000D+00  0.597505D-01
                16            17            18            19            20 
      1   0.000000D+00  0.132282D+00  0.000000D+00  0.891430D-01  0.000000D+00
      2   0.000000D+00 -0.135080D+00  0.000000D+00 -0.882762D-01  0.000000D+00
      3   0.000000D+00 -0.129171D+00  0.000000D+00 -0.169018D+00  0.000000D+00
      4   0.000000D+00  0.136190D+00  0.000000D+00  0.168051D+00  0.000000D+00
      5   0.000000D+00 -0.463578D-02  0.000000D+00  0.213034D+00  0.000000D+00
      6   0.000000D+00 -0.463578D-02  0.000000D+00 -0.213034D+00  0.000000D+00
      7   0.000000D+00  0.136190D+00  0.000000D+00 -0.168051D+00  0.000000D+00
      8   0.000000D+00 -0.129171D+00  0.000000D+00  0.169018D+00  0.000000D+00
      9   0.000000D+00 -0.135080D+00  0.000000D+00  0.882762D-01  0.000000D+00
     10   0.000000D+00  0.132282D+00  0.000000D+00 -0.891430D-01  0.000000D+00
 afr conversion (beta, real):
                 1             2             3             4             5 
      1   0.708027D-01  0.393175D-01  0.145038D+00  0.145301D+00  0.298603D+00
      2   0.712361D-01  0.399111D-01  0.145267D+00  0.146826D+00  0.294920D+00
      3   0.171139D+00  0.950246D-01  0.207097D+00  0.155482D+00 -0.560025D-01
      4   0.171387D+00  0.954715D-01  0.206652D+00  0.153942D+00 -0.608051D-01
      5   0.110882D+00  0.205322D+00  0.130893D-02  0.959283D-03 -0.244979D+00
      6   0.110882D+00  0.205322D+00 -0.130893D-02 -0.959283D-03 -0.244979D+00
      7   0.171387D+00  0.954716D-01 -0.206652D+00 -0.153942D+00 -0.608051D-01
      8   0.171139D+00  0.950245D-01 -0.207097D+00 -0.155482D+00 -0.560025D-01
      9   0.712361D-01  0.399110D-01 -0.145267D+00 -0.146826D+00  0.294920D+00
     10   0.708027D-01  0.393175D-01 -0.145038D+00 -0.145301D+00  0.298603D+00
                 6             7             8             9            10 
      1  -0.222357D+00 -0.190161D+00  0.662828D-01  0.297839D+00 -0.356517D+00
      2  -0.223765D+00  0.189935D+00 -0.680915D-01 -0.303137D+00 -0.350885D+00
      3  -0.582857D-01 -0.330481D+00  0.214360D+00  0.389830D+00  0.372582D+00
      4  -0.546571D-01  0.333453D+00 -0.215915D+00 -0.389233D+00  0.371500D+00
      5   0.278928D+00 -0.226047D+00  0.407451D+00  0.415024D-02  0.663749D-02
      6   0.278927D+00  0.226048D+00 -0.407452D+00  0.415024D-02 -0.663749D-02
      7  -0.546560D-01 -0.333453D+00  0.215915D+00 -0.389233D+00 -0.371501D+00
      8  -0.582868D-01  0.330481D+00 -0.214360D+00  0.389830D+00 -0.372582D+00
      9  -0.223764D+00 -0.189936D+00  0.680915D-01 -0.303137D+00  0.350885D+00
     10  -0.222357D+00  0.190161D+00 -0.662828D-01  0.297839D+00  0.356518D+00
                11            12            13            14            15 
      1   0.280555D+00 -0.297803D+00 -0.504394D+00 -0.432908D+00  0.262915D+00
      2  -0.282967D+00 -0.291139D+00  0.511681D+00  0.439933D+00  0.234646D+00
      3   0.311282D+00  0.329683D+00  0.752382D-01 -0.785983D-01 -0.537642D+00
      4  -0.310778D+00  0.333683D+00 -0.870942D-01  0.675739D-01 -0.507217D+00
      5   0.228917D-02  0.483467D-02  0.504194D+00  0.419260D+00  0.666823D+00
      6   0.228918D-02 -0.483467D-02 -0.504194D+00 -0.419259D+00  0.666823D+00
      7  -0.310778D+00 -0.333683D+00  0.870942D-01 -0.675740D-01 -0.507217D+00
      8   0.311282D+00 -0.329683D+00 -0.752382D-01  0.785982D-01 -0.537642D+00
      9  -0.282968D+00  0.291139D+00 -0.511681D+00 -0.439933D+00  0.234646D+00
     10   0.280555D+00  0.297803D+00  0.504394D+00  0.432908D+00  0.262914D+00
                16            17            18            19            20 
      1   0.257833D+00  0.582068D+00  0.490459D+00  0.392248D+00  0.369361D+00
      2   0.245264D+00 -0.594381D+00 -0.495916D+00 -0.388434D+00 -0.365848D+00
      3  -0.469601D+00 -0.568379D+00 -0.508849D+00 -0.743712D+00 -0.665656D+00
      4  -0.455168D+00  0.599263D+00  0.525550D+00  0.739458D+00  0.662834D+00
      5   0.512229D+00 -0.203984D-01 -0.108101D-01  0.937392D+00  0.730366D+00
      6   0.512229D+00 -0.203984D-01 -0.108101D-01 -0.937392D+00 -0.730366D+00
      7  -0.455168D+00  0.599263D+00  0.525550D+00 -0.739458D+00 -0.662834D+00
      8  -0.469601D+00 -0.568379D+00 -0.508849D+00  0.743712D+00  0.665656D+00
      9   0.245264D+00 -0.594381D+00 -0.495916D+00  0.388434D+00  0.365848D+00
     10   0.257833D+00  0.582068D+00  0.490459D+00 -0.392248D+00 -0.369361D+00
 afr conversion (beta, imaginary):
                 1             2             3             4             5 
      1   0.000000D+00  0.103928D-01  0.000000D+00  0.384073D-01  0.000000D+00
      2   0.000000D+00  0.105497D-01  0.000000D+00  0.388105D-01  0.000000D+00
      3   0.000000D+00  0.251178D-01  0.000000D+00  0.410984D-01  0.000000D+00
      4   0.000000D+00  0.252360D-01  0.000000D+00  0.406915D-01  0.000000D+00
      5   0.000000D+00  0.542726D-01  0.000000D+00  0.253567D-03  0.000000D+00
      6   0.000000D+00  0.542726D-01  0.000000D+00 -0.253567D-03  0.000000D+00
      7   0.000000D+00  0.252360D-01  0.000000D+00 -0.406915D-01  0.000000D+00
      8   0.000000D+00  0.251178D-01  0.000000D+00 -0.410984D-01  0.000000D+00
      9   0.000000D+00  0.105497D-01  0.000000D+00 -0.388105D-01  0.000000D+00
     10   0.000000D+00  0.103928D-01  0.000000D+00 -0.384073D-01  0.000000D+00
                 6             7             8             9            10 
      1  -0.587756D-01  0.000000D+00  0.175205D-01  0.000000D+00  0.000000D+00
      2  -0.591476D-01  0.000000D+00 -0.179986D-01  0.000000D+00  0.000000D+00
      3  -0.154068D-01  0.000000D+00  0.566618D-01  0.000000D+00  0.000000D+00
      4  -0.144473D-01  0.000000D+00 -0.570728D-01  0.000000D+00  0.000000D+00
      5   0.737288D-01  0.000000D+00  0.107702D+00  0.000000D+00  0.000000D+00
      6   0.737289D-01  0.000000D+00 -0.107702D+00  0.000000D+00  0.000000D+00
      7  -0.144474D-01  0.000000D+00  0.570728D-01  0.000000D+00  0.000000D+00
      8  -0.154068D-01  0.000000D+00 -0.566618D-01  0.000000D+00  0.000000D+00
      9  -0.591476D-01  0.000000D+00  0.179986D-01  0.000000D+00  0.000000D+00
     10  -0.587755D-01  0.000000D+00 -0.175205D-01  0.000000D+00  0.000000D+00
                11            12            13            14            15 
      1   0.741591D-01 -0.787182D-01  0.000000D+00 -0.114430D+00  0.000000D+00
      2  -0.747968D-01 -0.769568D-01  0.000000D+00  0.116287D+00  0.000000D+00
      3   0.822813D-01  0.871452D-01  0.000000D+00 -0.207759D-01  0.000000D+00
      4  -0.821479D-01  0.882023D-01  0.000000D+00  0.178618D-01  0.000000D+00
      5   0.605097D-03  0.127795D-02  0.000000D+00  0.110823D+00  0.000000D+00
      6   0.605097D-03 -0.127795D-02  0.000000D+00 -0.110823D+00  0.000000D+00
      7  -0.821479D-01 -0.882023D-01  0.000000D+00 -0.178618D-01  0.000000D+00
      8   0.822813D-01 -0.871452D-01  0.000000D+00  0.207759D-01  0.000000D+00
      9  -0.747968D-01  0.769568D-01  0.000000D+00 -0.116287D+00  0.000000D+00
     10   0.741591D-01  0.787182D-01  0.000000D+00  0.114430D+00  0.000000D+00
                16            17            18            19            20 
      1   0.681530D-01  0.000000D+00  0.129643D+00  0.000000D+00  0.976332D-01
      2   0.648307D-01  0.000000D+00 -0.131085D+00  0.000000D+00 -0.967047D-01
      3  -0.124129D+00  0.000000D+00 -0.134504D+00  0.000000D+00 -0.175953D+00
      4  -0.120315D+00  0.000000D+00  0.138919D+00  0.000000D+00  0.175207D+00
      5   0.135398D+00  0.000000D+00 -0.285743D-02  0.000000D+00  0.193058D+00
      6   0.135398D+00  0.000000D+00 -0.285743D-02  0.000000D+00 -0.193058D+00
      7  -0.120315D+00  0.000000D+00  0.138919D+00  0.000000D+00 -0.175207D+00
      8  -0.124129D+00  0.000000D+00 -0.134504D+00  0.000000D+00  0.175953D+00
      9   0.648307D-01  0.000000D+00 -0.131085D+00  0.000000D+00  0.967047D-01
     10   0.681530D-01  0.000000D+00  0.129643D+00  0.000000D+00 -0.976332D-01
 jaja in hckghf.F, ISPECT =                     548
Spin block MO for GHF transformation
NOA =   10   NOB =   10
NVA =   10   NVB =   10
 NOAvA in Hack                     100
 jaja in tranN3.F, ISPECT =                     548
 in l802/tranN3.F, LSPECT =                      800
 NMat, NBtSiz,MDV                    8372                   16000
                133954722
 TranN3:  NGot= 134217728 NBasic=    263006 NTTT=       550 NMat=      8372.
 Defined bucket =                      51                   10000
 Defined bucket =                      52                   10000
 Defined bucket =                      53                   10000
 Defined bucket =                      55                   10000
 Defined bucket =                      57                   10000
 Defined bucket =                      58                   10000
 Defined bucket =                      60                   10000
 Defined bucket =                      72                   10000
 Defined bucket =                      73                   10000
 Defined bucket =                      74                   10000
 Defined bucket =                      75                   10000
 Defined bucket =                      76                   10000
 (IK/LS) integrals will be saved in memory.
 TrCghf made   2 passes through the AO integrals.
 jaja DoHack is true or false? F
 jaja in hckghf.F, NBasis=                      10
 jaja in hckGHF/FixOG, LC =                      800
 jaja in hckGHF/FixOG, IRwC=                      548
 bfr conversion (alpha, real):
                 1             2             3             4             5 
      1  -0.608738D-01  0.457305D-01 -0.124698D+00  0.169000D+00 -0.256729D+00
      2  -0.612464D-01  0.464208D-01 -0.124896D+00  0.170774D+00 -0.253562D+00
      3  -0.147140D+00  0.110524D+00 -0.178055D+00  0.180842D+00  0.481490D-01
      4  -0.147352D+00  0.111044D+00 -0.177673D+00  0.179051D+00  0.522782D-01
      5  -0.953324D-01  0.238811D+00 -0.112537D-02  0.111575D-02  0.210625D+00
      6  -0.953324D-01  0.238811D+00  0.112537D-02 -0.111575D-02  0.210625D+00
      7  -0.147352D+00  0.111044D+00  0.177673D+00 -0.179051D+00  0.522782D-01
      8  -0.147140D+00  0.110524D+00  0.178055D+00 -0.180842D+00  0.481491D-01
      9  -0.612464D-01  0.464208D-01  0.124896D+00 -0.170775D+00 -0.253562D+00
     10  -0.608737D-01  0.457304D-01  0.124698D+00 -0.169000D+00 -0.256729D+00
                 6             7             8             9            10 
      1  -0.258625D+00  0.163494D+00  0.770939D-01 -0.256072D+00  0.306522D+00
      2  -0.260262D+00 -0.163300D+00 -0.791977D-01  0.260627D+00  0.301679D+00
      3  -0.677936D-01  0.284136D+00  0.249324D+00 -0.335163D+00 -0.320333D+00
      4  -0.635709D-01 -0.286692D+00 -0.251132D+00  0.334649D+00 -0.319404D+00
      5   0.324422D+00  0.194349D+00  0.473910D+00 -0.356824D-02 -0.570669D-02
      6   0.324423D+00 -0.194348D+00 -0.473909D+00 -0.356824D-02  0.570669D-02
      7  -0.635718D-01  0.286691D+00  0.251132D+00  0.334649D+00  0.319404D+00
      8  -0.677927D-01 -0.284136D+00 -0.249324D+00 -0.335163D+00  0.320334D+00
      9  -0.260262D+00  0.163300D+00  0.791977D-01  0.260627D+00 -0.301679D+00
     10  -0.258625D+00 -0.163494D+00 -0.770939D-01 -0.256072D+00 -0.306522D+00
                11            12            13            14            15 
      1   0.326315D+00 -0.346377D+00  0.433661D+00 -0.503518D+00 -0.226045D+00
      2  -0.329121D+00 -0.338626D+00 -0.439926D+00  0.511689D+00 -0.201741D+00
      3   0.362055D+00  0.383457D+00 -0.646873D-01 -0.914181D-01  0.462247D+00
      4  -0.361468D+00  0.388109D+00  0.748807D-01  0.785957D-01  0.436088D+00
      5   0.266256D-02  0.562324D-02 -0.433489D+00  0.487643D+00 -0.573312D+00
      6   0.266255D-02 -0.562324D-02  0.433489D+00 -0.487644D+00 -0.573312D+00
      7  -0.361468D+00 -0.388109D+00 -0.748807D-01 -0.785956D-01  0.436088D+00
      8   0.362055D+00 -0.383457D+00  0.646872D-01  0.914182D-01  0.462247D+00
      9  -0.329121D+00  0.338626D+00  0.439926D+00 -0.511689D+00 -0.201741D+00
     10   0.326315D+00  0.346377D+00 -0.433661D+00  0.503518D+00 -0.226045D+00
                16            17            18            19            20 
      1   0.299887D+00 -0.500442D+00  0.570456D+00 -0.337241D+00  0.429606D+00
      2   0.285268D+00  0.511029D+00 -0.576803D+00  0.333962D+00 -0.425521D+00
      3  -0.546196D+00  0.488673D+00 -0.591846D+00  0.639419D+00 -0.774229D+00
      4  -0.529409D+00 -0.515226D+00  0.611271D+00 -0.635761D+00  0.770947D+00
      5   0.595777D+00  0.175378D-01 -0.125733D-01 -0.805938D+00  0.849493D+00
      6   0.595777D+00  0.175378D-01 -0.125733D-01  0.805938D+00 -0.849493D+00
      7  -0.529409D+00 -0.515226D+00  0.611271D+00  0.635761D+00 -0.770947D+00
      8  -0.546196D+00  0.488673D+00 -0.591846D+00 -0.639419D+00  0.774229D+00
      9   0.285268D+00  0.511029D+00 -0.576803D+00 -0.333962D+00  0.425521D+00
     10   0.299887D+00 -0.500442D+00  0.570456D+00  0.337241D+00 -0.429606D+00
 bfr conversion (alpha, imaginary):
                 1             2             3             4             5 
      1   0.160908D-01  0.000000D+00  0.329615D-01  0.000000D+00  0.678610D-01
      2   0.161893D-01  0.000000D+00  0.330136D-01  0.000000D+00  0.670241D-01
      3   0.388934D-01  0.000000D+00  0.470653D-01  0.000000D+00 -0.127272D-01
      4   0.389496D-01  0.000000D+00  0.469642D-01  0.000000D+00 -0.138187D-01
      5   0.251992D-01  0.000000D+00  0.297470D-03  0.000000D+00 -0.556745D-01
      6   0.251992D-01  0.000000D+00 -0.297470D-03  0.000000D+00 -0.556745D-01
      7   0.389496D-01  0.000000D+00 -0.469642D-01  0.000000D+00 -0.138187D-01
      8   0.388934D-01  0.000000D+00 -0.470652D-01  0.000000D+00 -0.127272D-01
      9   0.161893D-01  0.000000D+00 -0.330136D-01  0.000000D+00  0.670241D-01
     10   0.160908D-01  0.000000D+00 -0.329615D-01  0.000000D+00  0.678610D-01
                 6             7             8             9            10 
      1   0.000000D+00 -0.432164D-01  0.000000D+00  0.676875D-01 -0.810229D-01
      2   0.000000D+00  0.431651D-01  0.000000D+00 -0.688915D-01 -0.797429D-01
      3   0.000000D+00 -0.751057D-01  0.000000D+00  0.885936D-01  0.846737D-01
      4   0.000000D+00  0.757811D-01  0.000000D+00 -0.884578D-01  0.844280D-01
      5   0.000000D+00 -0.513720D-01  0.000000D+00  0.943192D-03  0.150845D-02
      6   0.000000D+00  0.513721D-01  0.000000D+00  0.943192D-03 -0.150845D-02
[...]
      6b 0.321322D+00 -0.101497D+01  0.513984D+00 -0.568947D+00 -0.181841D+00
      7a-0.614759D+00  0.127619D+01 -0.364660D+00  0.466564D+00 -0.166546D+01
      7b 0.390445D+00 -0.892896D+00  0.444057D+00 -0.479841D+00  0.873394D+00
      8a-0.359180D+00  0.431296D+00 -0.680185D+00  0.402904D+00 -0.587639D+00
      8b 0.459704D+00 -0.462549D+00  0.128181D+01 -0.817352D+00  0.923953D+00
      9a 0.333318D+00 -0.253519D+00  0.549945D+00 -0.194249D+00 -0.614118D+00
      9b-0.257035D+00  0.259231D+00 -0.104652D+01  0.700864D+00  0.126796D+01
     10a 0.557897D+00 -0.105999D+01  0.200221D+00 -0.228111D+00 -0.354234D+00
     10b-0.204326D+00  0.711681D+00 -0.231627D+00  0.392328D+00  0.459204D+00
                3b            4a            4b            5a            5b
      3b 0.199887D+01
      4a-0.409863D+00  0.141667D+01
      4b 0.897096D+00 -0.212197D+01  0.478110D+01
      5a-0.385023D+00  0.365771D-01 -0.156907D+00  0.809148D+00
      5b 0.906735D+00 -0.193747D+00  0.305814D+00 -0.656729D+00  0.216583D+01
      6a-0.220982D+00  0.717970D+00 -0.119206D+01  0.730616D+00 -0.110632D+01
      6b 0.637412D-01 -0.409403D+00  0.711110D+00 -0.146126D+00  0.882956D+00
      7a 0.881725D+00 -0.584752D+00  0.915292D+00  0.521345D+00 -0.115073D+01
      7b-0.498948D+00  0.339384D+00 -0.737363D+00 -0.368065D+00  0.907735D+00
      8a 0.341294D+00 -0.319934D+00  0.598353D+00  0.200639D-01 -0.177247D+00
      8b-0.741536D+00  0.590023D+00 -0.184448D+01 -0.138106D+00  0.277249D+00
      9a 0.389054D+00 -0.369030D+00  0.466965D+00 -0.459505D+00  0.385785D+00
      9b-0.883420D+00  0.444458D+00 -0.475471D+00  0.402238D+00 -0.108401D+01
     10a 0.430796D+00 -0.688292D+00  0.129168D+01 -0.805139D+00  0.140381D+01
     10b-0.467495D+00  0.405935D+00 -0.819363D+00  0.292803D+00 -0.115477D+01
                6a            6b            7a            7b            8a
      6a 0.197557D+01
      6b-0.907432D+00  0.999404D+00
      7a 0.257652D+00 -0.202213D+00  0.419361D+01
      7b-0.239053D+00  0.847393D-01 -0.270804D+01  0.200417D+01
      8a 0.713527D+00 -0.418923D+00  0.711273D+00 -0.409617D+00  0.141351D+01
      8b-0.120341D+01  0.745041D+00 -0.111786D+01  0.898412D+00 -0.211401D+01
      9a-0.936265D+00  0.314060D+00  0.103444D+01 -0.539427D+00  0.159060D+00
      9b 0.142261D+01 -0.101290D+01 -0.189019D+01  0.141283D+01  0.246532D-01
     10a-0.976790D+00  0.505996D+00 -0.322134D+00  0.140450D+00  0.112875D+01
     10b 0.505080D+00 -0.563928D+00  0.153959D+00  0.118043D+00 -0.559039D+00
                8b            9a            9b           10a           10b
      8b 0.476815D+01
      9a 0.458609D-01  0.127632D+01
      9b-0.318381D+00 -0.167876D+01  0.418375D+01
     10a-0.191164D+01  0.126213D+01 -0.208284D+01  0.373875D+01
     10b 0.132446D+01 -0.525255D+00  0.158675D+01 -0.221662D+01  0.175585D+01
 jaja lower-tri density matrix (imaginary):
                1a            1b            2a            2b            3a
      1a 0.000000D+00
      1b-0.938953D+00  0.000000D+00
      2a 0.285935D+00  0.514766D+00  0.000000D+00
      2b-0.172609D+00 -0.285935D+00 -0.937038D-01  0.000000D+00
      3a 0.251919D+00  0.489182D+00 -0.389579D-02  0.477052D-01  0.000000D+00
      3b-0.192933D+00 -0.251919D+00 -0.523633D-01  0.389577D-02 -0.167640D+00
      4a 0.257931D-02 -0.977827D-01 -0.251535D+00  0.161812D+00 -0.131389D+00
      4b 0.100726D+00 -0.257934D-02 -0.457669D+00  0.251535D+00 -0.279372D+00
      5a 0.106561D-02 -0.212873D+00  0.203272D+00 -0.124561D+00 -0.149102D+00
      5b 0.212371D+00 -0.106558D-02  0.368134D+00 -0.203272D+00 -0.322402D+00
      6a-0.203806D+00 -0.328268D+00  0.181157D-02 -0.240947D-01  0.710510D-02
      6b 0.841745D-01  0.203806D+00  0.280032D-01 -0.181154D-02 -0.954666D-02
      7a-0.168149D+00 -0.331314D+00 -0.445975D-02 -0.122590D+00 -0.159565D-02
      7b 0.138090D+00  0.168149D+00  0.117726D+00  0.445972D-02 -0.328332D-01
      8a 0.548560D-02 -0.114798D+00  0.166825D+00 -0.113964D+00  0.108172D+00
      8b 0.120973D+00 -0.548563D-02  0.305702D+00 -0.166825D+00  0.231071D+00
      9a-0.627776D-03  0.462914D-01 -0.157438D+00  0.704956D-01  0.166825D+00
      9b-0.470681D-01  0.627774D-03 -0.257476D+00  0.157438D+00  0.327696D+00
     10a 0.158210D+00  0.260944D+00 -0.627780D-03  0.811704D-01  0.548563D-02
     10b-0.732530D-01 -0.158210D+00 -0.819471D-01  0.627778D-03  0.120588D+00
                3b            4a            4b            5a            5b
      3b 0.000000D+00
      4a 0.124125D+00  0.000000D+00
      4b 0.131389D+00 -0.110802D+01  0.000000D+00
      5a 0.151310D+00 -0.654998D-02  0.830954D-01  0.000000D+00
      5b 0.149102D+00 -0.912398D-01  0.654996D-02 -0.412580D+00  0.000000D+00
      6a 0.181643D-01  0.148825D+00  0.258578D+00  0.175566D+00  0.271080D+00
      6b-0.710512D-02 -0.879014D-01 -0.148825D+00 -0.599803D-01 -0.175566D+00
      7a 0.310194D-01 -0.106927D+00 -0.228933D+00  0.148825D+00  0.324487D+00
      7b 0.159565D-02  0.102715D+00  0.106927D+00 -0.153811D+00 -0.148825D+00
      8a-0.103372D+00 -0.159565D-02 -0.421860D+00  0.710512D-02  0.853711D-01
      8b-0.108172D+00  0.420046D+00  0.159565D-02 -0.767534D-01 -0.710510D-02
      9a-0.135958D+00 -0.445972D-02 -0.123085D+00  0.181153D-02 -0.209832D+00
      9b-0.166825D+00  0.118220D+00  0.445975D-02  0.213741D+00 -0.181157D-02
     10a-0.114413D+00 -0.168149D+00 -0.306546D+00 -0.203806D+00 -0.371830D+00
     10b-0.548560D-02  0.113322D+00  0.168149D+00  0.127737D+00  0.203806D+00
                6a            6b            7a            7b            8a
      6a 0.000000D+00
      6b-0.874598D-03  0.000000D+00
      7a-0.654996D-02  0.134243D-01  0.000000D+00
      7b-0.215687D-01  0.654999D-02 -0.168694D+00  0.000000D+00
      8a-0.149102D+00  0.974687D-01 -0.131389D+00  0.124451D+00  0.000000D+00
      8b-0.268560D+00  0.149102D+00 -0.279699D+00  0.131389D+00 -0.110444D+01
      9a 0.203272D+00 -0.838512D-01 -0.251535D+00  0.189053D+00 -0.389576D-02
      9b 0.327424D+00 -0.203272D+00 -0.484910D+00  0.251535D+00  0.910750D-01
     10a 0.106557D-02 -0.249722D-01  0.257933D-02  0.480245D-01  0.251919D+00
     10b 0.244708D-01 -0.106561D-02 -0.450811D-01 -0.257931D-02 -0.158178D+00
                8b            9a            9b           10a           10b
      8b 0.000000D+00
      9a-0.957332D-01  0.000000D+00
      9b 0.389578D-02 -0.930585D+00  0.000000D+00
     10a 0.454427D+00  0.285935D+00  0.517189D+00  0.000000D+00
     10b-0.251919D+00 -0.175032D+00 -0.285935D+00 -0.948606D-01  0.000000D+00
 jaja non-ortho density matrix               [Gau-style] (real):
                 1             2             3             4             5 
      1a  0.128013D+01 -0.169445D+01  0.126933D+01 -0.526772D+00  0.102657D+01
      1b -0.169445D+01  0.421447D+01 -0.208435D+01  0.157955D+01 -0.189002D+01
      2a  0.126933D+01 -0.208435D+01  0.371241D+01 -0.219628D+01 -0.298424D+00
      2b -0.526772D+00  0.157955D+01 -0.219628D+01  0.174766D+01  0.139422D+00
      3a  0.102657D+01 -0.189002D+01 -0.298424D+00  0.139422D+00  0.418279D+01
      3b -0.537423D+00  0.142664D+01  0.118214D+00  0.139103D+00 -0.269847D+01
      4a  0.142294D+00  0.454187D-01  0.111523D+01 -0.556454D+00  0.712589D+00
      4b  0.589277D-01 -0.346385D+00 -0.190722D+01  0.133204D+01 -0.111811D+01
      5a -0.454712D+00  0.392826D+00 -0.804911D+00  0.287322D+00  0.551833D+00
      5b  0.391910D+00 -0.108601D+01  0.139587D+01 -0.114425D+01 -0.116951D+01
      6a -0.944933D+00  0.143233D+01 -0.974569D+00  0.497530D+00  0.233572D+00
      6b  0.321322D+00 -0.101497D+01  0.513984D+00 -0.568947D+00 -0.181841D+00
      7a -0.614759D+00  0.127619D+01 -0.364660D+00  0.466564D+00 -0.166546D+01
      7b  0.390445D+00 -0.892896D+00  0.444057D+00 -0.479841D+00  0.873394D+00
      8a -0.359180D+00  0.431296D+00 -0.680185D+00  0.402904D+00 -0.587639D+00
      8b  0.459704D+00 -0.462549D+00  0.128181D+01 -0.817352D+00  0.923953D+00
      9a  0.333318D+00 -0.253519D+00  0.549945D+00 -0.194249D+00 -0.614118D+00
      9b -0.257035D+00  0.259231D+00 -0.104652D+01  0.700864D+00  0.126796D+01
     10a  0.557897D+00 -0.105999D+01  0.200221D+00 -0.228111D+00 -0.354234D+00
     10b -0.204326D+00  0.711681D+00 -0.231627D+00  0.392328D+00  0.459204D+00
                 6             7             8             9            10 
      1a -0.537423D+00  0.142294D+00  0.589277D-01 -0.454712D+00  0.391910D+00
      1b  0.142664D+01  0.454187D-01 -0.346385D+00  0.392826D+00 -0.108601D+01
      2a  0.118214D+00  0.111523D+01 -0.190722D+01 -0.804911D+00  0.139587D+01
      2b  0.139103D+00 -0.556454D+00  0.133204D+01  0.287322D+00 -0.114425D+01
      3a -0.269847D+01  0.712589D+00 -0.111811D+01  0.551833D+00 -0.116951D+01
      3b  0.199887D+01 -0.409863D+00  0.897096D+00 -0.385023D+00  0.906735D+00
      4a -0.409863D+00  0.141667D+01 -0.212197D+01  0.365771D-01 -0.193747D+00
      4b  0.897096D+00 -0.212197D+01  0.478110D+01 -0.156907D+00  0.305814D+00
      5a -0.385023D+00  0.365771D-01 -0.156907D+00  0.809148D+00 -0.656729D+00
      5b  0.906735D+00 -0.193747D+00  0.305814D+00 -0.656729D+00  0.216583D+01
      6a -0.220982D+00  0.717970D+00 -0.119206D+01  0.730616D+00 -0.110632D+01
      6b  0.637412D-01 -0.409403D+00  0.711110D+00 -0.146126D+00  0.882956D+00
      7a  0.881725D+00 -0.584752D+00  0.915292D+00  0.521345D+00 -0.115073D+01
      7b -0.498948D+00  0.339384D+00 -0.737363D+00 -0.368065D+00  0.907735D+00
      8a  0.341294D+00 -0.319934D+00  0.598353D+00  0.200639D-01 -0.177247D+00
      8b -0.741536D+00  0.590023D+00 -0.184448D+01 -0.138106D+00  0.277249D+00
      9a  0.389054D+00 -0.369030D+00  0.466965D+00 -0.459505D+00  0.385785D+00
      9b -0.883420D+00  0.444458D+00 -0.475471D+00  0.402238D+00 -0.108401D+01
     10a  0.430796D+00 -0.688292D+00  0.129168D+01 -0.805139D+00  0.140381D+01
     10b -0.467495D+00  0.405935D+00 -0.819363D+00  0.292803D+00 -0.115477D+01
                11            12            13            14            15 
      1a -0.944933D+00  0.321322D+00 -0.614759D+00  0.390445D+00 -0.359180D+00
      1b  0.143233D+01 -0.101497D+01  0.127619D+01 -0.892896D+00  0.431296D+00
      2a -0.974569D+00  0.513984D+00 -0.364660D+00  0.444057D+00 -0.680185D+00
      2b  0.497530D+00 -0.568947D+00  0.466564D+00 -0.479841D+00  0.402904D+00
      3a  0.233572D+00 -0.181841D+00 -0.166546D+01  0.873394D+00 -0.587639D+00
      3b -0.220982D+00  0.637412D-01  0.881725D+00 -0.498948D+00  0.341294D+00
      4a  0.717970D+00 -0.409403D+00 -0.584752D+00  0.339384D+00 -0.319934D+00
      4b -0.119206D+01  0.711110D+00  0.915292D+00 -0.737363D+00  0.598353D+00
      5a  0.730616D+00 -0.146126D+00  0.521345D+00 -0.368065D+00  0.200639D-01
      5b -0.110632D+01  0.882956D+00 -0.115073D+01  0.907735D+00 -0.177247D+00
      6a  0.197557D+01 -0.907432D+00  0.257652D+00 -0.239053D+00  0.713527D+00
      6b -0.907432D+00  0.999404D+00 -0.202213D+00  0.847393D-01 -0.418923D+00
      7a  0.257652D+00 -0.202213D+00  0.419361D+01 -0.270804D+01  0.711273D+00
      7b -0.239053D+00  0.847393D-01 -0.270804D+01  0.200417D+01 -0.409617D+00
      8a  0.713527D+00 -0.418923D+00  0.711273D+00 -0.409617D+00  0.141351D+01
      8b -0.120341D+01  0.745041D+00 -0.111786D+01  0.898412D+00 -0.211401D+01
      9a -0.936265D+00  0.314060D+00  0.103444D+01 -0.539427D+00  0.159060D+00
      9b  0.142261D+01 -0.101290D+01 -0.189019D+01  0.141283D+01  0.246532D-01
     10a -0.976790D+00  0.505996D+00 -0.322134D+00  0.140450D+00  0.112875D+01
     10b  0.505080D+00 -0.563928D+00  0.153959D+00  0.118043D+00 -0.559039D+00
                16            17            18            19            20 
      1a  0.459704D+00  0.333318D+00 -0.257035D+00  0.557897D+00 -0.204326D+00
      1b -0.462549D+00 -0.253519D+00  0.259231D+00 -0.105999D+01  0.711681D+00
      2a  0.128181D+01  0.549945D+00 -0.104652D+01  0.200221D+00 -0.231627D+00
      2b -0.817352D+00 -0.194249D+00  0.700864D+00 -0.228111D+00  0.392328D+00
      3a  0.923953D+00 -0.614118D+00  0.126796D+01 -0.354234D+00  0.459204D+00
      3b -0.741536D+00  0.389054D+00 -0.883420D+00  0.430796D+00 -0.467495D+00
      4a  0.590023D+00 -0.369030D+00  0.444458D+00 -0.688292D+00  0.405935D+00
      4b -0.184448D+01  0.466965D+00 -0.475471D+00  0.129168D+01 -0.819363D+00
      5a -0.138106D+00 -0.459505D+00  0.402238D+00 -0.805139D+00  0.292803D+00
      5b  0.277249D+00  0.385785D+00 -0.108401D+01  0.140381D+01 -0.115477D+01
      6a -0.120341D+01 -0.936265D+00  0.142261D+01 -0.976790D+00  0.505080D+00
      6b  0.745041D+00  0.314060D+00 -0.101290D+01  0.505996D+00 -0.563928D+00
      7a -0.111786D+01  0.103444D+01 -0.189019D+01 -0.322134D+00  0.153959D+00
      7b  0.898412D+00 -0.539427D+00  0.141283D+01  0.140450D+00  0.118043D+00
      8a -0.211401D+01  0.159060D+00  0.246532D-01  0.112875D+01 -0.559039D+00
      8b  0.476815D+01  0.458609D-01 -0.318381D+00 -0.191164D+01  0.132446D+01
      9a  0.458609D-01  0.127632D+01 -0.167876D+01  0.126213D+01 -0.525255D+00
      9b -0.318381D+00 -0.167876D+01  0.418375D+01 -0.208284D+01  0.158675D+01
     10a -0.191164D+01  0.126213D+01 -0.208284D+01  0.373875D+01 -0.221662D+01
     10b  0.132446D+01 -0.525255D+00  0.158675D+01 -0.221662D+01  0.175585D+01
 jaja non-ortho density matrix               [Gau-style] (imaginary):
                 1             2             3             4             5 
      1a  0.000000D+00  0.938953D+00 -0.285935D+00  0.172609D+00 -0.251919D+00
      1b -0.938953D+00  0.000000D+00 -0.514766D+00  0.285935D+00 -0.489182D+00
      2a  0.285935D+00  0.514766D+00  0.000000D+00  0.937038D-01  0.389579D-02
      2b -0.172609D+00 -0.285935D+00 -0.937038D-01  0.000000D+00 -0.477052D-01
      3a  0.251919D+00  0.489182D+00 -0.389579D-02  0.477052D-01  0.000000D+00
      3b -0.192933D+00 -0.251919D+00 -0.523633D-01  0.389577D-02 -0.167640D+00
      4a  0.257931D-02 -0.977827D-01 -0.251535D+00  0.161812D+00 -0.131389D+00
      4b  0.100726D+00 -0.257934D-02 -0.457669D+00  0.251535D+00 -0.279372D+00
      5a  0.106561D-02 -0.212873D+00  0.203272D+00 -0.124561D+00 -0.149102D+00
      5b  0.212371D+00 -0.106558D-02  0.368134D+00 -0.203272D+00 -0.322402D+00
      6a -0.203806D+00 -0.328268D+00  0.181157D-02 -0.240947D-01  0.710510D-02
      6b  0.841745D-01  0.203806D+00  0.280032D-01 -0.181154D-02 -0.954666D-02
      7a -0.168149D+00 -0.331314D+00 -0.445975D-02 -0.122590D+00 -0.159565D-02
      7b  0.138090D+00  0.168149D+00  0.117726D+00  0.445972D-02 -0.328332D-01
      8a  0.548560D-02 -0.114798D+00  0.166825D+00 -0.113964D+00  0.108172D+00
      8b  0.120973D+00 -0.548563D-02  0.305702D+00 -0.166825D+00  0.231071D+00
      9a -0.627776D-03  0.462914D-01 -0.157438D+00  0.704956D-01  0.166825D+00
      9b -0.470681D-01  0.627774D-03 -0.257476D+00  0.157438D+00  0.327696D+00
     10a  0.158210D+00  0.260944D+00 -0.627780D-03  0.811704D-01  0.548563D-02
     10b -0.732530D-01 -0.158210D+00 -0.819471D-01  0.627778D-03  0.120588D+00
                 6             7             8             9            10 
      1a  0.192933D+00 -0.257931D-02 -0.100726D+00 -0.106561D-02 -0.212371D+00
      1b  0.251919D+00  0.977827D-01  0.257934D-02  0.212873D+00  0.106558D-02
      2a  0.523633D-01  0.251535D+00  0.457669D+00 -0.203272D+00 -0.368134D+00
      2b -0.389577D-02 -0.161812D+00 -0.251535D+00  0.124561D+00  0.203272D+00
      3a  0.167640D+00  0.131389D+00  0.279372D+00  0.149102D+00  0.322402D+00
      3b  0.000000D+00 -0.124125D+00 -0.131389D+00 -0.151310D+00 -0.149102D+00
      4a  0.124125D+00  0.000000D+00  0.110802D+01  0.654998D-02  0.912398D-01
      4b  0.131389D+00 -0.110802D+01  0.000000D+00 -0.830954D-01 -0.654996D-02
      5a  0.151310D+00 -0.654998D-02  0.830954D-01  0.000000D+00  0.412580D+00
      5b  0.149102D+00 -0.912398D-01  0.654996D-02 -0.412580D+00  0.000000D+00
      6a  0.181643D-01  0.148825D+00  0.258578D+00  0.175566D+00  0.271080D+00
      6b -0.710512D-02 -0.879014D-01 -0.148825D+00 -0.599803D-01 -0.175566D+00
      7a  0.310194D-01 -0.106927D+00 -0.228933D+00  0.148825D+00  0.324487D+00
      7b  0.159565D-02  0.102715D+00  0.106927D+00 -0.153811D+00 -0.148825D+00
      8a -0.103372D+00 -0.159565D-02 -0.421860D+00  0.710512D-02  0.853711D-01
      8b -0.108172D+00  0.420046D+00  0.159565D-02 -0.767534D-01 -0.710510D-02
      9a -0.135958D+00 -0.445972D-02 -0.123085D+00  0.181153D-02 -0.209832D+00
      9b -0.166825D+00  0.118220D+00  0.445975D-02  0.213741D+00 -0.181157D-02
     10a -0.114413D+00 -0.168149D+00 -0.306546D+00 -0.203806D+00 -0.371830D+00
     10b -0.548560D-02  0.113322D+00  0.168149D+00  0.127737D+00  0.203806D+00
                11            12            13            14            15 
      1a  0.203806D+00 -0.841745D-01  0.168149D+00 -0.138090D+00 -0.548560D-02
      1b  0.328268D+00 -0.203806D+00  0.331314D+00 -0.168149D+00  0.114798D+00
      2a -0.181157D-02 -0.280032D-01  0.445975D-02 -0.117726D+00 -0.166825D+00
      2b  0.240947D-01  0.181154D-02  0.122590D+00 -0.445972D-02  0.113964D+00
      3a -0.710510D-02  0.954666D-02  0.159565D-02  0.328332D-01 -0.108172D+00
      3b -0.181643D-01  0.710512D-02 -0.310194D-01 -0.159565D-02  0.103372D+00
      4a -0.148825D+00  0.879014D-01  0.106927D+00 -0.102715D+00  0.159565D-02
      4b -0.258578D+00  0.148825D+00  0.228933D+00 -0.106927D+00  0.421860D+00
      5a -0.175566D+00  0.599803D-01 -0.148825D+00  0.153811D+00 -0.710512D-02
      5b -0.271080D+00  0.175566D+00 -0.324487D+00  0.148825D+00 -0.853711D-01
      6a  0.000000D+00  0.874598D-03  0.654996D-02  0.215687D-01  0.149102D+00
      6b -0.874598D-03  0.000000D+00 -0.134243D-01 -0.654999D-02 -0.974687D-01
      7a -0.654996D-02  0.134243D-01  0.000000D+00  0.168694D+00  0.131389D+00
      7b -0.215687D-01  0.654999D-02 -0.168694D+00  0.000000D+00 -0.124451D+00
      8a -0.149102D+00  0.974687D-01 -0.131389D+00  0.124451D+00  0.000000D+00
      8b -0.268560D+00  0.149102D+00 -0.279699D+00  0.131389D+00 -0.110444D+01
      9a  0.203272D+00 -0.838512D-01 -0.251535D+00  0.189053D+00 -0.389576D-02
      9b  0.327424D+00 -0.203272D+00 -0.484910D+00  0.251535D+00  0.910750D-01
     10a  0.106557D-02 -0.249722D-01  0.257933D-02  0.480245D-01  0.251919D+00
     10b  0.244708D-01 -0.106561D-02 -0.450811D-01 -0.257931D-02 -0.158178D+00
                16            17            18            19            20 
      1a -0.120973D+00  0.627776D-03  0.470681D-01 -0.158210D+00  0.732530D-01
      1b  0.548563D-02 -0.462914D-01 -0.627774D-03 -0.260944D+00  0.158210D+00
      2a -0.305702D+00  0.157438D+00  0.257476D+00  0.627780D-03  0.819471D-01
      2b  0.166825D+00 -0.704956D-01 -0.157438D+00 -0.811704D-01 -0.627778D-03
      3a -0.231071D+00 -0.166825D+00 -0.327696D+00 -0.548563D-02 -0.120588D+00
      3b  0.108172D+00  0.135958D+00  0.166825D+00  0.114413D+00  0.548560D-02
      4a -0.420046D+00  0.445972D-02 -0.118220D+00  0.168149D+00 -0.113322D+00
      4b -0.159565D-02  0.123085D+00 -0.445975D-02  0.306546D+00 -0.168149D+00
      5a  0.767534D-01 -0.181153D-02 -0.213741D+00  0.203806D+00 -0.127737D+00
      5b  0.710510D-02  0.209832D+00  0.181157D-02  0.371830D+00 -0.203806D+00
      6a  0.268560D+00 -0.203272D+00 -0.327424D+00 -0.106557D-02 -0.244708D-01
      6b -0.149102D+00  0.838512D-01  0.203272D+00  0.249722D-01  0.106561D-02
      7a  0.279699D+00  0.251535D+00  0.484910D+00 -0.257933D-02  0.450811D-01
      7b -0.131389D+00 -0.189053D+00 -0.251535D+00 -0.480245D-01  0.257931D-02
      8a  0.110444D+01  0.389576D-02 -0.910750D-01 -0.251919D+00  0.158178D+00
      8b  0.000000D+00  0.957332D-01 -0.389578D-02 -0.454427D+00  0.251919D+00
      9a -0.957332D-01  0.000000D+00  0.930585D+00 -0.285935D+00  0.175032D+00
      9b  0.389578D-02 -0.930585D+00  0.000000D+00 -0.517189D+00  0.285935D+00
     10a  0.454427D+00  0.285935D+00  0.517189D+00  0.000000D+00  0.948606D-01
     10b -0.251919D+00 -0.175032D+00 -0.285935D+00 -0.948606D-01  0.000000D+00
FORTRAN STOP
