 Entering Gaussian System, Link 0=gdv
 AtFile(1): H.gbs
            H     0
            S   10   1.00
               1000.000000000000            0.000068713567
                316.227766000000            0.000169141320
                100.000000000000            0.000823394812
                 31.622776600000            0.003425569236
                 10.000000000000            0.013951996000
                  3.162277660000            0.056909313560
                  1.000000000000            0.198286399900
                  0.316227766000            0.496922426700
                  0.100000000000            0.369846276400
                  0.031622776600            0.003752720039
            ****
 Initial command:
 /users/lcj1/GHF_hess/exe-dir/l1.exe "/users/lcj1/GHF_hess/h10_2rows/mixrmY/Gau-10538.inp" -scrdir="/users/lcj1/GHF_hess/h10_2rows/mixrmY/"
 Entering Link 1 = /users/lcj1/GHF_hess/exe-dir/l1.exe PID=     10539.
  
 Copyright (c) 1988,1990,1992,1993,1995,1998,2003,2009,2012,
            Gaussian, Inc.  All Rights Reserved.
  
 This is the private, development version of
 the Gaussian(R) DV system of programs. It is based on
 the Gaussian(R) 09 system (copyright 2009, Gaussian, Inc.),
 the Gaussian(R) 03 system (copyright 2003, Gaussian, Inc.),
 the Gaussian(R) 98 system (copyright 1998, Gaussian, Inc.),
 the Gaussian(R) 94 system (copyright 1995, Gaussian, Inc.),
 the Gaussian 92(TM) system (copyright 1992, Gaussian, Inc.),
 the Gaussian 90(TM) system (copyright 1990, Gaussian, Inc.),
 the Gaussian 88(TM) system (copyright 1988, Gaussian, Inc.),
 the Gaussian 86(TM) system (copyright 1986, Carnegie Mellon
 University), and the Gaussian 82(TM) system (copyright 1983,
 Carnegie Mellon University). Gaussian is a federally registered
 trademark of Gaussian, Inc.
  
 This software contains proprietary and confidential information,
 including trade secrets, belonging to Gaussian, Inc.
  
 This software is provided under written license and may be
 used, copied, transmitted, or stored only in accord with that
 written license.
  
 The following legend is applicable only to US Government
 contracts under FAR:
  
                    RESTRICTED RIGHTS LEGEND
  
 Use, reproduction and disclosure by the US Government is
 subject to restrictions as set forth in subparagraphs (a)
 and (c) of the Commercial Computer Software - Restricted
 Rights clause in FAR 52.227-19.
  
 Gaussian, Inc.
 340 Quinnipiac St., Bldg. 40, Wallingford CT 06492
  
  
 ---------------------------------------------------------------
 Warning -- This program may not be used in any manner that
 competes with the business of Gaussian, Inc. or will provide
 assistance to any competitor of Gaussian, Inc.  The licensee
 of this program is prohibited from giving any competitor of
 Gaussian, Inc. access to this program.  By using this program,
 the user acknowledges that Gaussian, Inc. is engaged in the
 business of creating and licensing software in the field of
 computational chemistry and represents and warrants to the
 licensee that it is not a competitor of Gaussian, Inc. and that
 it will not use this program in any manner prohibited above.
 ---------------------------------------------------------------
  

 Cite this work as:
 Gaussian Development Version, Revision H.21,
 M. J. Frisch, G. W. Trucks, H. B. Schlegel, G. E. Scuseria, 
 M. A. Robb, J. R. Cheeseman, G. Scalmani, V. Barone, B. Mennucci, 
 G. A. Petersson, H. Nakatsuji, M. Caricato, X. Li, H. P. Hratchian, 
 A. F. Izmaylov, J. Bloino, G. Zheng, J. L. Sonnenberg, W. Liang, 
 M. Hada, M. Ehara, K. Toyota, R. Fukuda, J. Hasegawa, M. Ishida, 
 T. Nakajima, Y. Honda, O. Kitao, H. Nakai, T. Vreven, 
 J. A. Montgomery, Jr., J. E. Peralta, F. Ogliaro, M. Bearpark, 
 J. J. Heyd, E. Brothers, K. N. Kudin, V. N. Staroverov, T. Keith, 
 R. Kobayashi, J. Normand, K. Raghavachari, A. Rendell, J. C. Burant, 
 S. S. Iyengar, J. Tomasi, M. Cossi, N. Rega, J. M. Millam, M. Klene, 
 J. E. Knox, J. B. Cross, V. Bakken, C. Adamo, J. Jaramillo, 
 R. Gomperts, R. E. Stratmann, O. Yazyev, A. J. Austin, R. Cammi, 
 C. Pomelli, J. W. Ochterski, R. L. Martin, K. Morokuma, 
 V. G. Zakrzewski, G. A. Voth, P. Salvador, J. J. Dannenberg, 
 S. Dapprich, P. V. Parandekar, N. J. Mayhall, A. D. Daniels, 
 O. Farkas, J. B. Foresman, J. V. Ortiz, J. Cioslowski, 
 and D. J. Fox, Gaussian, Inc., Wallingford CT, 2010.
 
 ******************************************
 Gaussian DV:  EM64L-GDVRevH.21 13-May-2012
                28-Feb-2017 
 ******************************************
 %chk=h10.chk
 ----------------------------------------------------------------------
 #ghf/gen scf(tight,novaracc,noincfock,fulldiag) stable guess=mix geom=
 nocrowd use=l802 use=l902 test
 ----------------------------------------------------------------------
 ********************************************
   THE COMPLEX ERI TRANSFORMATION WITH L802  
        COMPLEX STABILITY WITH L902          
 ********************************************
 1/38=1/1;
 2/12=1,17=6,18=5,40=1/2;
 3/5=7,16=1,25=20,28=1,116=7/1,2,3,20;
 4/13=-1/1;
 5/5=100001,16=1,32=2,38=1/2;
 8/6=1,10=90,11=11/1,2;
 9/8=4,13=1/1,2;
 6/7=2,8=2,9=2,10=2,28=1/1;
 99/5=1,9=1/99;
 ----------------------------------------------------------------------
 hf stability analysis of h10 triangular lattice, y= 0.2411143230343760
 2 alpha= 5.7500000000000000
 ----------------------------------------------------------------------
 Symbolic Z-Matrix:
 Charge =  0 Multiplicity = 1
 H
 H                    1     2.40662 
 H                    1     2.40662  2     168.5 
 H                    2     2.40662  1     11.5     3     0.       0
 H                    3     2.40662  1     180.     2     0.       0
 H                    4     2.40662  2     180.     1     0.       0
 H                    5     2.40662  3     180.     2     0.       0
 H                    6     2.40662  4     180.     1     0.       0
 H                    7     2.40662  5     180.     2     0.       0
 H                    8     2.40662  6     180.     1     0.       0
 
                          Input orientation:                          
 ---------------------------------------------------------------------
 Center     Atomic      Atomic             Coordinates (Angstroms)
 Number     Number       Type             X           Y           Z
 ---------------------------------------------------------------------
      1          1           0        0.000000    0.000000    0.000000
      2          1           0        0.000000    0.000000    2.406617
      3          1           0        0.479802    0.000000   -2.358304
      4          1           0        0.479802    0.000000    0.048314
      5          1           0        0.959605    0.000000   -4.716607
      6          1           0        0.959605    0.000000   -2.309990
      7          1           0        1.439407    0.000000   -7.074911
      8          1           0        1.439407    0.000000   -4.668294
      9          1           0        1.919209    0.000000   -9.433215
     10          1           0        1.919209    0.000000   -7.026598
 ---------------------------------------------------------------------
                    Distance matrix (angstroms):
                    1          2          3          4          5
     1  H    0.000000
     2  H    2.406617   0.000000
     3  H    2.406617   4.789017   0.000000
     4  H    0.482229   2.406617   2.406617   0.000000
     5  H    4.813234   7.187571   2.406617   4.789017   0.000000
     6  H    2.501379   4.813234   0.482229   2.406617   2.406617
     7  H    7.219852   9.590165   4.813234   7.187571   2.406617
     8  H    4.885167   7.219852   2.501379   4.813234   0.482229
     9  H    9.626469  11.994373   7.219852   9.590165   4.813234
    10  H    7.283985   9.626469   4.885167   7.219852   2.501379
                    6          7          8          9         10
     6  H    0.000000
     7  H    4.789017   0.000000
     8  H    2.406617   2.406617   0.000000
     9  H    7.187571   2.406617   4.789017   0.000000
    10  H    4.813234   0.482229   2.406617   2.406617   0.000000
 Stoichiometry    H10
 Framework group  C2H[SGH(H10)]
 Deg. of freedom     9
 Full point group                 C2H     NOp   4
 Largest Abelian subgroup         C2H     NOp   4
 Largest concise Abelian subgroup C2      NOp   2
                         Standard orientation:                         
 ---------------------------------------------------------------------
 Center     Atomic      Atomic             Coordinates (Angstroms)
 Number     Number       Type             X           Y           Z
 ---------------------------------------------------------------------
      1          1           0        0.959605   -3.513299    0.000000
      2          1           0        0.959605   -5.919916    0.000000
      3          1           0        0.479802   -1.154995    0.000000
      4          1           0        0.479802   -3.561612    0.000000
      5          1           0        0.000000    1.203309    0.000000
      6          1           0        0.000000   -1.203309    0.000000
      7          1           0       -0.479802    3.561612    0.000000
      8          1           0       -0.479802    1.154995    0.000000
      9          1           0       -0.959605    5.919916    0.000000
     10          1           0       -0.959605    3.513299    0.000000
 ---------------------------------------------------------------------
 Rotational constants (GHZ):    976.3485212      3.8632296      3.8480038
 General basis read from cards:  (5D, 7F)
 There are     5 symmetry adapted cartesian basis functions of AG  symmetry.
 There are     0 symmetry adapted cartesian basis functions of BG  symmetry.
 There are     0 symmetry adapted cartesian basis functions of AU  symmetry.
 There are     5 symmetry adapted cartesian basis functions of BU  symmetry.
 There are     5 symmetry adapted basis functions of AG  symmetry.
 There are     0 symmetry adapted basis functions of BG  symmetry.
 There are     0 symmetry adapted basis functions of AU  symmetry.
 There are     5 symmetry adapted basis functions of BU  symmetry.
    10 basis functions,   100 primitive gaussians,    10 cartesian basis functions
     5 alpha electrons        5 beta electrons
       nuclear repulsion energy        10.0519988621 Hartrees.
 NAtoms=   10 NActive=   10 NUniq=    5 SFac= 4.00D+00 NAtFMM=   60 NAOKFM=F Big=F
 Integral buffers will be    131072 words long.
 Regular integral format.
 Two-electron integral symmetry is turned off.
 One-electron integrals computed using PRISM.
 NBasis=    10 RedAO= T EigKep=  1.08D-01  NBF=     5     0     0     5
 NBsUse=    10 1.00D-06 EigRej= -1.00D+00 NBFU=     5     0     0     5
 IOp(28)                       1
                        1                       0
                        2                       1
                        3                       1
                        4                      20
                        5                       0
                        6                       0
                        7                      10
                        8                       1
                        9                       4
                       10                       0
                       11              1073741824
                       12                      20
                       13                       2
                       14                  131070
                       15                       1
                       16                       1
                       17                  131073
                       18                       0
                       19                       0
                       20                       0
                       21                       2
                       22                  131070
                       23                       0
                       24                       0
                       25                       0
                       26                       0
                       27                   65535
                       28                       2
                       29                  131072
                       30                       0
 IHMeth                       1
 ib3: ISMode =                        0                       4
 Enter DskPsm, NBasis=  10 NBas6D=  10 NShell=  10 IDoSP=4.
 Out2e will use a cutoff of  1.00D-10
 FoFCou: FMM=F IPFlag=           0 FMFlag=           0 FMFlg1=           0
         NFxFlg=           0 DoJE=F BraDBF=F KetDBF=F FulRan=T
         wScrn=  0.000000 ICntrl=     600 IOpCl=  9 I1Cent=           0 NGrid=           0
         NMat0=    0 NMatS0=      0 NMatT0=    0 NMatD0=    0 NMtDS0=    0 NMtDT0=    0
 Symmetry not used in FoFCou.
 Entering PrmDigJobTyp =                      20
 LenSav and NKeep                       0                       0
 Entered Stor2E with KNTT1,2                       2                  131070
 Leave Stor2X
 Entering PrmDigJobTyp =                      20
 LenSav and NKeep                       0                       0
 Entered Stor2E with KNTT1,2                       2                  131056
 Leave Stor2X
 Entering PrmDigJobTyp =                      20
 LenSav and NKeep                       0                       0
 Entered Stor2E with KNTT1,2                       2                  131042
 Leave Stor2X
 Entering PrmDigJobTyp =                      20
 LenSav and NKeep                       0                       0
 Entered Stor2E with KNTT1,2                       2                  131028
 Leave Stor2X
 Entering PrmDigJobTyp =                      20
 LenSav and NKeep                       0                       0
 Entered Stor2E with KNTT1,2                       2                  131014
 Leave Stor2X
 Entering PrmDigJobTyp =                      20
 LenSav and NKeep                       0                       0
 Entered Stor2E with KNTT1,2                       2                  131000
 Leave Stor2X
 Entering PrmDigJobTyp =                      20
 LenSav and NKeep                       0                       0
 Entered Stor2E with KNTT1,2                       2                  130986
 Leave Stor2X
 Entering PrmDigJobTyp =                      20
 LenSav and NKeep                       0                       0
 Entered Stor2E with KNTT1,2                       2                  130972
 Leave Stor2X
 Entering PrmDigJobTyp =                      20
 LenSav and NKeep                       0                       0
 Entered Stor2E with KNTT1,2                       2                  130960
 Leave Stor2X
 Entering PrmDigJobTyp =                      20
 LenSav and NKeep                       0                       0
 Entered Stor2E with KNTT1,2                       2                  130942
 Leave Stor2X
 Entering PrmDigJobTyp =                      20
 LenSav and NKeep                       0                       0
 Entered Stor2E with KNTT1,2                       2                  130924
 Leave Stor2X
 Entering PrmDigJobTyp =                      20
 LenSav and NKeep                       0                       0
 Entered Stor2E with KNTT1,2                       2                  130906
 Leave Stor2X
 Entering PrmDigJobTyp =                      20
 LenSav and NKeep                       0                       0
 Entered Stor2E with KNTT1,2                       2                  130888
 Leave Stor2X
 Entering PrmDigJobTyp =                      20
 LenSav and NKeep                       0                       0
 Entered Stor2E with KNTT1,2                       2                  130870
 Leave Stor2X
 Entering PrmDigJobTyp =                      20
 LenSav and NKeep                       0                       0
 Entered Stor2E with KNTT1,2                       2                  130852
 Leave Stor2X
 Entering PrmDigJobTyp =                      20
 LenSav and NKeep                       0                       0
 Entered Stor2E with KNTT1,2                       2                  130834
 Leave Stor2X
 Entering PrmDigJobTyp =                      20
 LenSav and NKeep                       0                       0
 Entered Stor2E with KNTT1,2                       2                  130816
 Leave Stor2X
 Entering PrmDigJobTyp =                      20
 LenSav and NKeep                       0                       0
 Entered Stor2E with KNTT1,2                       2                  130798
 Leave Stor2X
 Entering PrmDigJobTyp =                      20
 LenSav and NKeep                       0                       0
 Entered Stor2E with KNTT1,2                       2                  130780
 Leave Stor2X
 Entering PrmDigJobTyp =                      20
 LenSav and NKeep                       0                       0
 Entered Stor2E with KNTT1,2                       2                  130762
 Leave Stor2X
 Entering PrmDigJobTyp =                      20
 LenSav and NKeep                       0                       0
 Entered Stor2E with KNTT1,2                       2                  130744
 Leave Stor2X
 Entering PrmDigJobTyp =                      20
 LenSav and NKeep                       0                       0
 Entered Stor2E with KNTT1,2                       2                  130726
 Leave Stor2X
 Entering PrmDigJobTyp =                      20
 LenSav and NKeep                       0                       0
 Entered Stor2E with KNTT1,2                       2                  130708
 Leave Stor2X
 Entering PrmDigJobTyp =                      20
 LenSav and NKeep                       0                       0
 Entered Stor2E with KNTT1,2                       2                  130700
 Leave Stor2X
 Entering PrmDigJobTyp =                      20
 LenSav and NKeep                       0                       0
 Entered Stor2E with KNTT1,2                      12                  130678
 Leave Stor2X
 Entering PrmDigJobTyp =                      20
 LenSav and NKeep                       0                       0
 Entered Stor2E with KNTT1,2                      32                  130666
 Leave Stor2X
 Entering PrmDigJobTyp =                      20
 LenSav and NKeep                       0                       0
 Entered Stor2E with KNTT1,2                      52                  130654
 Leave Stor2X
 Entering PrmDigJobTyp =                      20
 LenSav and NKeep                       0                       0
 Entered Stor2E with KNTT1,2                      76                  130646
 Leave Stor2X
 Entering PrmDigJobTyp =                      20
 LenSav and NKeep                       0                       0
 Entered Stor2E with KNTT1,2                      98                  130636
 Leave Stor2X
 Entering PrmDigJobTyp =                      20
 LenSav and NKeep                       0                       0
 Entered Stor2E with KNTT1,2                     114                  130630
 Leave Stor2X
 Entering PrmDigJobTyp =                      20
 LenSav and NKeep                       0                       0
 Entered Stor2E with KNTT1,2                     114                  130604
 Leave Stor2X
 Entering PrmDigJobTyp =                      20
 LenSav and NKeep                       0                       0
 Entered Stor2E with KNTT1,2                     114                  130578
 Leave Stor2X
 Entering PrmDigJobTyp =                      20
 LenSav and NKeep                       0                       0
 Entered Stor2E with KNTT1,2                     114                  130552
 Leave Stor2X
 Entering PrmDigJobTyp =                      20
 LenSav and NKeep                       0                       0
 Entered Stor2E with KNTT1,2                     114                  130550
 Leave Stor2X
 Entering PrmDigJobTyp =                      20
 LenSav and NKeep                       0                       0
 Entered Stor2E with KNTT1,2                     136                  130528
 Leave Stor2X
 Entering PrmDigJobTyp =                      20
 LenSav and NKeep                       0                       0
 Entered Stor2E with KNTT1,2                     168                  130516
 Leave Stor2X
 Entering PrmDigJobTyp =                      20
 LenSav and NKeep                       0                       0
 Entered Stor2E with KNTT1,2                     174                  130506
 Leave Stor2X
 Entering PrmDigJobTyp =                      20
 LenSav and NKeep                       0                       0
 Entered Stor2E with KNTT1,2                     186                  130498
 Leave Stor2X
 Entering PrmDigJobTyp =                      20
 LenSav and NKeep                       0                       0
 Entered Stor2E with KNTT1,2                     186                  130484
 Leave Stor2X
 Entering PrmDigJobTyp =                      20
 LenSav and NKeep                       0                       0
 Entered Stor2E with KNTT1,2                     186                  130470
 Leave Stor2X
 Entering PrmDigJobTyp =                      20
 LenSav and NKeep                       0                       0
 Entered Stor2E with KNTT1,2                     186                  130456
 Leave Stor2X
 Entering PrmDigJobTyp =                      20
 LenSav and NKeep                       0                       0
 Entered Stor2E with KNTT1,2                     186                  130442
 Leave Stor2X
 Entering PrmDigJobTyp =                      20
 LenSav and NKeep                       0                       0
 Entered Stor2E with KNTT1,2                     186                  130428
 Leave Stor2X
 Entering PrmDigJobTyp =                      20
 LenSav and NKeep                       0                       0
 Entered Stor2E with KNTT1,2                     186                  130418
 Leave Stor2X
 Entering PrmDigJobTyp =                      20
 LenSav and NKeep                       0                       0
 Entered Stor2E with KNTT1,2                     198                  130408
 Leave Stor2X
 Entering PrmDigJobTyp =                      20
 LenSav and NKeep                       0                       0
 Entered Stor2E with KNTT1,2                     208                  130396
 Leave Stor2X
 Entering PrmDigJobTyp =                      20
 LenSav and NKeep                       0                       0
 Entered Stor2E with KNTT1,2                     226                  130392
 Leave Stor2X
 Entering PrmDigJobTyp =                      20
 LenSav and NKeep                       0                       0
 Entered Stor2E with KNTT1,2                     240                  130384
 Leave Stor2X
 Entering PrmDigJobTyp =                      20
 LenSav and NKeep                       0                       0
 Entered Stor2E with KNTT1,2                     246                  130374
 Leave Stor2X
 Entering PrmDigJobTyp =                      20
 LenSav and NKeep                       0                       0
 Entered Stor2E with KNTT1,2                     264                  130362
 Leave Stor2X
 Entering PrmDigJobTyp =                      20
 LenSav and NKeep                       0                       0
 Entered Stor2E with KNTT1,2                     266                  130362
 Leave Stor2X
 Entering PrmDigJobTyp =                      20
 LenSav and NKeep                       0                       0
 Entered Stor2E with KNTT1,2                     274                  130356
 Leave Stor2X
 Entering PrmDigJobTyp =                      20
 LenSav and NKeep                       0                       0
 Entered Stor2E with KNTT1,2                     278                  130354
 Leave Stor2X
 Entering PrmDigJobTyp =                      20
 LenSav and NKeep                       0                       0
 Entered Stor2E with KNTT1,2                     278                  130326
 Leave Stor2X
 Entering PrmDigJobTyp =                      20
 LenSav and NKeep                       0                       0
 Entered Stor2E with KNTT1,2                     278                  130298
 Leave Stor2X
 Entering PrmDigJobTyp =                      20
 LenSav and NKeep                       0                       0
 Entered Stor2E with KNTT1,2                     278                  130270
 Leave Stor2X
 Entering PrmDigJobTyp =                      20
 LenSav and NKeep                       0                       0
 Entered Stor2E with KNTT1,2                     278                  130242
 Leave Stor2X
 Entering PrmDigJobTyp =                      20
 LenSav and NKeep                       0                       0
 Entered Stor2E with KNTT1,2                     278                  130214
 Leave Stor2X
 Entering PrmDigJobTyp =                      20
 LenSav and NKeep                       0                       0
 Entered Stor2E with KNTT1,2                     278                  130194
 Leave Stor2X
 Entering PrmDigJobTyp =                      20
 LenSav and NKeep                       0                       0
 Entered Stor2E with KNTT1,2                     304                  130174
 Leave Stor2X
 Entering PrmDigJobTyp =                      20
 LenSav and NKeep                       0                       0
 Entered Stor2E with KNTT1,2                     334                  130158
 Leave Stor2X
 Entering PrmDigJobTyp =                      20
 LenSav and NKeep                       0                       0
 Entered Stor2E with KNTT1,2                     362                  130140
 Leave Stor2X
 Entering PrmDigJobTyp =                      20
 LenSav and NKeep                       0                       0
 Entered Stor2E with KNTT1,2                     388                  130120
 Leave Stor2X
 Entering PrmDigJobTyp =                      20
 LenSav and NKeep                       0                       0
 Entered Stor2E with KNTT1,2                     402                  130110
 Leave Stor2X
 Entering PrmDigJobTyp =                      20
 LenSav and NKeep                       0                       0
 Entered Stor2E with KNTT1,2                     442                  130086
 Leave Stor2X
 Entering PrmDigJobTyp =                      20
 LenSav and NKeep                       0                       0
 Entered Stor2E with KNTT1,2                     460                  130072
 Leave Stor2X
 Entering PrmDigJobTyp =                      20
 LenSav and NKeep                       0                       0
 Entered Stor2E with KNTT1,2                     478                  130058
 Leave Stor2X
 Entering PrmDigJobTyp =                      20
 LenSav and NKeep                       0                       0
 Entered Stor2E with KNTT1,2                     522                  130034
 Leave Stor2X
 Entering PrmDigJobTyp =                      20
 LenSav and NKeep                       0                       0
 Entered Stor2E with KNTT1,2                     522                  130030
 Leave Stor2X
 Entering PrmDigJobTyp =                      20
 LenSav and NKeep                       0                       0
 Entered Stor2E with KNTT1,2                     522                  129996
 Leave Stor2X
 Entering PrmDigJobTyp =                      20
 LenSav and NKeep                       0                       0
 Entered Stor2E with KNTT1,2                     522                  129962
 Leave Stor2X
 Entering PrmDigJobTyp =                      20
 LenSav and NKeep                       0                       0
 Entered Stor2E with KNTT1,2                     522                  129928
 Leave Stor2X
 Entering PrmDigJobTyp =                      20
 LenSav and NKeep                       0                       0
 Entered Stor2E with KNTT1,2                     522                  129894
 Leave Stor2X
 Entering PrmDigJobTyp =                      20
 LenSav and NKeep                       0                       0
 Entered Stor2E with KNTT1,2                     522                  129890
 Leave Stor2X
 Entering PrmDigJobTyp =                      20
 LenSav and NKeep                       0                       0
 Entered Stor2E with KNTT1,2                     558                  129870
 Leave Stor2X
 Entering PrmDigJobTyp =                      20
 LenSav and NKeep                       0                       0
 Entered Stor2E with KNTT1,2                     588                  129844
 Leave Stor2X
 Entering PrmDigJobTyp =                      20
 LenSav and NKeep                       0                       0
 Entered Stor2E with KNTT1,2                     622                  129822
 Leave Stor2X
 Entering PrmDigJobTyp =                      20
 LenSav and NKeep                       0                       0
 Entered Stor2E with KNTT1,2                     632                  129818
 Leave Stor2X
 Entering PrmDigJobTyp =                      20
 LenSav and NKeep                       0                       0
 Entered Stor2E with KNTT1,2                     664                  129794
 Leave Stor2X
 Entering PrmDigJobTyp =                      20
 LenSav and NKeep                       0                       0
 Entered Stor2E with KNTT1,2                     688                  129780
 Leave Stor2X
 Entering PrmDigJobTyp =                      20
 LenSav and NKeep                       0                       0
 Entered Stor2E with KNTT1,2                     700                  129774
 Leave Stor2X
 Entering PrmDigJobTyp =                      20
 LenSav and NKeep                       0                       0
 Entered Stor2E with KNTT1,2                     754                  129746
 Leave Stor2X
 Entering PrmDigJobTyp =                      20
 LenSav and NKeep                       0                       0
 Entered Stor2E with KNTT1,2                     772                  129734
 Leave Stor2X
 Entering PrmDigJobTyp =                      20
 LenSav and NKeep                       0                       0
 Entered Stor2E with KNTT1,2                     806                  129712
 Leave Stor2X
 Entering PrmDigJobTyp =                      20
 LenSav and NKeep                       0                       0
 Entered Stor2E with KNTT1,2                     806                  129692
 Leave Stor2X
 Entering PrmDigJobTyp =                      20
 LenSav and NKeep                       0                       0
 Entered Stor2E with KNTT1,2                     806                  129672
 Leave Stor2X
 Entering PrmDigJobTyp =                      20
 LenSav and NKeep                       0                       0
 Entered Stor2E with KNTT1,2                     806                  129652
 Leave Stor2X
 Entering PrmDigJobTyp =                      20
 LenSav and NKeep                       0                       0
 Entered Stor2E with KNTT1,2                     826                  129640
 Leave Stor2X
 Entering PrmDigJobTyp =                      20
 LenSav and NKeep                       0                       0
 Entered Stor2E with KNTT1,2                     846                  129628
 Leave Stor2X
 Entering PrmDigJobTyp =                      20
 LenSav and NKeep                       0                       0
 Entered Stor2E with KNTT1,2                     852                  129620
 Leave Stor2X
 Entering PrmDigJobTyp =                      20
 LenSav and NKeep                       0                       0
 Entered Stor2E with KNTT1,2                     868                  129612
 Leave Stor2X
 Entering PrmDigJobTyp =                      20
 LenSav and NKeep                       0                       0
 Entered Stor2E with KNTT1,2                     880                  129602
 Leave Stor2X
 Entering PrmDigJobTyp =                      20
 LenSav and NKeep                       0                       0
 Entered Stor2E with KNTT1,2                     880                  129600
 Leave Stor2X
 Entering PrmDigJobTyp =                      20
 LenSav and NKeep                       0                       0
 Entered Stor2E with KNTT1,2                     904                  129576
 Leave Stor2X
 Entering PrmDigJobTyp =                      20
 LenSav and NKeep                       0                       0
 Entered Stor2E with KNTT1,2                     934                  129564
 Leave Stor2X
 Entering PrmDigJobTyp =                      20
 LenSav and NKeep                       0                       0
 Entered Stor2E with KNTT1,2                     940                  129558
 Leave Stor2X
 Entering PrmDigJobTyp =                      20
 LenSav and NKeep                       0                       0
 Entered Stor2E with KNTT1,2                     940                  129506
 Leave Stor2X
 Entering PrmDigJobTyp =                      20
 LenSav and NKeep                       0                       0
 Entered Stor2E with KNTT1,2                     940                  129478
 Leave Stor2X
 Entering PrmDigJobTyp =                      20
 LenSav and NKeep                       0                       0
 Entered Stor2E with KNTT1,2                     996                  129446
 Leave Stor2X
 Entering PrmDigJobTyp =                      20
 LenSav and NKeep                       0                       0
 Entered Stor2E with KNTT1,2                    1008                  129442
 Leave Stor2X
 Entering PrmDigJobTyp =                      20
 LenSav and NKeep                       0                       0
 Entered Stor2E with KNTT1,2                    1018                  129438
 Leave Stor2X
 Entering PrmDigJobTyp =                      20
 LenSav and NKeep                       0                       0
 Entered Stor2E with KNTT1,2                    1024                  129430
 Leave Stor2X
 Entering PrmDigJobTyp =                      20
 LenSav and NKeep                       0                       0
 Entered Stor2E with KNTT1,2                    1028                  129430
 Leave Stor2X
 Entering PrmDigJobTyp =                      20
 LenSav and NKeep                       0                       0
 Entered Stor2E with KNTT1,2                    1052                  129422
 Leave Stor2X
 Entering PrmDigJobTyp =                      20
 LenSav and NKeep                       0                       0
 Entered Stor2E with KNTT1,2                    1064                  129418
 Leave Stor2X
 Entering PrmDigJobTyp =                      20
 LenSav and NKeep                       0                       0
 Entered Stor2E with KNTT1,2                    1074                  129412
 Leave Stor2X
 Entering PrmDigJobTyp =                      20
 LenSav and NKeep                       0                       0
 Entered Stor2E with KNTT1,2                    1086                  129408
 Leave Stor2X
 Entering PrmDigJobTyp =                      20
 LenSav and NKeep                       0                       0
 Entered Stor2E with KNTT1,2                    1096                  129402
 Leave Stor2X
 Entering PrmDigJobTyp =                      20
 LenSav and NKeep                       0                       0
 Entered Stor2E with KNTT1,2                    1096                  129402
 Leave Stor2X
 Entering PrmDigJobTyp =                      20
 LenSav and NKeep                       0                       0
 Entered Stor2E with KNTT1,2                    1096                  129402
 Leave Stor2X
 Entering PrmDigJobTyp =                      20
 LenSav and NKeep                       0                       0
 Entered Stor2E with KNTT1,2                    1096                  129402
 Leave Stor2X
 Entering PrmDigJobTyp =                      20
 LenSav and NKeep                       0                       0
 Entered Stor2E with KNTT1,2                    1096                  129402
 Leave Stor2X
 Entering PrmDigJobTyp =                      20
 LenSav and NKeep                       0                       0
 Entered Stor2E with KNTT1,2                    1116                  129398
 Leave Stor2X
 Entering PrmDigJobTyp =                      20
 LenSav and NKeep                       0                       0
 Entered Stor2E with KNTT1,2                    1116                  129378
 Leave Stor2X
 Entering PrmDigJobTyp =                      20
 LenSav and NKeep                       0                       0
 Entered Stor2E with KNTT1,2                    1128                  129374
 Leave Stor2X
 Entering PrmDigJobTyp =                      20
 LenSav and NKeep                       0                       0
 Entered Stor2E with KNTT1,2                    1134                  129370
 Leave Stor2X
 Entering PrmDigJobTyp =                      20
 LenSav and NKeep                       0                       0
 Entered Stor2E with KNTT1,2                    1134                  129370
 Leave Stor2X
 Entering PrmDigJobTyp =                      20
 LenSav and NKeep                       0                       0
 Entered Stor2E with KNTT1,2                    1142                  129370
 Leave Stor2X
 Entering PrmDigJobTyp =                      20
 LenSav and NKeep                       0                       0
 Entered Stor2E with KNTT1,2                    1142                  129370
 Leave Stor2X
 Entering PrmDigJobTyp =                      20
 LenSav and NKeep                       0                       0
 Entered Stor2E with KNTT1,2                    1148                  129370
 Leave Stor2X
 Entering PrmDigJobTyp =                      20
 LenSav and NKeep                       0                       0
 Entered Stor2E with KNTT1,2                    1148                  129350
 Leave Stor2X
 Entering PrmDigJobTyp =                      20
 LenSav and NKeep                       0                       0
 Entered Stor2E with KNTT1,2                    1166                  129342
 Leave Stor2X
 Entering PrmDigJobTyp =                      20
 LenSav and NKeep                       0                       0
 Entered Stor2E with KNTT1,2                    1174                  129342
 Leave Stor2X
 Entering PrmDigJobTyp =                      20
 LenSav and NKeep                       0                       0
 Entered Stor2E with KNTT1,2                    1178                  129338
 Leave Stor2X
 Entering PrmDigJobTyp =                      20
 LenSav and NKeep                       0                       0
 Entered Stor2E with KNTT1,2                    1186                  129330
 Leave Stor2X
 Entering PrmDigJobTyp =                      20
 LenSav and NKeep                       0                       0
 Entered Stor2E with KNTT1,2                    1196                  129326
 Leave Stor2X
 Entering PrmDigJobTyp =                      20
 LenSav and NKeep                       0                       0
 Entered Stor2E with KNTT1,2                    1198                  129322
 Leave Stor2X
 Entering PrmDigJobTyp =                      20
 LenSav and NKeep                       0                       0
 Entered Stor2E with KNTT1,2                    1198                  129322
 Leave Stor2X
 In PrSumR
 Called IWRITE
         1473 integrals produced for a total of         1473.
 ExpMin= 3.16D-02 ExpMax= 1.00D+03 ExpMxC= 1.00D+01 IAcc=3 IRadAn=         5 AccDes= 0.00D+00
 Harris functional with IExCor=  205 and IRadAn=       5 diagonalized for initial guess.
 HarFok:  IExCor=  205 AccDes= 0.00D+00 IRadAn=         5 IDoV= 1 UseB2=F ITyADJ=14
 ICtDFT=  3500011 ScaDFX=  1.000000  1.000000  1.000000  1.000000
 FoFCou: FMM=F IPFlag=           0 FMFlag=      100000 FMFlg1=           0
         NFxFlg=           0 DoJE=T BraDBF=F KetDBF=T FulRan=T
         wScrn=  0.000000 ICntrl=     500 IOpCl=  0 I1Cent=   200000004 NGrid=           0
         NMat0=    1 NMatS0=      1 NMatT0=    0 NMatD0=    1 NMtDS0=    0 NMtDT0=    0
 Petite list used in FoFCou.
 Mixing orbitals, IMix= 3 IMixAn=  0 NRI=2 NE=   10 Coef=  7.07106781D-01  7.07106781D-01
 Also mixing orbitals    10 and    12 Coef=  3.82683432D-01  9.23879533D-01
 Initial guess <Sx>= 0.0000 <Sy>=-0.2500 <Sz>= 0.4268 <S**2>= 1.0000 S= 0.6180
 Two-electron integrals will be kept in memory, NGetB=      152788.
 Requested convergence on RMS density matrix=1.00D-08 within 128 cycles.
 Requested convergence on MAX density matrix=1.00D-06.
 Requested convergence on             energy=1.00D-06.
 No special actions if energy rises.
 ************************************************
 *READING THE YAODEN.PDM FILE TO GET NEW DENSITY*
 ************************************************
 EnCoef did   100 forward-backward iterations
 EnCoef did   100 forward-backward iterations
 EnCoef did   100 forward-backward iterations
 EnCoef did   100 forward-backward iterations
 EnCoef did   100 forward-backward iterations
 EnCoef did   100 forward-backward iterations
 Rare condition: small coef for last iteration:  0.543D-15
 EnCoef did   100 forward-backward iterations
 Rare condition: small coef for last iteration:  0.000D+00
 SCF Done:  E(GHF) =  -4.73369789275     A.U. after   15 cycles
            NFock= 15  Conv=0.16D-08     -V/T= 2.0096
 <Sx>= 0.1512 <Sy>= 0.1790 <Sz>= 0.4778 <S**2>= 1.2832 S= 0.7382
 <L.S>= 0.000000000000E+00
 Range of M.O.s used for correlation:     1    10
 NBasis=    10 NAE=    10 NBE=     0 NFC=     0 NFV=     0
 NROrb=     20 NOA=    10 NOB=     0 NVA=    10 NVB=     0
 jaja DoHack is true or false? T
 jaja in hckghf.F, NBasis=                      10
 jaja in hckGHF/FixOG, LC =                      800
 jaja in hckGHF/FixOG, IRwC=                      548
 bfr conversion (real):
                 1             2             3             4             5 
      1a  0.178676D+00 -0.437050D-01  0.294657D+00  0.555190D-01  0.307707D+00
      1b  0.959470D-02  0.165074D+00  0.340406D-01 -0.286672D+00  0.578423D-01
      2a  0.621013D-02 -0.682641D-02  0.112701D-01  0.121431D-01  0.137350D-01
      2b -0.597631D-02 -0.446549D-02 -0.111266D-01  0.804065D-02 -0.134304D-01
      3a  0.269132D+00 -0.476043D-01  0.166102D+00 -0.222005D-02 -0.206839D+00
      3b  0.340152D-01  0.273152D+00  0.538989D-01 -0.183711D+00 -0.206983D-03
      4a  0.176931D+00 -0.434180D-01  0.293878D+00  0.556355D-01  0.309938D+00
      4b  0.935066D-02  0.163272D+00  0.336782D-01 -0.285738D+00  0.579495D-01
      5a  0.266717D+00 -0.336516D-01 -0.177635D+00 -0.556880D-01 -0.194335D+00
      5b  0.459822D-01  0.274173D+00  0.248949D-02  0.179486D+00 -0.596708D-01
      6a  0.268405D+00 -0.476820D-01  0.169827D+00 -0.131690D-02 -0.202678D+00
      6b  0.337178D-01  0.272242D+00  0.541206D-01 -0.187370D+00  0.742495D-03
      7a  0.172347D+00 -0.595564D-02 -0.291178D+00 -0.295957D-01  0.313171D+00
      7b  0.426701D-01  0.168429D+00 -0.532581D-01  0.289339D+00  0.345381D-01
      8a  0.267495D+00 -0.339918D-01 -0.174000D+00 -0.554920D-01 -0.198586D+00
      8b  0.459090D-01  0.275026D+00  0.336149D-02  0.175729D+00 -0.599699D-01
      9a  0.434930D-02  0.785494D-02 -0.780973D-02  0.139908D-01  0.954849D-02
      9b  0.754902D-02 -0.244432D-02 -0.139617D-01 -0.442598D-02  0.168863D-01
     10a  0.174087D+00 -0.620588D-02 -0.292023D+00 -0.299790D-01  0.311001D+00
     10b  0.429451D-01  0.170237D+00 -0.531369D-01  0.290205D+00  0.339918D-01
                 6             7             8             9            10 
      1a -0.382424D-01  0.200282D+00  0.137635D-01 -0.577872D-01 -0.580566D-01
      1b  0.317098D+00  0.501682D-01 -0.215021D+00  0.226406D-01  0.224390D-01
      2a -0.139634D-01  0.104115D-01  0.978906D-02  0.657305D+00  0.657349D+00
      2b -0.911220D-02 -0.987587D-02  0.626432D-02 -0.255787D+00 -0.255798D+00
      3a  0.589169D-01 -0.343096D+00 -0.432122D-01  0.731707D-02  0.931973D-02
      3b -0.190771D+00 -0.595483D-01  0.340383D+00 -0.399001D-02 -0.248425D-02
      4a -0.387892D-01  0.203490D+00  0.141454D-01 -0.578722D-01 -0.581419D-01
      4b  0.319222D+00  0.507549D-01 -0.218238D+00  0.226738D-01  0.224720D-01
      5a -0.184606D-02  0.346464D+00  0.578547D-01  0.608582D-02 -0.843703D-02
      5b -0.194873D+00  0.433553D-01 -0.339397D+00  0.591699D-02 -0.500084D-02
      6a  0.585954D-01 -0.344244D+00 -0.435628D-01  0.762657D-02  0.960851D-02
      6b -0.186548D+00 -0.594902D-01  0.341363D+00 -0.409859D-02 -0.260848D-02
      7a -0.558513D-01 -0.209007D+00 -0.501418D-01 -0.487217D-01  0.490351D-01
      7b  0.316872D+00 -0.106652D-01  0.213287D+00 -0.368092D-01  0.366808D-01
      8a -0.923232D-03  0.345378D+00  0.579052D-01  0.582145D-02 -0.819728D-02
      8b -0.199014D+00  0.429644D-01 -0.338362D+00  0.573230D-02 -0.480653D-02
      9a  0.160597D-01 -0.732976D-02  0.112250D-01  0.553898D+00 -0.553866D+00
      9b -0.497695D-02 -0.125175D-01 -0.337401D-02  0.416404D+00 -0.416373D+00
     10a -0.557567D-01 -0.205770D+00 -0.495692D-01 -0.486500D-01  0.489632D-01
     10b  0.314685D+00 -0.102924D-01  0.210096D+00 -0.367552D-01  0.366269D-01
                11            12            13            14            15 
      1a -0.152712D-01 -0.151696D-01 -0.710206D+00 -0.110497D+00 -0.117624D+01
      1b -0.390486D-01 -0.391770D-01 -0.101533D+00  0.706658D+00 -0.173395D+00
      2a  0.255869D+00  0.255820D+00 -0.130751D-02  0.937102D-04 -0.104479D-02
      2b  0.657483D+00  0.657437D+00 -0.568643D-03  0.187492D-02 -0.438315D-03
      3a  0.126427D-02  0.501959D-03 -0.112916D+01 -0.170946D+00 -0.719057D+00
      3b  0.176269D-02  0.277624D-02 -0.167101D+00  0.113007D+01 -0.114881D+00
      4a -0.150375D-01 -0.149912D-01  0.718800D+00  0.111770D+00  0.118335D+01
      4b -0.385558D-01 -0.386109D-01  0.102842D+00 -0.715317D+00  0.174537D+00
      5a -0.412923D-02  0.383081D-02 -0.113123D+01 -0.167724D+00  0.707252D+00
      5b  0.491003D-02 -0.567839D-02 -0.171061D+00  0.113314D+01  0.984263D-01
      6a  0.268829D-02  0.220164D-02  0.113171D+01  0.171289D+00  0.705271D+00
      6b  0.595982D-02  0.660620D-02  0.167526D+00 -0.113265D+01  0.112895D+00
      7a  0.244535D-01 -0.244283D-01 -0.717537D+00 -0.102475D+00  0.118268D+01
      7b -0.324748D-01  0.325480D-01 -0.112067D+00  0.716590D+00  0.179434D+00
      8a -0.167168D-02  0.120354D-02  0.112867D+01  0.167294D+00 -0.721018D+00
      8b  0.131060D-02 -0.251392D-02  0.170722D+00 -0.113057D+01 -0.100562D+00
      9a -0.416461D+00  0.416484D+00  0.140759D-02  0.639747D-03 -0.112046D-02
      9b  0.553955D+00 -0.554034D+00 -0.162403D-03 -0.177452D-02  0.114382D-03
     10a  0.248059D-01 -0.247467D-01  0.708937D+00  0.101158D+00 -0.117555D+01
     10b -0.328773D-01  0.330377D-01  0.110802D+00 -0.707936D+00 -0.178447D+00
                16            17            18            19            20 
      1a  0.178295D+00 -0.121409D+01 -0.179288D+00 -0.771871D+00  0.111880D+00
      1b -0.117421D+01 -0.184323D+00  0.121612D+01 -0.119607D+00 -0.774990D+00
      2a -0.617595D-04  0.609851D-03 -0.132426D-04  0.146106D-02  0.255153D-04
      2b -0.145930D-02  0.225752D-03 -0.823473D-03  0.533774D-03  0.193066D-02
      3a  0.100886D+00  0.757363D+00  0.119589D+00  0.126917D+01 -0.188200D+00
      3b -0.723174D+00  0.106424D+00 -0.753429D+00  0.191513D+00  0.126838D+01
      4a -0.179291D+00  0.121001D+01  0.178635D+00  0.761637D+00 -0.110386D+00
      4b  0.118139D+01  0.183757D+00 -0.121205D+01  0.118032D+00  0.764712D+00
      5a -0.113213D+00  0.771945D+00  0.108642D+00 -0.126520D+01  0.190705D+00
      5b  0.707418D+00  0.122293D+00 -0.771675D+00 -0.187669D+00 -0.126355D+01
      6a -0.987484D-01 -0.773772D+00 -0.121975D+00 -0.126476D+01  0.187500D+00
      6b  0.709398D+00 -0.108949D+00  0.769849D+00 -0.190896D+00 -0.126399D+01
      7a -0.174294D+00 -0.121074D+01 -0.183911D+00  0.762728D+00 -0.118305D+00
      7b  0.118208D+01 -0.178391D+00  0.121133D+01  0.110064D+00  0.763628D+00
      8a  0.115201D+00 -0.755518D+00 -0.106118D+00  0.126960D+01 -0.191320D+00
      8b -0.721215D+00 -0.119906D+00  0.755274D+00  0.188372D+00  0.126795D+01
      9a  0.487151D-03 -0.645947D-03 -0.254154D-03  0.154561D-02 -0.590678D-03
      9b -0.138415D-02  0.378824D-04  0.786863D-03 -0.838765D-04  0.184632D-02
     10a  0.173144D+00  0.121481D+01  0.184478D+00 -0.772973D+00  0.119884D+00
     10b -0.117492D+01  0.179044D+00 -0.121541D+01 -0.111553D+00 -0.773894D+00
 bfr conversion (imaginary):
                 1             2             3             4             5 
      1a -0.239303D-02  0.285622D-01  0.000000D+00 -0.506618D-01  0.440407D-02
      1b  0.325097D-01 -0.429341D-02  0.528924D-01  0.477179D-02  0.543763D-01
      2a -0.124576D-02 -0.111199D-02 -0.228969D-02  0.195015D-02 -0.275316D-02
      2b  0.140054D-02 -0.135942D-02  0.253113D-02  0.238982D-02  0.306628D-02
      3a  0.000000D+00  0.483098D-01  0.639451D-02 -0.339260D-01  0.416410D-02
      3b  0.481289D-01 -0.255072D-02  0.283972D-01 -0.390474D-02 -0.380951D-01
      4a -0.239736D-02  0.282423D-01 -0.501975D-04 -0.504851D-01  0.437847D-02
      4b  0.321987D-01 -0.428156D-02  0.527638D-01  0.481103D-02  0.547831D-01
      5a  0.226116D-02  0.490891D-01  0.423928D-02  0.309110D-01 -0.704421D-02
      5b  0.471708D-01  0.432534D-04 -0.328272D-01 -0.684255D-02 -0.334183D-01
      6a -0.378551D-04  0.481387D-01  0.635608D-02 -0.345652D-01  0.425447D-02
      6b  0.480077D-01 -0.258577D-02  0.290744D-01 -0.380801D-02 -0.373665D-01
      7a  0.384853D-02  0.307799D-01 -0.361445D-02  0.521543D-01  0.000000D+00
      7b  0.299251D-01  0.273813D-02 -0.514658D-01  0.541299D-04  0.563131D-01
      8a  0.222956D-02  0.492319D-01  0.432255D-02  0.302265D-01 -0.701294D-02
      8b  0.473173D-01  0.000000D+00 -0.321931D-01 -0.687794D-02 -0.341894D-01
      9a  0.128963D-02 -0.117522D-03 -0.240593D-02 -0.274891D-03  0.291677D-02
      9b  0.477600D-03  0.139157D-02 -0.867991D-03  0.249294D-02  0.108500D-02
     10a  0.385867D-02  0.311023D-01 -0.357414D-02  0.522990D-01 -0.565328D-04
     10b  0.302339D-01  0.273318D-02 -0.516265D-01  0.000000D+00  0.559350D-01
                 6             7             8             9            10 
      1a  0.568165D-01  0.462567D-02 -0.390250D-01  0.282652D-04 -0.282594D-04
      1b  0.531886D-04  0.347616D-01 -0.251990D-02 -0.949300D-02 -0.955335D-02
      2a -0.226512D-02 -0.205966D-02  0.157628D-02  0.000000D+00  0.000000D+00
      2b -0.277663D-02  0.233958D-02  0.195097D-02  0.108070D+00  0.108078D+00
      3a -0.326741D-01 -0.306121D-02  0.608537D-01 -0.211086D-03  0.211048D-03
      3b  0.658401D-02 -0.606746D-01  0.415548D-04  0.114334D-02  0.159197D-02
      4a  0.571850D-01  0.465982D-02 -0.396012D-01  0.282889D-04 -0.282829D-04
      4b  0.000000D+00  0.353275D-01 -0.252517D-02 -0.950698D-02 -0.956737D-02
      5a -0.359811D-01  0.000000D+00 -0.600408D-01  0.153063D-02 -0.153040D-02
      5b -0.470282D-02  0.619860D-01  0.267957D-02  0.143340D-02 -0.181990D-02
      6a -0.319095D-01 -0.302403D-02  0.610191D-01 -0.208896D-03  0.208857D-03
      6b  0.661932D-02 -0.608887D-01  0.000000D+00  0.119484D-02  0.163884D-02
      7a  0.560356D-01  0.285384D-02  0.371370D-01 -0.103029D-01  0.103016D-01
      7b -0.319614D-02 -0.380542D-01 -0.422372D-02 -0.109238D-01  0.109749D-01
      8a -0.367051D-01 -0.469604D-04 -0.598479D-01  0.147751D-02 -0.147727D-02
      8b -0.462549D-02  0.618026D-01  0.271319D-02  0.137491D-02 -0.176546D-02
      9a -0.242652D-03 -0.213734D-02 -0.137714D-03  0.116748D+00 -0.116739D+00
      9b  0.284742D-02 -0.816536D-03  0.198890D-02  0.124080D+00 -0.124072D+00
     10a  0.556367D-01  0.284791D-02  0.365739D-01 -0.102877D-01  0.102865D-01
     10b -0.322766D-02 -0.374737D-01 -0.419323D-02 -0.109077D-01  0.109588D-01
                11            12            13            14            15 
      1a -0.641611D-02 -0.644527D-02  0.662988D-03  0.125057D+00  0.173095D-04
      1b -0.138236D-04  0.138244D-04 -0.126131D+00 -0.108733D-02 -0.208668D+00
      2a  0.108098D+00  0.108094D+00 -0.691301D-04  0.349943D-03 -0.523807D-04
      2b  0.000000D+00  0.000000D+00 -0.214313D-03  0.684179D-04 -0.172046D-03
      3a  0.259595D-03  0.486668D-03  0.886455D-05  0.200257D+00 -0.162643D-02
      3b  0.106835D-03 -0.106840D-03 -0.200271D+00 -0.677849D-03 -0.127147D+00
      4a -0.633728D-02 -0.635000D-02 -0.656376D-03 -0.126593D+00  0.000000D+00
      4b -0.608617D-05  0.608630D-05  0.127653D+00  0.108581D-02  0.209924D+00
      5a  0.112280D-02 -0.124913D-02 -0.664687D-03  0.200975D+00 -0.108532D-02
      5b -0.111585D-02  0.111591D-02 -0.200466D+00  0.000000D+00  0.125741D+00
      6a  0.960588D-03  0.110544D-02  0.000000D+00 -0.200718D+00  0.163507D-02
      6b  0.681570D-04 -0.681599D-04  0.200721D+00  0.670432D-03  0.124699D+00
      7a -0.727694D-02  0.728892D-02 -0.107827D-02  0.127264D+00  0.920859D-03
      7b  0.685236D-02 -0.685265D-02 -0.126988D+00  0.662118D-03  0.209572D+00
      8a  0.329453D-03 -0.527290D-03  0.672050D-03 -0.200521D+00  0.106595D-02
      8b -0.403053D-03  0.403059D-03  0.200010D+00 -0.894474D-05 -0.128178D+00
      9a  0.124095D+00 -0.124107D+00 -0.683327D-04 -0.297050D-03  0.515380D-04
      9b -0.116764D+00  0.116769D+00  0.267035D-03  0.694978D-04 -0.211852D-03
     10a -0.736971D-02  0.739602D-02  0.107983D-02 -0.125730D+00 -0.932629D-03
     10b  0.694639D-02 -0.694668D-02  0.125462D+00 -0.668762D-03 -0.208304D+00
                16            17            18            19            20 
      1a -0.208066D+00 -0.992568D-03  0.215744D+00 -0.936901D-03 -0.137579D+00
      1b  0.951040D-03 -0.215135D+00  0.000000D+00 -0.136641D+00 -0.573435D-03
      2a -0.271838D-03  0.250407D-04 -0.152385D-03  0.584227D-04  0.357023D-03
      2b -0.510380D-04  0.101837D-03 -0.248148D-04  0.244215D-03  0.574993D-04
      3a -0.128561D+00 -0.958313D-03 -0.133263D+00  0.590670D-03  0.224928D+00
      3b -0.105867D-02  0.134604D+00  0.156915D-02  0.224919D+00  0.000000D+00
      4a  0.209343D+00  0.999079D-03 -0.215024D+00  0.926560D-03  0.135755D+00
      4b -0.939404D-03  0.214409D+00 -0.975827D-05  0.134829D+00  0.567878D-03
      5a  0.125081D+00  0.157027D-02 -0.137137D+00  0.916731D-05 -0.223921D+00
      5b -0.164137D-02  0.136549D+00 -0.944204D-03 -0.224367D+00  0.593646D-03
      6a  0.126122D+00  0.938616D-03  0.136177D+00 -0.597784D-03 -0.224152D+00
      6b  0.107823D-02 -0.137510D+00 -0.156281D-02 -0.224134D+00 -0.910202D-05
      7a  0.209703D+00  0.984126D-05  0.214644D+00 -0.571903D-03  0.135183D+00
      7b  0.000000D+00 -0.214795D+00 -0.982255D-03  0.135404D+00 -0.921336D-03
      8a -0.127530D+00 -0.157655D-02  0.134233D+00  0.000000D+00  0.224703D+00
      8b  0.163277D-02 -0.133633D+00  0.963708D-03  0.225146D+00 -0.586576D-03
      9a -0.232309D-03  0.245275D-04  0.133130D-03 -0.577233D-04  0.312545D-03
      9b  0.521682D-04 -0.120819D-03 -0.254610D-04  0.288796D-03 -0.583728D-04
     10a -0.208437D+00  0.000000D+00 -0.215371D+00  0.577478D-03 -0.137001D+00
     10b -0.173377D-04  0.215515D+00  0.975771D-03 -0.137223D+00  0.931644D-03
 afr conversion (alpha, real):
                 1             2             3             4             5 
      1   0.178676D+00 -0.437050D-01  0.294657D+00  0.555190D-01  0.307707D+00
      2   0.621013D-02 -0.682641D-02  0.112701D-01  0.121431D-01  0.137350D-01
      3   0.269132D+00 -0.476043D-01  0.166102D+00 -0.222005D-02 -0.206839D+00
      4   0.176931D+00 -0.434180D-01  0.293878D+00  0.556355D-01  0.309938D+00
      5   0.266717D+00 -0.336516D-01 -0.177635D+00 -0.556880D-01 -0.194335D+00
      6   0.268405D+00 -0.476820D-01  0.169827D+00 -0.131690D-02 -0.202678D+00
      7   0.172347D+00 -0.595564D-02 -0.291178D+00 -0.295957D-01  0.313171D+00
      8   0.267495D+00 -0.339918D-01 -0.174000D+00 -0.554920D-01 -0.198586D+00
      9   0.434930D-02  0.785494D-02 -0.780973D-02  0.139908D-01  0.954849D-02
     10   0.174087D+00 -0.620588D-02 -0.292023D+00 -0.299790D-01  0.311001D+00
                 6             7             8             9            10 
      1  -0.382424D-01  0.200282D+00  0.137635D-01 -0.577872D-01 -0.580566D-01
      2  -0.139634D-01  0.104115D-01  0.978906D-02  0.657305D+00  0.657349D+00
      3   0.589169D-01 -0.343096D+00 -0.432122D-01  0.731707D-02  0.931973D-02
      4  -0.387892D-01  0.203490D+00  0.141454D-01 -0.578722D-01 -0.581419D-01
      5  -0.184606D-02  0.346464D+00  0.578547D-01  0.608582D-02 -0.843703D-02
      6   0.585954D-01 -0.344244D+00 -0.435628D-01  0.762657D-02  0.960851D-02
      7  -0.558513D-01 -0.209007D+00 -0.501418D-01 -0.487217D-01  0.490351D-01
      8  -0.923232D-03  0.345378D+00  0.579052D-01  0.582145D-02 -0.819728D-02
      9   0.160597D-01 -0.732976D-02  0.112250D-01  0.553898D+00 -0.553866D+00
     10  -0.557567D-01 -0.205770D+00 -0.495692D-01 -0.486500D-01  0.489632D-01
                11            12            13            14            15 
      1  -0.152712D-01 -0.151696D-01 -0.710206D+00 -0.110497D+00 -0.117624D+01
      2   0.255869D+00  0.255820D+00 -0.130751D-02  0.937102D-04 -0.104479D-02
      3   0.126427D-02  0.501959D-03 -0.112916D+01 -0.170946D+00 -0.719057D+00
      4  -0.150375D-01 -0.149912D-01  0.718800D+00  0.111770D+00  0.118335D+01
      5  -0.412923D-02  0.383081D-02 -0.113123D+01 -0.167724D+00  0.707252D+00
      6   0.268829D-02  0.220164D-02  0.113171D+01  0.171289D+00  0.705271D+00
      7   0.244535D-01 -0.244283D-01 -0.717537D+00 -0.102475D+00  0.118268D+01
      8  -0.167168D-02  0.120354D-02  0.112867D+01  0.167294D+00 -0.721018D+00
      9  -0.416461D+00  0.416484D+00  0.140759D-02  0.639747D-03 -0.112046D-02
     10   0.248059D-01 -0.247467D-01  0.708937D+00  0.101158D+00 -0.117555D+01
                16            17            18            19            20 
      1   0.178295D+00 -0.121409D+01 -0.179288D+00 -0.771871D+00  0.111880D+00
      2  -0.617595D-04  0.609851D-03 -0.132426D-04  0.146106D-02  0.255153D-04
      3   0.100886D+00  0.757363D+00  0.119589D+00  0.126917D+01 -0.188200D+00
      4  -0.179291D+00  0.121001D+01  0.178635D+00  0.761637D+00 -0.110386D+00
      5  -0.113213D+00  0.771945D+00  0.108642D+00 -0.126520D+01  0.190705D+00
      6  -0.987484D-01 -0.773772D+00 -0.121975D+00 -0.126476D+01  0.187500D+00
      7  -0.174294D+00 -0.121074D+01 -0.183911D+00  0.762728D+00 -0.118305D+00
      8   0.115201D+00 -0.755518D+00 -0.106118D+00  0.126960D+01 -0.191320D+00
      9   0.487151D-03 -0.645947D-03 -0.254154D-03  0.154561D-02 -0.590678D-03
     10   0.173144D+00  0.121481D+01  0.184478D+00 -0.772973D+00  0.119884D+00
 afr conversion (alpha, imaginary):
                 1             2             3             4             5 
      1  -0.239303D-02  0.285622D-01  0.000000D+00 -0.506618D-01  0.440407D-02
      2  -0.124576D-02 -0.111199D-02 -0.228969D-02  0.195015D-02 -0.275316D-02
      3   0.000000D+00  0.483098D-01  0.639451D-02 -0.339260D-01  0.416410D-02
      4  -0.239736D-02  0.282423D-01 -0.501975D-04 -0.504851D-01  0.437847D-02
      5   0.226116D-02  0.490891D-01  0.423928D-02  0.309110D-01 -0.704421D-02
      6  -0.378551D-04  0.481387D-01  0.635608D-02 -0.345652D-01  0.425447D-02
      7   0.384853D-02  0.307799D-01 -0.361445D-02  0.521543D-01  0.000000D+00
      8   0.222956D-02  0.492319D-01  0.432255D-02  0.302265D-01 -0.701294D-02
      9   0.128963D-02 -0.117522D-03 -0.240593D-02 -0.274891D-03  0.291677D-02
     10   0.385867D-02  0.311023D-01 -0.357414D-02  0.522990D-01 -0.565328D-04
                 6             7             8             9            10 
      1   0.568165D-01  0.462567D-02 -0.390250D-01  0.282652D-04 -0.282594D-04
      2  -0.226512D-02 -0.205966D-02  0.157628D-02  0.000000D+00  0.000000D+00
      3  -0.326741D-01 -0.306121D-02  0.608537D-01 -0.211086D-03  0.211048D-03
      4   0.571850D-01  0.465982D-02 -0.396012D-01  0.282889D-04 -0.282829D-04
      5  -0.359811D-01  0.000000D+00 -0.600408D-01  0.153063D-02 -0.153040D-02
      6  -0.319095D-01 -0.302403D-02  0.610191D-01 -0.208896D-03  0.208857D-03
      7   0.560356D-01  0.285384D-02  0.371370D-01 -0.103029D-01  0.103016D-01
      8  -0.367051D-01 -0.469604D-04 -0.598479D-01  0.147751D-02 -0.147727D-02
      9  -0.242652D-03 -0.213734D-02 -0.137714D-03  0.116748D+00 -0.116739D+00
     10   0.556367D-01  0.284791D-02  0.365739D-01 -0.102877D-01  0.102865D-01
                11            12            13            14            15 
      1  -0.641611D-02 -0.644527D-02  0.662988D-03  0.125057D+00  0.173095D-04
      2   0.108098D+00  0.108094D+00 -0.691301D-04  0.349943D-03 -0.523807D-04
      3   0.259595D-03  0.486668D-03  0.886455D-05  0.200257D+00 -0.162643D-02
      4  -0.633728D-02 -0.635000D-02 -0.656376D-03 -0.126593D+00  0.000000D+00
      5   0.112280D-02 -0.124913D-02 -0.664687D-03  0.200975D+00 -0.108532D-02
      6   0.960588D-03  0.110544D-02  0.000000D+00 -0.200718D+00  0.163507D-02
      7  -0.727694D-02  0.728892D-02 -0.107827D-02  0.127264D+00  0.920859D-03
      8   0.329453D-03 -0.527290D-03  0.672050D-03 -0.200521D+00  0.106595D-02
      9   0.124095D+00 -0.124107D+00 -0.683327D-04 -0.297050D-03  0.515380D-04
     10  -0.736971D-02  0.739602D-02  0.107983D-02 -0.125730D+00 -0.932629D-03
                16            17            18            19            20 
      1  -0.208066D+00 -0.992568D-03  0.215744D+00 -0.936901D-03 -0.137579D+00
      2  -0.271838D-03  0.250407D-04 -0.152385D-03  0.584227D-04  0.357023D-03
      3  -0.128561D+00 -0.958313D-03 -0.133263D+00  0.590670D-03  0.224928D+00
      4   0.209343D+00  0.999079D-03 -0.215024D+00  0.926560D-03  0.135755D+00
      5   0.125081D+00  0.157027D-02 -0.137137D+00  0.916731D-05 -0.223921D+00
      6   0.126122D+00  0.938616D-03  0.136177D+00 -0.597784D-03 -0.224152D+00
      7   0.209703D+00  0.984126D-05  0.214644D+00 -0.571903D-03  0.135183D+00
      8  -0.127530D+00 -0.157655D-02  0.134233D+00  0.000000D+00  0.224703D+00
      9  -0.232309D-03  0.245275D-04  0.133130D-03 -0.577233D-04  0.312545D-03
     10  -0.208437D+00  0.000000D+00 -0.215371D+00  0.577478D-03 -0.137001D+00
 afr conversion (beta, real):
                 1             2             3             4             5 
      1   0.959470D-02  0.165074D+00  0.340406D-01 -0.286672D+00  0.578423D-01
      2  -0.597631D-02 -0.446549D-02 -0.111266D-01  0.804065D-02 -0.134304D-01
      3   0.340152D-01  0.273152D+00  0.538989D-01 -0.183711D+00 -0.206983D-03
      4   0.935066D-02  0.163272D+00  0.336782D-01 -0.285738D+00  0.579495D-01
      5   0.459822D-01  0.274173D+00  0.248949D-02  0.179486D+00 -0.596708D-01
      6   0.337178D-01  0.272242D+00  0.541206D-01 -0.187370D+00  0.742495D-03
      7   0.426701D-01  0.168429D+00 -0.532581D-01  0.289339D+00  0.345381D-01
      8   0.459090D-01  0.275026D+00  0.336149D-02  0.175729D+00 -0.599699D-01
      9   0.754902D-02 -0.244432D-02 -0.139617D-01 -0.442598D-02  0.168863D-01
     10   0.429451D-01  0.170237D+00 -0.531369D-01  0.290205D+00  0.339918D-01
                 6             7             8             9            10 
      1   0.317098D+00  0.501682D-01 -0.215021D+00  0.226406D-01  0.224390D-01
      2  -0.911220D-02 -0.987587D-02  0.626432D-02 -0.255787D+00 -0.255798D+00
      3  -0.190771D+00 -0.595483D-01  0.340383D+00 -0.399001D-02 -0.248425D-02
      4   0.319222D+00  0.507549D-01 -0.218238D+00  0.226738D-01  0.224720D-01
      5  -0.194873D+00  0.433553D-01 -0.339397D+00  0.591699D-02 -0.500084D-02
      6  -0.186548D+00 -0.594902D-01  0.341363D+00 -0.409859D-02 -0.260848D-02
      7   0.316872D+00 -0.106652D-01  0.213287D+00 -0.368092D-01  0.366808D-01
      8  -0.199014D+00  0.429644D-01 -0.338362D+00  0.573230D-02 -0.480653D-02
      9  -0.497695D-02 -0.125175D-01 -0.337401D-02  0.416404D+00 -0.416373D+00
     10   0.314685D+00 -0.102924D-01  0.210096D+00 -0.367552D-01  0.366269D-01
                11            12            13            14            15 
      1  -0.390486D-01 -0.391770D-01 -0.101533D+00  0.706658D+00 -0.173395D+00
      2   0.657483D+00  0.657437D+00 -0.568643D-03  0.187492D-02 -0.438315D-03
      3   0.176269D-02  0.277624D-02 -0.167101D+00  0.113007D+01 -0.114881D+00
      4  -0.385558D-01 -0.386109D-01  0.102842D+00 -0.715317D+00  0.174537D+00
      5   0.491003D-02 -0.567839D-02 -0.171061D+00  0.113314D+01  0.984263D-01
      6   0.595982D-02  0.660620D-02  0.167526D+00 -0.113265D+01  0.112895D+00
      7  -0.324748D-01  0.325480D-01 -0.112067D+00  0.716590D+00  0.179434D+00
      8   0.131060D-02 -0.251392D-02  0.170722D+00 -0.113057D+01 -0.100562D+00
      9   0.553955D+00 -0.554034D+00 -0.162403D-03 -0.177452D-02  0.114382D-03
     10  -0.328773D-01  0.330377D-01  0.110802D+00 -0.707936D+00 -0.178447D+00
                16            17            18            19            20 
      1  -0.117421D+01 -0.184323D+00  0.121612D+01 -0.119607D+00 -0.774990D+00
      2  -0.145930D-02  0.225752D-03 -0.823473D-03  0.533774D-03  0.193066D-02
      3  -0.723174D+00  0.106424D+00 -0.753429D+00  0.191513D+00  0.126838D+01
      4   0.118139D+01  0.183757D+00 -0.121205D+01  0.118032D+00  0.764712D+00
      5   0.707418D+00  0.122293D+00 -0.771675D+00 -0.187669D+00 -0.126355D+01
      6   0.709398D+00 -0.108949D+00  0.769849D+00 -0.190896D+00 -0.126399D+01
      7   0.118208D+01 -0.178391D+00  0.121133D+01  0.110064D+00  0.763628D+00
      8  -0.721215D+00 -0.119906D+00  0.755274D+00  0.188372D+00  0.126795D+01
      9  -0.138415D-02  0.378824D-04  0.786863D-03 -0.838765D-04  0.184632D-02
     10  -0.117492D+01  0.179044D+00 -0.121541D+01 -0.111553D+00 -0.773894D+00
 afr conversion (beta, imaginary):
                 1             2             3             4             5 
      1   0.325097D-01 -0.429341D-02  0.528924D-01  0.477179D-02  0.543763D-01
      2   0.140054D-02 -0.135942D-02  0.253113D-02  0.238982D-02  0.306628D-02
      3   0.481289D-01 -0.255072D-02  0.283972D-01 -0.390474D-02 -0.380951D-01
      4   0.321987D-01 -0.428156D-02  0.527638D-01  0.481103D-02  0.547831D-01
      5   0.471708D-01  0.432534D-04 -0.328272D-01 -0.684255D-02 -0.334183D-01
      6   0.480077D-01 -0.258577D-02  0.290744D-01 -0.380801D-02 -0.373665D-01
      7   0.299251D-01  0.273813D-02 -0.514658D-01  0.541299D-04  0.563131D-01
      8   0.473173D-01  0.000000D+00 -0.321931D-01 -0.687794D-02 -0.341894D-01
      9   0.477600D-03  0.139157D-02 -0.867991D-03  0.249294D-02  0.108500D-02
     10   0.302339D-01  0.273318D-02 -0.516265D-01  0.000000D+00  0.559350D-01
                 6             7             8             9            10 
      1   0.531886D-04  0.347616D-01 -0.251990D-02 -0.949300D-02 -0.955335D-02
      2  -0.277663D-02  0.233958D-02  0.195097D-02  0.108070D+00  0.108078D+00
      3   0.658401D-02 -0.606746D-01  0.415548D-04  0.114334D-02  0.159197D-02
      4   0.000000D+00  0.353275D-01 -0.252517D-02 -0.950698D-02 -0.956737D-02
      5  -0.470282D-02  0.619860D-01  0.267957D-02  0.143340D-02 -0.181990D-02
      6   0.661932D-02 -0.608887D-01  0.000000D+00  0.119484D-02  0.163884D-02
      7  -0.319614D-02 -0.380542D-01 -0.422372D-02 -0.109238D-01  0.109749D-01
      8  -0.462549D-02  0.618026D-01  0.271319D-02  0.137491D-02 -0.176546D-02
      9   0.284742D-02 -0.816536D-03  0.198890D-02  0.124080D+00 -0.124072D+00
     10  -0.322766D-02 -0.374737D-01 -0.419323D-02 -0.109077D-01  0.109588D-01
                11            12            13            14            15 
      1  -0.138236D-04  0.138244D-04 -0.126131D+00 -0.108733D-02 -0.208668D+00
      2   0.000000D+00  0.000000D+00 -0.214313D-03  0.684179D-04 -0.172046D-03
      3   0.106835D-03 -0.106840D-03 -0.200271D+00 -0.677849D-03 -0.127147D+00
      4  -0.608617D-05  0.608630D-05  0.127653D+00  0.108581D-02  0.209924D+00
      5  -0.111585D-02  0.111591D-02 -0.200466D+00  0.000000D+00  0.125741D+00
      6   0.681570D-04 -0.681599D-04  0.200721D+00  0.670432D-03  0.124699D+00
      7   0.685236D-02 -0.685265D-02 -0.126988D+00  0.662118D-03  0.209572D+00
      8  -0.403053D-03  0.403059D-03  0.200010D+00 -0.894474D-05 -0.128178D+00
      9  -0.116764D+00  0.116769D+00  0.267035D-03  0.694978D-04 -0.211852D-03
     10   0.694639D-02 -0.694668D-02  0.125462D+00 -0.668762D-03 -0.208304D+00
                16            17            18            19            20 
      1   0.951040D-03 -0.215135D+00  0.000000D+00 -0.136641D+00 -0.573435D-03
      2  -0.510380D-04  0.101837D-03 -0.248148D-04  0.244215D-03  0.574993D-04
      3  -0.105867D-02  0.134604D+00  0.156915D-02  0.224919D+00  0.000000D+00
      4  -0.939404D-03  0.214409D+00 -0.975827D-05  0.134829D+00  0.567878D-03
      5  -0.164137D-02  0.136549D+00 -0.944204D-03 -0.224367D+00  0.593646D-03
      6   0.107823D-02 -0.137510D+00 -0.156281D-02 -0.224134D+00 -0.910202D-05
      7   0.000000D+00 -0.214795D+00 -0.982255D-03  0.135404D+00 -0.921336D-03
      8   0.163277D-02 -0.133633D+00  0.963708D-03  0.225146D+00 -0.586576D-03
      9   0.521682D-04 -0.120819D-03 -0.254610D-04  0.288796D-03 -0.583728D-04
     10  -0.173377D-04  0.215515D+00  0.975771D-03 -0.137223D+00  0.931644D-03
 jaja in hckghf.F, ISPECT =                     548
Spin block MO for GHF transformation
NOA =   10   NOB =   10
NVA =   10   NVB =   10
 NOAvA in Hack                     100
 jaja in tranN3.F, ISPECT =                     548
 in l802/tranN3.F, LSPECT =                      800
 NMat, NBtSiz,MDV                    8372                   16000
                133954722
 TranN3:  NGot= 134217728 NBasic=    263006 NTTT=       550 NMat=      8372.
 Defined bucket =                      51                   10000
 Defined bucket =                      52                   10000
 Defined bucket =                      53                   10000
 Defined bucket =                      55                   10000
 Defined bucket =                      57                   10000
 Defined bucket =                      58                   10000
 Defined bucket =                      60                   10000
 Defined bucket =                      72                   10000
 Defined bucket =                      73                   10000
 Defined bucket =                      74                   10000
 Defined bucket =                      75                   10000
 Defined bucket =                      76                   10000
 (IK/LS) integrals will be saved in memory.
 TrCghf made   2 passes through the AO integrals.
 jaja DoHack is true or false? F
 jaja in hckghf.F, NBasis=                      10
 jaja in hckGHF/FixOG, LC =                      800
 jaja in hckGHF/FixOG, IRwC=                      548
 bfr conversion (alpha, real):
                 1             2             3             4             5 
      1   0.178676D+00 -0.437050D-01  0.294657D+00  0.555190D-01  0.307707D+00
      2   0.621013D-02 -0.682641D-02  0.112701D-01  0.121431D-01  0.137350D-01
      3   0.269132D+00 -0.476043D-01  0.166102D+00 -0.222005D-02 -0.206839D+00
      4   0.176931D+00 -0.434180D-01  0.293878D+00  0.556355D-01  0.309938D+00
      5   0.266717D+00 -0.336516D-01 -0.177635D+00 -0.556880D-01 -0.194335D+00
      6   0.268405D+00 -0.476820D-01  0.169827D+00 -0.131690D-02 -0.202678D+00
      7   0.172347D+00 -0.595564D-02 -0.291178D+00 -0.295957D-01  0.313171D+00
      8   0.267495D+00 -0.339918D-01 -0.174000D+00 -0.554920D-01 -0.198586D+00
      9   0.434930D-02  0.785494D-02 -0.780973D-02  0.139908D-01  0.954849D-02
     10   0.174087D+00 -0.620588D-02 -0.292023D+00 -0.299790D-01  0.311001D+00
                 6             7             8             9            10 
      1  -0.382424D-01  0.200282D+00  0.137635D-01 -0.577872D-01 -0.580566D-01
      2  -0.139634D-01  0.104115D-01  0.978906D-02  0.657305D+00  0.657349D+00
      3   0.589169D-01 -0.343096D+00 -0.432122D-01  0.731707D-02  0.931973D-02
      4  -0.387892D-01  0.203490D+00  0.141454D-01 -0.578722D-01 -0.581419D-01
      5  -0.184606D-02  0.346464D+00  0.578547D-01  0.608582D-02 -0.843703D-02
      6   0.585954D-01 -0.344244D+00 -0.435628D-01  0.762657D-02  0.960851D-02
      7  -0.558513D-01 -0.209007D+00 -0.501418D-01 -0.487217D-01  0.490351D-01
      8  -0.923232D-03  0.345378D+00  0.579052D-01  0.582145D-02 -0.819728D-02
      9   0.160597D-01 -0.732976D-02  0.112250D-01  0.553898D+00 -0.553866D+00
     10  -0.557567D-01 -0.205770D+00 -0.495692D-01 -0.486500D-01  0.489632D-01
                11            12            13            14            15 
      1  -0.152712D-01 -0.151696D-01 -0.710206D+00 -0.110497D+00 -0.117624D+01
      2   0.255869D+00  0.255820D+00 -0.130751D-02  0.937102D-04 -0.104479D-02
      3   0.126427D-02  0.501959D-03 -0.112916D+01 -0.170946D+00 -0.719057D+00
      4  -0.150375D-01 -0.149912D-01  0.718800D+00  0.111770D+00  0.118335D+01
      5  -0.412923D-02  0.383081D-02 -0.113123D+01 -0.167724D+00  0.707252D+00
      6   0.268829D-02  0.220164D-02  0.113171D+01  0.171289D+00  0.705271D+00
      7   0.244535D-01 -0.244283D-01 -0.717537D+00 -0.102475D+00  0.118268D+01
      8  -0.167168D-02  0.120354D-02  0.112867D+01  0.167294D+00 -0.721018D+00
      9  -0.416461D+00  0.416484D+00  0.140759D-02  0.639747D-03 -0.112046D-02
     10   0.248059D-01 -0.247467D-01  0.708937D+00  0.101158D+00 -0.117555D+01
                16            17            18            19            20 
      1   0.178295D+00 -0.121409D+01 -0.179288D+00 -0.771871D+00  0.111880D+00
      2  -0.617595D-04  0.609851D-03 -0.132426D-04  0.146106D-02  0.255153D-04
      3   0.100886D+00  0.757363D+00  0.119589D+00  0.126917D+01 -0.188200D+00
      4  -0.179291D+00  0.121001D+01  0.178635D+00  0.761637D+00 -0.110386D+00
      5  -0.113213D+00  0.771945D+00  0.108642D+00 -0.126520D+01  0.190705D+00
      6  -0.987484D-01 -0.773772D+00 -0.121975D+00 -0.126476D+01  0.187500D+00
      7  -0.174294D+00 -0.121074D+01 -0.183911D+00  0.762728D+00 -0.118305D+00
      8   0.115201D+00 -0.755518D+00 -0.106118D+00  0.126960D+01 -0.191320D+00
      9   0.487151D-03 -0.645947D-03 -0.254154D-03  0.154561D-02 -0.590678D-03
     10   0.173144D+00  0.121481D+01  0.184478D+00 -0.772973D+00  0.119884D+00
 bfr conversion (alpha, imaginary):
                 1             2             3             4             5 
      1  -0.239303D-02  0.285622D-01  0.000000D+00 -0.506618D-01  0.440407D-02
      2  -0.124576D-02 -0.111199D-02 -0.228969D-02  0.195015D-02 -0.275316D-02
      3   0.000000D+00  0.483098D-01  0.639451D-02 -0.339260D-01  0.416410D-02
      4  -0.239736D-02  0.282423D-01 -0.501975D-04 -0.504851D-01  0.437847D-02
      5   0.226116D-02  0.490891D-01  0.423928D-02  0.309110D-01 -0.704421D-02
      6  -0.378551D-04  0.481387D-01  0.635608D-02 -0.345652D-01  0.425447D-02
      7   0.384853D-02  0.307799D-01 -0.361445D-02  0.521543D-01  0.000000D+00
      8   0.222956D-02  0.492319D-01  0.432255D-02  0.302265D-01 -0.701294D-02
      9   0.128963D-02 -0.117522D-03 -0.240593D-02 -0.274891D-03  0.291677D-02
     10   0.385867D-02  0.311023D-01 -0.357414D-02  0.522990D-01 -0.565328D-04
                 6             7             8             9            10 
      1   0.568165D-01  0.462567D-02 -0.390250D-01  0.282652D-04 -0.282594D-04
      2  -0.226512D-02 -0.205966D-02  0.157628D-02  0.000000D+00  0.000000D+00
      3  -0.326741D-01 -0.306121D-02  0.608537D-01 -0.211086D-03  0.211048D-03
      4   0.571850D-01  0.465982D-02 -0.396012D-01  0.282889D-04 -0.282829D-04
      5  -0.359811D-01  0.000000D+00 -0.600408D-01  0.153063D-02 -0.153040D-02
      6  -0.319095D-01 -0.302403D-02  0.610191D-01 -0.208896D-03  0.208857D-03
      7   0.560356D-01  0.285384D-02  0.371370D-01 -0.103029D-01  0.103016D-01
      8  -0.367051D-01 -0.469604D-04 -0.598479D-01  0.147751D-02 -0.147727D-02
      9  -0.242652D-03 -0.213734D-02 -0.137714D-03  0.116748D+00 -0.116739D+00
     10   0.556367D-01  0.284791D-02  0.365739D-01 -0.102877D-01  0.102865D-01
                11            12            13            14            15 
      1  -0.641611D-02 -0.644527D-02  0.662988D-03  0.125057D+00  0.173095D-04
      2   0.108098D+00  0.108094D+00 -0.691301D-04  0.349943D-03 -0.523807D-04
      3   0.259595D-03  0.486668D-03  0.886455D-05  0.200257D+00 -0.162643D-02
      4  -0.633728D-02 -0.635000D-02 -0.656376D-03 -0.126593D+00  0.000000D+00
      5   0.112280D-02 -0.124913D-02 -0.664687D-03  0.200975D+00 -0.108532D-02
      6   0.960588D-03  0.110544D-02  0.000000D+00 -0.200718D+00  0.163507D-02
      7  -0.727694D-02  0.728892D-02 -0.107827D-02  0.127264D+00  0.920859D-03
      8   0.329453D-03 -0.527290D-03  0.672050D-03 -0.200521D+00  0.106595D-02
      9   0.124095D+00 -0.124107D+00 -0.683327D-04 -0.297050D-03  0.515380D-04
     10  -0.736971D-02  0.739602D-02  0.107983D-02 -0.125730D+00 -0.932629D-03
                16            17            18            19            20 
      1  -0.208066D+00 -0.992568D-03  0.215744D+00 -0.936901D-03 -0.137579D+00
      2  -0.271838D-03  0.250407D-04 -0.152385D-03  0.584227D-04  0.357023D-03
      3  -0.128561D+00 -0.958313D-03 -0.133263D+00  0.590670D-03  0.224928D+00
      4   0.209343D+00  0.999079D-03 -0.215024D+00  0.926560D-03  0.135755D+00
      5   0.125081D+00  0.157027D-02 -0.137137D+00  0.916731D-05 -0.223921D+00
      6   0.126122D+00  0.938616D-03  0.136177D+00 -0.597784D-03 -0.224152D+00
      7   0.209703D+00  0.984126D-05  0.214644D+00 -0.571903D-03  0.135183D+00
      8  -0.127530D+00 -0.157655D-02  0.134233D+00  0.000000D+00  0.224703D+00
      9  -0.232309D-03  0.245275D-04  0.133130D-03 -0.577233D-04  0.312545D-03
     10  -0.208437D+00  0.000000D+00 -0.215371D+00  0.577478D-03 -0.137001D+00
 bfr conversion (beta, real):
                 1             2             3             4             5 
      1   0.959470D-02  0.165074D+00  0.340406D-01 -0.286672D+00  0.578423D-01
      2  -0.597631D-02 -0.446549D-02 -0.111266D-01  0.804065D-02 -0.134304D-01
      3   0.340152D-01  0.273152D+00  0.538989D-01 -0.183711D+00 -0.206983D-03
      4   0.935066D-02  0.163272D+00  0.336782D-01 -0.285738D+00  0.579495D-01
      5   0.459822D-01  0.274173D+00  0.248949D-02  0.179486D+00 -0.596708D-01
      6   0.337178D-01  0.272242D+00  0.541206D-01 -0.187370D+00  0.742495D-03
      7   0.426701D-01  0.168429D+00 -0.532581D-01  0.289339D+00  0.345381D-01
      8   0.459090D-01  0.275026D+00  0.336149D-02  0.175729D+00 -0.599699D-01
      9   0.754902D-02 -0.244432D-02 -0.139617D-01 -0.442598D-02  0.168863D-01
     10   0.429451D-01  0.170237D+00 -0.531369D-01  0.290205D+00  0.339918D-01
                 6             7             8             9            10 
      1   0.317098D+00  0.501682D-01 -0.215021D+00  0.226406D-01  0.224390D-01
      2  -0.911220D-02 -0.987587D-02  0.626432D-02 -0.255787D+00 -0.255798D+00
      3  -0.190771D+00 -0.595483D-01  0.340383D+00 -0.399001D-02 -0.248425D-02
      4   0.319222D+00  0.507549D-01 -0.218238D+00  0.226738D-01  0.224720D-01
      5  -0.194873D+00  0.433553D-01 -0.339397D+00  0.591699D-02 -0.500084D-02
      6  -0.186548D+00 -0.594902D-01  0.341363D+00 -0.409859D-02 -0.260848D-02
      7   0.316872D+00 -0.106652D-01  0.213287D+00 -0.368092D-01  0.366808D-01
      8  -0.199014D+00  0.429644D-01 -0.338362D+00  0.573230D-02 -0.480653D-02
      9  -0.497695D-02 -0.125175D-01 -0.337401D-02  0.416404D+00 -0.416373D+00
     10   0.314685D+00 -0.102924D-01  0.210096D+00 -0.367552D-01  0.366269D-01
                11            12            13            14            15 
      1  -0.390486D-01 -0.391770D-01 -0.101533D+00  0.706658D+00 -0.173395D+00
      2   0.657483D+00  0.657437D+00 -0.568643D-03  0.187492D-02 -0.438315D-03
      3   0.176269D-02  0.277624D-02 -0.167101D+00  0.113007D+01 -0.114881D+00
      4  -0.385558D-01 -0.386109D-01  0.102842D+00 -0.715317D+00  0.174537D+00
      5   0.491003D-02 -0.567839D-02 -0.171061D+00  0.113314D+01  0.984263D-01
      6   0.595982D-02  0.660620D-02  0.167526D+00 -0.113265D+01  0.112895D+00
      7  -0.324748D-01  0.325480D-01 -0.112067D+00  0.716590D+00  0.179434D+00
      8   0.131060D-02 -0.251392D-02  0.170722D+00 -0.113057D+01 -0.100562D+00
[...]
      6b-0.151308D-01  0.631070D-01 -0.638791D-02  0.690057D-02 -0.236891D-01
      7a-0.137191D+00  0.873207D-02 -0.306632D-02  0.129967D-01 -0.491387D-01
      7b 0.168911D-01 -0.219998D+00  0.632459D-02  0.915631D-03 -0.170184D-01
      8a-0.612899D-01  0.275623D-01 -0.221117D-02  0.581592D-02 -0.933744D-01
      8b 0.249118D-01 -0.837240D-01  0.322074D-02 -0.198944D-02 -0.936186D-02
      9a-0.146051D-02 -0.104361D-01  0.249529D-02 -0.306084D-02 -0.192554D-02
      9b-0.751922D-02  0.223963D-02  0.159311D-02 -0.202562D-02 -0.279388D-02
     10a-0.137418D+00  0.893019D-02 -0.307075D-02  0.130087D-01 -0.498652D-01
     10b 0.170593D-01 -0.220248D+00  0.632773D-02  0.912846D-03 -0.170548D-01
                3b            4a            4b            5a            5b
      3b 0.703325D+00
      4a-0.142933D-01  0.483890D+00
      4b 0.506896D-01 -0.639066D-01  0.783499D+00
      5a 0.310298D-01 -0.618224D-01  0.272023D-01  0.423684D+00
      5b-0.168023D+00  0.252620D-01 -0.845398D-01 -0.654860D-01  0.695476D+00
      6a-0.243251D-01  0.288779D-01  0.254637D-01 -0.100973D+00 -0.856628D-02
      6b 0.704975D+00 -0.149648D-01  0.575584D-01  0.317731D-01 -0.174284D+00
      7a-0.143176D-01 -0.137059D+00  0.886424D-02  0.335803D-01  0.727251D-02
      7b-0.940432D-01  0.170565D-01 -0.219668D+00 -0.328625D-01  0.530501D-01
      8a 0.309612D-01 -0.605841D-01  0.273569D-01  0.422664D+00 -0.656407D-01
      8b-0.161609D+00  0.250242D-01 -0.824644D-01 -0.649921D-01  0.693754D+00
      9a-0.507642D-02 -0.145634D-02 -0.104233D-01  0.431671D-02  0.639631D-02
      9b-0.184829D-03 -0.751807D-02  0.223896D-02  0.666234D-02  0.277476D-02
     10a-0.140370D-01 -0.137281D+00  0.906041D-02  0.369066D-01  0.673273D-02
     10b-0.952818D-01  0.172253D-01 -0.219908D+00 -0.333244D-01  0.585177D-01
                6a            6b            7a            7b            8a
      6a 0.412464D+00
      6b-0.240692D-01  0.706732D+00
      7a-0.504199D-01 -0.143015D-01  0.476334D+00
      7b-0.166096D-01 -0.960779D-01 -0.335979D-01  0.790721D+00
      8a-0.972564D-01  0.317068D-01  0.294262D-01 -0.327167D-01  0.421707D+00
      8b-0.862885D-02 -0.167842D+00  0.745425D-02  0.460058D-01 -0.651481D-01
      9a-0.189937D-02 -0.515072D-02 -0.432543D-01 -0.100333D-02  0.400823D-02
      9b-0.284443D-02 -0.145761D-03 -0.152671D-01 -0.401443D-01  0.623298D-02
     10a-0.511751D-01 -0.140151D-01  0.475640D+00 -0.337802D-01  0.327523D-01
     10b-0.166409D-01 -0.973626D-01 -0.334600D-01  0.789539D+00 -0.331802D-01
                8b            9a            9b           10a           10b
      8b 0.692141D+00
      9a 0.583467D-02  0.557664D+00
      9b 0.265308D-02  0.461232D+00  0.385607D+00
     10a 0.691807D-02 -0.432176D-01 -0.152543D-01  0.474974D+00
     10b 0.514733D-01 -0.102171D-02 -0.400997D-01 -0.336463D-01  0.788404D+00
 jaja lower-tri density matrix (imaginary):
                1a            1b            2a            2b            3a
      1a 0.000000D+00
      1b-0.557785D-01  0.000000D+00
      2a-0.168032D-02 -0.954792D-02  0.000000D+00
      2b 0.855120D-02  0.308088D-02 -0.154760D+00  0.000000D+00
      3a-0.771246D-02  0.589911D-02  0.747763D-03  0.103169D-02  0.000000D+00
      3b-0.509790D-02  0.773029D-02 -0.895959D-03 -0.903207D-03 -0.553006D-01
      4a 0.648162D-04  0.558401D-01  0.167744D-02 -0.855391D-02  0.772540D-02
      4b-0.558477D-01 -0.647867D-04  0.955149D-02 -0.307948D-02 -0.546564D-02
      5a-0.416039D-03 -0.384520D-02 -0.737609D-03 -0.456001D-03 -0.768625D-02
      5b 0.391419D-02  0.401525D-03  0.130606D-03  0.964293D-03  0.137079D-01
      6a-0.770248D-02  0.636433D-02  0.766754D-03  0.114427D-02  0.120969D-03
      6b-0.556700D-02  0.772194D-02 -0.997927D-03 -0.935139D-03 -0.554462D-01
      7a 0.157927D-02 -0.155360D-01 -0.172410D-02 -0.107418D-03 -0.518401D-03
      7b 0.154174D-01 -0.159943D-02 -0.548952D-03  0.208904D-02  0.890438D-02
      8a-0.490883D-03 -0.367926D-02 -0.719159D-03 -0.465163D-03 -0.768394D-02
      8b 0.375578D-02  0.476531D-03  0.145671D-03  0.941547D-03  0.131922D-01
      9a 0.582628D-03  0.516403D-03  0.986898D-03 -0.614745D-03  0.451647D-03
      9b-0.598455D-03 -0.619061D-03  0.894481D-03 -0.738827D-03 -0.299269D-03
     10a 0.157363D-02 -0.155362D-01 -0.172673D-02 -0.108392D-03 -0.578808D-03
     10b 0.154183D-01 -0.159384D-02 -0.549299D-03  0.209272D-02  0.900268D-02
                3b            4a            4b            5a            5b
      3b 0.000000D+00
      4a 0.466321D-02  0.000000D+00
      4b-0.774334D-02 -0.559130D-01  0.000000D+00
      5a-0.128926D-01 -0.355318D-03 -0.373997D-02  0.000000D+00
      5b 0.768750D-02  0.380252D-02  0.340774D-03 -0.504569D-01  0.000000D+00
      6a 0.554337D-01 -0.771639D-02  0.593066D-02  0.768714D-02 -0.141431D-01
      6b-0.121133D-03 -0.513201D-02  0.773597D-02  0.133279D-01 -0.768847D-02
      7a-0.885449D-02  0.158566D-02 -0.154951D-01 -0.764562D-02  0.386015D-02
      7b 0.521495D-03  0.153758D-01 -0.160585D-02 -0.304573D-02  0.764423D-02
      8a-0.123770D-01 -0.430303D-03 -0.357786D-02  0.123543D-03  0.503203D-01
      8b 0.768515D-02  0.364796D-02  0.415921D-03 -0.503334D-01 -0.123514D-03
      9a 0.256383D-03  0.580312D-03  0.515685D-03  0.411614D-04 -0.212198D-03
      9b-0.462751D-03 -0.597510D-03 -0.616697D-03  0.204199D-03 -0.317121D-04
     10a-0.894637D-02  0.158049D-02 -0.154945D-01 -0.763079D-02  0.425722D-02
     10b 0.581911D-03  0.153758D-01 -0.160073D-02 -0.344436D-02  0.762940D-02
                6a            6b            7a            7b            8a
      6a 0.000000D+00
      6b-0.555866D-01  0.000000D+00
      7a-0.443841D-03 -0.899798D-02  0.000000D+00
      7b 0.903910D-02  0.447148D-03 -0.592115D-01  0.000000D+00
      8a-0.768641D-02 -0.128101D-01  0.765252D-02  0.249774D-02  0.000000D+00
      8b 0.136253D-01  0.768768D-02 -0.331296D-02 -0.765119D-02 -0.502053D-01
      9a 0.456528D-03  0.257619D-03 -0.276908D-02  0.759704D-03  0.668982D-04
      9b-0.300711D-03 -0.467711D-03 -0.504763D-03  0.284934D-02  0.173301D-03
     10a-0.504395D-03 -0.909307D-02  0.610058D-04  0.591148D-01 -0.763867D-02
     10b 0.914062D-02  0.507710D-03 -0.591213D-01 -0.610111D-04 -0.289634D-02
                8b            9a            9b           10a           10b
      8b 0.000000D+00
      9a-0.183723D-03  0.000000D+00
      9b-0.582095D-04  0.282985D-01  0.000000D+00
     10a 0.371010D-02  0.276310D-02  0.506444D-03  0.000000D+00
     10b 0.763734D-02 -0.760807D-03 -0.284328D-02 -0.590280D-01  0.000000D+00
 jaja non-ortho density matrix               [Gau-style] (real):
                 1             2             3             4             5 
      1a  0.482430D+00 -0.635812D-01 -0.345309D-01  0.178261D-01  0.278123D-01
      1b -0.635812D-01  0.781284D+00  0.223430D-01 -0.654114D-01  0.259487D-01
      2a -0.345309D-01  0.223430D-01  0.487341D+00 -0.651215D+00  0.440294D-02
      2b  0.178261D-01 -0.654114D-01 -0.651215D+00  0.922747D+00 -0.903986D-02
      3a  0.278123D-01  0.259487D-01  0.440294D-02 -0.903986D-02  0.410554D+00
      3b -0.144628D-01  0.562377D-01 -0.579341D-02  0.635131D-02 -0.239572D-01
      4a  0.483146D+00 -0.639127D-01 -0.345635D-01  0.178396D-01  0.245659D-01
      4b -0.635732D-01  0.782368D+00  0.223384D-01 -0.654577D-01  0.261866D-01
      5a -0.625555D-01  0.274084D-01 -0.220944D-02  0.590676D-02 -0.970745D-01
      5b  0.251497D-01 -0.858468D-01  0.323811D-02 -0.192399D-02 -0.930524D-02
      6a  0.321237D-01  0.252242D-01  0.470335D-02 -0.968984D-02  0.411476D+00
      6b -0.151308D-01  0.631070D-01 -0.638791D-02  0.690057D-02 -0.236891D-01
      7a -0.137191D+00  0.873207D-02 -0.306632D-02  0.129967D-01 -0.491387D-01
      7b  0.168911D-01 -0.219998D+00  0.632459D-02  0.915631D-03 -0.170184D-01
      8a -0.612899D-01  0.275623D-01 -0.221117D-02  0.581592D-02 -0.933744D-01
      8b  0.249118D-01 -0.837240D-01  0.322074D-02 -0.198944D-02 -0.936186D-02
      9a -0.146051D-02 -0.104361D-01  0.249529D-02 -0.306084D-02 -0.192554D-02
      9b -0.751922D-02  0.223963D-02  0.159311D-02 -0.202562D-02 -0.279388D-02
     10a -0.137418D+00  0.893019D-02 -0.307075D-02  0.130087D-01 -0.498652D-01
     10b  0.170593D-01 -0.220248D+00  0.632773D-02  0.912846D-03 -0.170548D-01
                 6             7             8             9            10 
      1a -0.144628D-01  0.483146D+00 -0.635732D-01 -0.625555D-01  0.251497D-01
      1b  0.562377D-01 -0.639127D-01  0.782368D+00  0.274084D-01 -0.858468D-01
      2a -0.579341D-02 -0.345635D-01  0.223384D-01 -0.220944D-02  0.323811D-02
      2b  0.635131D-02  0.178396D-01 -0.654577D-01  0.590676D-02 -0.192399D-02
      3a -0.239572D-01  0.245659D-01  0.261866D-01 -0.970745D-01 -0.930524D-02
      3b  0.703325D+00 -0.142933D-01  0.506896D-01  0.310298D-01 -0.168023D+00
      4a -0.142933D-01  0.483890D+00 -0.639066D-01 -0.618224D-01  0.252620D-01
      4b  0.506896D-01 -0.639066D-01  0.783499D+00  0.272023D-01 -0.845398D-01
      5a  0.310298D-01 -0.618224D-01  0.272023D-01  0.423684D+00 -0.654860D-01
      5b -0.168023D+00  0.252620D-01 -0.845398D-01 -0.654860D-01  0.695476D+00
      6a -0.243251D-01  0.288779D-01  0.254637D-01 -0.100973D+00 -0.856628D-02
      6b  0.704975D+00 -0.149648D-01  0.575584D-01  0.317731D-01 -0.174284D+00
      7a -0.143176D-01 -0.137059D+00  0.886424D-02  0.335803D-01  0.727251D-02
      7b -0.940432D-01  0.170565D-01 -0.219668D+00 -0.328625D-01  0.530501D-01
      8a  0.309612D-01 -0.605841D-01  0.273569D-01  0.422664D+00 -0.656407D-01
      8b -0.161609D+00  0.250242D-01 -0.824644D-01 -0.649921D-01  0.693754D+00
      9a -0.507642D-02 -0.145634D-02 -0.104233D-01  0.431671D-02  0.639631D-02
      9b -0.184829D-03 -0.751807D-02  0.223896D-02  0.666234D-02  0.277476D-02
     10a -0.140370D-01 -0.137281D+00  0.906041D-02  0.369066D-01  0.673273D-02
     10b -0.952818D-01  0.172253D-01 -0.219908D+00 -0.333244D-01  0.585177D-01
                11            12            13            14            15 
      1a  0.321237D-01 -0.151308D-01 -0.137191D+00  0.168911D-01 -0.612899D-01
      1b  0.252242D-01  0.631070D-01  0.873207D-02 -0.219998D+00  0.275623D-01
      2a  0.470335D-02 -0.638791D-02 -0.306632D-02  0.632459D-02 -0.221117D-02
      2b -0.968984D-02  0.690057D-02  0.129967D-01  0.915631D-03  0.581592D-02
      3a  0.411476D+00 -0.236891D-01 -0.491387D-01 -0.170184D-01 -0.933744D-01
      3b -0.243251D-01  0.704975D+00 -0.143176D-01 -0.940432D-01  0.309612D-01
      4a  0.288779D-01 -0.149648D-01 -0.137059D+00  0.170565D-01 -0.605841D-01
      4b  0.254637D-01  0.575584D-01  0.886424D-02 -0.219668D+00  0.273569D-01
      5a -0.100973D+00  0.317731D-01  0.335803D-01 -0.328625D-01  0.422664D+00
      5b -0.856628D-02 -0.174284D+00  0.727251D-02  0.530501D-01 -0.656407D-01
      6a  0.412464D+00 -0.240692D-01 -0.504199D-01 -0.166096D-01 -0.972564D-01
      6b -0.240692D-01  0.706732D+00 -0.143015D-01 -0.960779D-01  0.317068D-01
      7a -0.504199D-01 -0.143015D-01  0.476334D+00 -0.335979D-01  0.294262D-01
      7b -0.166096D-01 -0.960779D-01 -0.335979D-01  0.790721D+00 -0.327167D-01
      8a -0.972564D-01  0.317068D-01  0.294262D-01 -0.327167D-01  0.421707D+00
      8b -0.862885D-02 -0.167842D+00  0.745425D-02  0.460058D-01 -0.651481D-01
      9a -0.189937D-02 -0.515072D-02 -0.432543D-01 -0.100333D-02  0.400823D-02
      9b -0.284443D-02 -0.145761D-03 -0.152671D-01 -0.401443D-01  0.623298D-02
     10a -0.511751D-01 -0.140151D-01  0.475640D+00 -0.337802D-01  0.327523D-01
     10b -0.166409D-01 -0.973626D-01 -0.334600D-01  0.789539D+00 -0.331802D-01
                16            17            18            19            20 
      1a  0.249118D-01 -0.146051D-02 -0.751922D-02 -0.137418D+00  0.170593D-01
      1b -0.837240D-01 -0.104361D-01  0.223963D-02  0.893019D-02 -0.220248D+00
      2a  0.322074D-02  0.249529D-02  0.159311D-02 -0.307075D-02  0.632773D-02
      2b -0.198944D-02 -0.306084D-02 -0.202562D-02  0.130087D-01  0.912846D-03
      3a -0.936186D-02 -0.192554D-02 -0.279388D-02 -0.498652D-01 -0.170548D-01
      3b -0.161609D+00 -0.507642D-02 -0.184829D-03 -0.140370D-01 -0.952818D-01
      4a  0.250242D-01 -0.145634D-02 -0.751807D-02 -0.137281D+00  0.172253D-01
      4b -0.824644D-01 -0.104233D-01  0.223896D-02  0.906041D-02 -0.219908D+00
      5a -0.649921D-01  0.431671D-02  0.666234D-02  0.369066D-01 -0.333244D-01
      5b  0.693754D+00  0.639631D-02  0.277476D-02  0.673273D-02  0.585177D-01
      6a -0.862885D-02 -0.189937D-02 -0.284443D-02 -0.511751D-01 -0.166409D-01
      6b -0.167842D+00 -0.515072D-02 -0.145761D-03 -0.140151D-01 -0.973626D-01
      7a  0.745425D-02 -0.432543D-01 -0.152671D-01  0.475640D+00 -0.334600D-01
      7b  0.460058D-01 -0.100333D-02 -0.401443D-01 -0.337802D-01  0.789539D+00
      8a -0.651481D-01  0.400823D-02  0.623298D-02  0.327523D-01 -0.331802D-01
      8b  0.692141D+00  0.583467D-02  0.265308D-02  0.691807D-02  0.514733D-01
      9a  0.583467D-02  0.557664D+00  0.461232D+00 -0.432176D-01 -0.102171D-02
      9b  0.265308D-02  0.461232D+00  0.385607D+00 -0.152543D-01 -0.400997D-01
     10a  0.691807D-02 -0.432176D-01 -0.152543D-01  0.474974D+00 -0.336463D-01
     10b  0.514733D-01 -0.102171D-02 -0.400997D-01 -0.336463D-01  0.788404D+00
 jaja non-ortho density matrix               [Gau-style] (imaginary):
                 1             2             3             4             5 
      1a  0.000000D+00  0.557785D-01  0.168032D-02 -0.855120D-02  0.771246D-02
      1b -0.557785D-01  0.000000D+00  0.954792D-02 -0.308088D-02 -0.589911D-02
      2a -0.168032D-02 -0.954792D-02  0.000000D+00  0.154760D+00 -0.747763D-03
      2b  0.855120D-02  0.308088D-02 -0.154760D+00  0.000000D+00 -0.103169D-02
      3a -0.771246D-02  0.589911D-02  0.747763D-03  0.103169D-02  0.000000D+00
      3b -0.509790D-02  0.773029D-02 -0.895959D-03 -0.903207D-03 -0.553006D-01
      4a  0.648162D-04  0.558401D-01  0.167744D-02 -0.855391D-02  0.772540D-02
      4b -0.558477D-01 -0.647867D-04  0.955149D-02 -0.307948D-02 -0.546564D-02
      5a -0.416039D-03 -0.384520D-02 -0.737609D-03 -0.456001D-03 -0.768625D-02
      5b  0.391419D-02  0.401525D-03  0.130606D-03  0.964293D-03  0.137079D-01
      6a -0.770248D-02  0.636433D-02  0.766754D-03  0.114427D-02  0.120969D-03
      6b -0.556700D-02  0.772194D-02 -0.997927D-03 -0.935139D-03 -0.554462D-01
      7a  0.157927D-02 -0.155360D-01 -0.172410D-02 -0.107418D-03 -0.518401D-03
      7b  0.154174D-01 -0.159943D-02 -0.548952D-03  0.208904D-02  0.890438D-02
      8a -0.490883D-03 -0.367926D-02 -0.719159D-03 -0.465163D-03 -0.768394D-02
      8b  0.375578D-02  0.476531D-03  0.145671D-03  0.941547D-03  0.131922D-01
      9a  0.582628D-03  0.516403D-03  0.986898D-03 -0.614745D-03  0.451647D-03
      9b -0.598455D-03 -0.619061D-03  0.894481D-03 -0.738827D-03 -0.299269D-03
     10a  0.157363D-02 -0.155362D-01 -0.172673D-02 -0.108392D-03 -0.578808D-03
     10b  0.154183D-01 -0.159384D-02 -0.549299D-03  0.209272D-02  0.900268D-02
                 6             7             8             9            10 
      1a  0.509790D-02 -0.648162D-04  0.558477D-01  0.416039D-03 -0.391419D-02
      1b -0.773029D-02 -0.558401D-01  0.647867D-04  0.384520D-02 -0.401525D-03
      2a  0.895959D-03 -0.167744D-02 -0.955149D-02  0.737609D-03 -0.130606D-03
      2b  0.903207D-03  0.855391D-02  0.307948D-02  0.456001D-03 -0.964293D-03
      3a  0.553006D-01 -0.772540D-02  0.546564D-02  0.768625D-02 -0.137079D-01
      3b  0.000000D+00 -0.466321D-02  0.774334D-02  0.128926D-01 -0.768750D-02
      4a  0.466321D-02  0.000000D+00  0.559130D-01  0.355318D-03 -0.380252D-02
      4b -0.774334D-02 -0.559130D-01  0.000000D+00  0.373997D-02 -0.340774D-03
      5a -0.128926D-01 -0.355318D-03 -0.373997D-02  0.000000D+00  0.504569D-01
      5b  0.768750D-02  0.380252D-02  0.340774D-03 -0.504569D-01  0.000000D+00
      6a  0.554337D-01 -0.771639D-02  0.593066D-02  0.768714D-02 -0.141431D-01
      6b -0.121133D-03 -0.513201D-02  0.773597D-02  0.133279D-01 -0.768847D-02
      7a -0.885449D-02  0.158566D-02 -0.154951D-01 -0.764562D-02  0.386015D-02
      7b  0.521495D-03  0.153758D-01 -0.160585D-02 -0.304573D-02  0.764423D-02
      8a -0.123770D-01 -0.430303D-03 -0.357786D-02  0.123543D-03  0.503203D-01
      8b  0.768515D-02  0.364796D-02  0.415921D-03 -0.503334D-01 -0.123514D-03
      9a  0.256383D-03  0.580312D-03  0.515685D-03  0.411614D-04 -0.212198D-03
      9b -0.462751D-03 -0.597510D-03 -0.616697D-03  0.204199D-03 -0.317121D-04
     10a -0.894637D-02  0.158049D-02 -0.154945D-01 -0.763079D-02  0.425722D-02
     10b  0.581911D-03  0.153758D-01 -0.160073D-02 -0.344436D-02  0.762940D-02
                11            12            13            14            15 
      1a  0.770248D-02  0.556700D-02 -0.157927D-02 -0.154174D-01  0.490883D-03
      1b -0.636433D-02 -0.772194D-02  0.155360D-01  0.159943D-02  0.367926D-02
      2a -0.766754D-03  0.997927D-03  0.172410D-02  0.548952D-03  0.719159D-03
      2b -0.114427D-02  0.935139D-03  0.107418D-03 -0.208904D-02  0.465163D-03
      3a -0.120969D-03  0.554462D-01  0.518401D-03 -0.890438D-02  0.768394D-02
      3b -0.554337D-01  0.121133D-03  0.885449D-02 -0.521495D-03  0.123770D-01
      4a  0.771639D-02  0.513201D-02 -0.158566D-02 -0.153758D-01  0.430303D-03
      4b -0.593066D-02 -0.773597D-02  0.154951D-01  0.160585D-02  0.357786D-02
      5a -0.768714D-02 -0.133279D-01  0.764562D-02  0.304573D-02 -0.123543D-03
      5b  0.141431D-01  0.768847D-02 -0.386015D-02 -0.764423D-02 -0.503203D-01
      6a  0.000000D+00  0.555866D-01  0.443841D-03 -0.903910D-02  0.768641D-02
      6b -0.555866D-01  0.000000D+00  0.899798D-02 -0.447148D-03  0.128101D-01
      7a -0.443841D-03 -0.899798D-02  0.000000D+00  0.592115D-01 -0.765252D-02
      7b  0.903910D-02  0.447148D-03 -0.592115D-01  0.000000D+00 -0.249774D-02
      8a -0.768641D-02 -0.128101D-01  0.765252D-02  0.249774D-02  0.000000D+00
      8b  0.136253D-01  0.768768D-02 -0.331296D-02 -0.765119D-02 -0.502053D-01
      9a  0.456528D-03  0.257619D-03 -0.276908D-02  0.759704D-03  0.668982D-04
      9b -0.300711D-03 -0.467711D-03 -0.504763D-03  0.284934D-02  0.173301D-03
     10a -0.504395D-03 -0.909307D-02  0.610058D-04  0.591148D-01 -0.763867D-02
     10b  0.914062D-02  0.507710D-03 -0.591213D-01 -0.610111D-04 -0.289634D-02
                16            17            18            19            20 
      1a -0.375578D-02 -0.582628D-03  0.598455D-03 -0.157363D-02 -0.154183D-01
      1b -0.476531D-03 -0.516403D-03  0.619061D-03  0.155362D-01  0.159384D-02
      2a -0.145671D-03 -0.986898D-03 -0.894481D-03  0.172673D-02  0.549299D-03
      2b -0.941547D-03  0.614745D-03  0.738827D-03  0.108392D-03 -0.209272D-02
      3a -0.131922D-01 -0.451647D-03  0.299269D-03  0.578808D-03 -0.900268D-02
      3b -0.768515D-02 -0.256383D-03  0.462751D-03  0.894637D-02 -0.581911D-03
      4a -0.364796D-02 -0.580312D-03  0.597510D-03 -0.158049D-02 -0.153758D-01
      4b -0.415921D-03 -0.515685D-03  0.616697D-03  0.154945D-01  0.160073D-02
      5a  0.503334D-01 -0.411614D-04 -0.204199D-03  0.763079D-02  0.344436D-02
      5b  0.123514D-03  0.212198D-03  0.317121D-04 -0.425722D-02 -0.762940D-02
      6a -0.136253D-01 -0.456528D-03  0.300711D-03  0.504395D-03 -0.914062D-02
      6b -0.768768D-02 -0.257619D-03  0.467711D-03  0.909307D-02 -0.507710D-03
      7a  0.331296D-02  0.276908D-02  0.504763D-03 -0.610058D-04  0.591213D-01
      7b  0.765119D-02 -0.759704D-03 -0.284934D-02 -0.591148D-01  0.610111D-04
      8a  0.502053D-01 -0.668982D-04 -0.173301D-03  0.763867D-02  0.289634D-02
      8b  0.000000D+00  0.183723D-03  0.582095D-04 -0.371010D-02 -0.763734D-02
      9a -0.183723D-03  0.000000D+00 -0.282985D-01 -0.276310D-02  0.760807D-03
      9b -0.582095D-04  0.282985D-01  0.000000D+00 -0.506444D-03  0.284328D-02
     10a  0.371010D-02  0.276310D-02  0.506444D-03  0.000000D+00  0.590280D-01
     10b  0.763734D-02 -0.760807D-03 -0.284328D-02 -0.590280D-01  0.000000D+00
FORTRAN STOP
