 Entering Gaussian System, Link 0=gdv
 AtFile(1): H.gbs
            H     0
            S   10   1.00
               1000.000000000000            0.000068713567
                316.227766000000            0.000169141320
                100.000000000000            0.000823394812
                 31.622776600000            0.003425569236
                 10.000000000000            0.013951996000
                  3.162277660000            0.056909313560
                  1.000000000000            0.198286399900
                  0.316227766000            0.496922426700
                  0.100000000000            0.369846276400
                  0.031622776600            0.003752720039
            ****
 Initial command:
 /users/lcj1/GHF_hess/exe-dir/l1.exe "/users/lcj1/GHF_hess/h10_2rows/mixrmY/Gau-20252.inp" -scrdir="/users/lcj1/GHF_hess/h10_2rows/mixrmY/"
 Entering Link 1 = /users/lcj1/GHF_hess/exe-dir/l1.exe PID=     20253.
  
 Copyright (c) 1988,1990,1992,1993,1995,1998,2003,2009,2012,
            Gaussian, Inc.  All Rights Reserved.
  
 This is the private, development version of
 the Gaussian(R) DV system of programs. It is based on
 the Gaussian(R) 09 system (copyright 2009, Gaussian, Inc.),
 the Gaussian(R) 03 system (copyright 2003, Gaussian, Inc.),
 the Gaussian(R) 98 system (copyright 1998, Gaussian, Inc.),
 the Gaussian(R) 94 system (copyright 1995, Gaussian, Inc.),
 the Gaussian 92(TM) system (copyright 1992, Gaussian, Inc.),
 the Gaussian 90(TM) system (copyright 1990, Gaussian, Inc.),
 the Gaussian 88(TM) system (copyright 1988, Gaussian, Inc.),
 the Gaussian 86(TM) system (copyright 1986, Carnegie Mellon
 University), and the Gaussian 82(TM) system (copyright 1983,
 Carnegie Mellon University). Gaussian is a federally registered
 trademark of Gaussian, Inc.
  
 This software contains proprietary and confidential information,
 including trade secrets, belonging to Gaussian, Inc.
  
 This software is provided under written license and may be
 used, copied, transmitted, or stored only in accord with that
 written license.
  
 The following legend is applicable only to US Government
 contracts under FAR:
  
                    RESTRICTED RIGHTS LEGEND
  
 Use, reproduction and disclosure by the US Government is
 subject to restrictions as set forth in subparagraphs (a)
 and (c) of the Commercial Computer Software - Restricted
 Rights clause in FAR 52.227-19.
  
 Gaussian, Inc.
 340 Quinnipiac St., Bldg. 40, Wallingford CT 06492
  
  
 ---------------------------------------------------------------
 Warning -- This program may not be used in any manner that
 competes with the business of Gaussian, Inc. or will provide
 assistance to any competitor of Gaussian, Inc.  The licensee
 of this program is prohibited from giving any competitor of
 Gaussian, Inc. access to this program.  By using this program,
 the user acknowledges that Gaussian, Inc. is engaged in the
 business of creating and licensing software in the field of
 computational chemistry and represents and warrants to the
 licensee that it is not a competitor of Gaussian, Inc. and that
 it will not use this program in any manner prohibited above.
 ---------------------------------------------------------------
  

 Cite this work as:
 Gaussian Development Version, Revision H.21,
 M. J. Frisch, G. W. Trucks, H. B. Schlegel, G. E. Scuseria, 
 M. A. Robb, J. R. Cheeseman, G. Scalmani, V. Barone, B. Mennucci, 
 G. A. Petersson, H. Nakatsuji, M. Caricato, X. Li, H. P. Hratchian, 
 A. F. Izmaylov, J. Bloino, G. Zheng, J. L. Sonnenberg, W. Liang, 
 M. Hada, M. Ehara, K. Toyota, R. Fukuda, J. Hasegawa, M. Ishida, 
 T. Nakajima, Y. Honda, O. Kitao, H. Nakai, T. Vreven, 
 J. A. Montgomery, Jr., J. E. Peralta, F. Ogliaro, M. Bearpark, 
 J. J. Heyd, E. Brothers, K. N. Kudin, V. N. Staroverov, T. Keith, 
 R. Kobayashi, J. Normand, K. Raghavachari, A. Rendell, J. C. Burant, 
 S. S. Iyengar, J. Tomasi, M. Cossi, N. Rega, J. M. Millam, M. Klene, 
 J. E. Knox, J. B. Cross, V. Bakken, C. Adamo, J. Jaramillo, 
 R. Gomperts, R. E. Stratmann, O. Yazyev, A. J. Austin, R. Cammi, 
 C. Pomelli, J. W. Ochterski, R. L. Martin, K. Morokuma, 
 V. G. Zakrzewski, G. A. Voth, P. Salvador, J. J. Dannenberg, 
 S. Dapprich, P. V. Parandekar, N. J. Mayhall, A. D. Daniels, 
 O. Farkas, J. B. Foresman, J. V. Ortiz, J. Cioslowski, 
 and D. J. Fox, Gaussian, Inc., Wallingford CT, 2010.
 
 ******************************************
 Gaussian DV:  EM64L-GDVRevH.21 13-May-2012
                28-Feb-2017 
 ******************************************
 %chk=h10.chk
 ----------------------------------------------------------------------
 #ghf/gen scf(tight,novaracc,noincfock,fulldiag) stable guess=mix geom=
 nocrowd use=l802 use=l902 test
 ----------------------------------------------------------------------
 ********************************************
   THE COMPLEX ERI TRANSFORMATION WITH L802  
        COMPLEX STABILITY WITH L902          
 ********************************************
 1/38=1/1;
 2/12=1,17=6,18=5,40=1/2;
 3/5=7,16=1,25=20,28=1,116=7/1,2,3,20;
 4/13=-1/1;
 5/5=100001,16=1,32=2,38=1/2;
 8/6=1,10=90,11=11/1,2;
 9/8=4,13=1/1,2;
 6/7=2,8=2,9=2,10=2,28=1/1;
 99/5=1,9=1/99;
 ----------------------------------------------------------------------
 hf stability analysis of h10 triangular lattice, y= 1.6660489144325314
  alpha= 78.250000000000000
 ----------------------------------------------------------------------
 Symbolic Z-Matrix:
 Charge =  0 Multiplicity = 1
 H
 H                    1     1.70171 
 H                    1     1.70171  2     23.5 
 H                    2     1.70171  1     156.5    3     0.       0
 H                    3     1.70171  1     180.     2     0.       0
 H                    4     1.70171  2     180.     1     0.       0
 H                    5     1.70171  3     180.     2     0.       0
 H                    6     1.70171  4     180.     1     0.       0
 H                    7     1.70171  5     180.     2     0.       0
 H                    8     1.70171  6     180.     1     0.       0
 
                          Input orientation:                          
 ---------------------------------------------------------------------
 Center     Atomic      Atomic             Coordinates (Angstroms)
 Number     Number       Type             X           Y           Z
 ---------------------------------------------------------------------
      1          1           0        0.000000    0.000000    0.000000
      2          1           0        0.000000    0.000000    1.701707
      3          1           0        0.678554    0.000000    1.560568
      4          1           0        0.678554    0.000000    3.262275
      5          1           0        1.357108    0.000000    3.121136
      6          1           0        1.357108    0.000000    4.822843
      7          1           0        2.035663    0.000000    4.681704
      8          1           0        2.035663    0.000000    6.383411
      9          1           0        2.714217    0.000000    6.242272
     10          1           0        2.714217    0.000000    7.943979
 ---------------------------------------------------------------------
                    Distance matrix (angstroms):
                    1          2          3          4          5
     1  H    0.000000
     2  H    1.701707   0.000000
     3  H    1.701707   0.693077   0.000000
     4  H    3.332098   1.701707   1.701707   0.000000
     5  H    3.403415   1.963803   1.701707   0.693077   0.000000
     6  H    5.010146   3.403415   3.332098   1.701707   1.701707
     7  H    5.105122   3.608920   3.403415   1.963803   1.701707
     8  H    6.700139   5.105122   5.010146   3.403415   3.332098
     9  H    6.806830   5.289962   5.105122   3.608920   3.403415
    10  H    8.394866   6.806830   6.700139   5.105122   5.010146
                    6          7          8          9         10
     6  H    0.000000
     7  H    0.693077   0.000000
     8  H    1.701707   1.701707   0.000000
     9  H    1.963803   1.701707   0.693077   0.000000
    10  H    3.403415   3.332098   1.701707   1.701707   0.000000
 Stoichiometry    H10
 Framework group  C2H[SGH(H10)]
 Deg. of freedom     9
 Full point group                 C2H     NOp   4
 Largest Abelian subgroup         C2H     NOp   4
 Largest concise Abelian subgroup C2      NOp   2
                         Standard orientation:                         
 ---------------------------------------------------------------------
 Center     Atomic      Atomic             Coordinates (Angstroms)
 Number     Number       Type             X           Y           Z
 ---------------------------------------------------------------------
      1          1           0        1.357108    3.971989    0.000000
      2          1           0        1.357108    2.270282    0.000000
      3          1           0        0.678554    2.411422    0.000000
      4          1           0        0.678554    0.709714    0.000000
      5          1           0        0.000000    0.850854    0.000000
      6          1           0        0.000000   -0.850854    0.000000
      7          1           0       -0.678554   -0.709714    0.000000
      8          1           0       -0.678554   -2.411422    0.000000
      9          1           0       -1.357108   -2.270282    0.000000
     10          1           0       -1.357108   -3.971989    0.000000
 ---------------------------------------------------------------------
 Rotational constants (GHZ):    482.2684789      7.8210731      7.6962608
 General basis read from cards:  (5D, 7F)
 There are     5 symmetry adapted cartesian basis functions of AG  symmetry.
 There are     0 symmetry adapted cartesian basis functions of BG  symmetry.
 There are     0 symmetry adapted cartesian basis functions of AU  symmetry.
 There are     5 symmetry adapted cartesian basis functions of BU  symmetry.
 There are     5 symmetry adapted basis functions of AG  symmetry.
 There are     0 symmetry adapted basis functions of BG  symmetry.
 There are     0 symmetry adapted basis functions of AU  symmetry.
 There are     5 symmetry adapted basis functions of BU  symmetry.
    10 basis functions,   100 primitive gaussians,    10 cartesian basis functions
     5 alpha electrons        5 beta electrons
       nuclear repulsion energy        10.9744752228 Hartrees.
 NAtoms=   10 NActive=   10 NUniq=    5 SFac= 4.00D+00 NAtFMM=   60 NAOKFM=F Big=F
 Integral buffers will be    131072 words long.
 Regular integral format.
 Two-electron integral symmetry is turned off.
 One-electron integrals computed using PRISM.
 NBasis=    10 RedAO= T EigKep=  1.59D-01  NBF=     5     0     0     5
 NBsUse=    10 1.00D-06 EigRej= -1.00D+00 NBFU=     5     0     0     5
 IOp(28)                       1
                        1                       0
                        2                       1
                        3                       1
                        4                      20
                        5                       0
                        6                       0
                        7                      10
                        8                       1
                        9                       4
                       10                       0
                       11              1073741824
                       12                      20
                       13                       2
                       14                  131070
                       15                       1
                       16                       1
                       17                  131073
                       18                       0
                       19                       0
                       20                       0
                       21                       2
                       22                  131070
                       23                       0
                       24                       0
                       25                       0
                       26                       0
                       27                   65535
                       28                       2
                       29                  131072
                       30                       0
 IHMeth                       1
 ib3: ISMode =                        0                       4
 Enter DskPsm, NBasis=  10 NBas6D=  10 NShell=  10 IDoSP=4.
 Out2e will use a cutoff of  1.00D-10
 FoFCou: FMM=F IPFlag=           0 FMFlag=           0 FMFlg1=           0
         NFxFlg=           0 DoJE=F BraDBF=F KetDBF=F FulRan=T
         wScrn=  0.000000 ICntrl=     600 IOpCl=  9 I1Cent=           0 NGrid=           0
         NMat0=    0 NMatS0=      0 NMatT0=    0 NMatD0=    0 NMtDS0=    0 NMtDT0=    0
 Symmetry not used in FoFCou.
 Entering PrmDigJobTyp =                      20
 LenSav and NKeep                       0                       0
 Entered Stor2E with KNTT1,2                       2                  131070
 Leave Stor2X
 Entering PrmDigJobTyp =                      20
 LenSav and NKeep                       0                       0
 Entered Stor2E with KNTT1,2                       2                  131056
 Leave Stor2X
 Entering PrmDigJobTyp =                      20
 LenSav and NKeep                       0                       0
 Entered Stor2E with KNTT1,2                       2                  131042
 Leave Stor2X
 Entering PrmDigJobTyp =                      20
 LenSav and NKeep                       0                       0
 Entered Stor2E with KNTT1,2                       2                  131028
 Leave Stor2X
 Entering PrmDigJobTyp =                      20
 LenSav and NKeep                       0                       0
 Entered Stor2E with KNTT1,2                       2                  131014
 Leave Stor2X
 Entering PrmDigJobTyp =                      20
 LenSav and NKeep                       0                       0
 Entered Stor2E with KNTT1,2                       2                  131000
 Leave Stor2X
 Entering PrmDigJobTyp =                      20
 LenSav and NKeep                       0                       0
 Entered Stor2E with KNTT1,2                       2                  130986
 Leave Stor2X
 Entering PrmDigJobTyp =                      20
 LenSav and NKeep                       0                       0
 Entered Stor2E with KNTT1,2                       2                  130972
 Leave Stor2X
 Entering PrmDigJobTyp =                      20
 LenSav and NKeep                       0                       0
 Entered Stor2E with KNTT1,2                       2                  130960
 Leave Stor2X
 Entering PrmDigJobTyp =                      20
 LenSav and NKeep                       0                       0
 Entered Stor2E with KNTT1,2                       2                  130944
 Leave Stor2X
 Entering PrmDigJobTyp =                      20
 LenSav and NKeep                       0                       0
 Entered Stor2E with KNTT1,2                       2                  130928
 Leave Stor2X
 Entering PrmDigJobTyp =                      20
 LenSav and NKeep                       0                       0
 Entered Stor2E with KNTT1,2                       2                  130912
 Leave Stor2X
 Entering PrmDigJobTyp =                      20
 LenSav and NKeep                       0                       0
 Entered Stor2E with KNTT1,2                       2                  130896
 Leave Stor2X
 Entering PrmDigJobTyp =                      20
 LenSav and NKeep                       0                       0
 Entered Stor2E with KNTT1,2                       2                  130880
 Leave Stor2X
 Entering PrmDigJobTyp =                      20
 LenSav and NKeep                       0                       0
 Entered Stor2E with KNTT1,2                       2                  130864
 Leave Stor2X
 Entering PrmDigJobTyp =                      20
 LenSav and NKeep                       0                       0
 Entered Stor2E with KNTT1,2                       2                  130848
 Leave Stor2X
 Entering PrmDigJobTyp =                      20
 LenSav and NKeep                       0                       0
 Entered Stor2E with KNTT1,2                       2                  130832
 Leave Stor2X
 Entering PrmDigJobTyp =                      20
 LenSav and NKeep                       0                       0
 Entered Stor2E with KNTT1,2                       2                  130816
 Leave Stor2X
 Entering PrmDigJobTyp =                      20
 LenSav and NKeep                       0                       0
 Entered Stor2E with KNTT1,2                       2                  130800
 Leave Stor2X
 Entering PrmDigJobTyp =                      20
 LenSav and NKeep                       0                       0
 Entered Stor2E with KNTT1,2                       2                  130784
 Leave Stor2X
 Entering PrmDigJobTyp =                      20
 LenSav and NKeep                       0                       0
 Entered Stor2E with KNTT1,2                       2                  130768
 Leave Stor2X
 Entering PrmDigJobTyp =                      20
 LenSav and NKeep                       0                       0
 Entered Stor2E with KNTT1,2                       2                  130752
 Leave Stor2X
 Entering PrmDigJobTyp =                      20
 LenSav and NKeep                       0                       0
 Entered Stor2E with KNTT1,2                       2                  130736
 Leave Stor2X
 Entering PrmDigJobTyp =                      20
 LenSav and NKeep                       0                       0
 Entered Stor2E with KNTT1,2                       2                  130720
 Leave Stor2X
 Entering PrmDigJobTyp =                      20
 LenSav and NKeep                       0                       0
 Entered Stor2E with KNTT1,2                       2                  130704
 Leave Stor2X
 Entering PrmDigJobTyp =                      20
 LenSav and NKeep                       0                       0
 Entered Stor2E with KNTT1,2                       2                  130688
 Leave Stor2X
 Entering PrmDigJobTyp =                      20
 LenSav and NKeep                       0                       0
 Entered Stor2E with KNTT1,2                       2                  130672
 Leave Stor2X
 Entering PrmDigJobTyp =                      20
 LenSav and NKeep                       0                       0
 Entered Stor2E with KNTT1,2                       2                  130656
 Leave Stor2X
 Entering PrmDigJobTyp =                      20
 LenSav and NKeep                       0                       0
 Entered Stor2E with KNTT1,2                       2                  130640
 Leave Stor2X
 Entering PrmDigJobTyp =                      20
 LenSav and NKeep                       0                       0
 Entered Stor2E with KNTT1,2                       8                  130620
 Leave Stor2X
 Entering PrmDigJobTyp =                      20
 LenSav and NKeep                       0                       0
 Entered Stor2E with KNTT1,2                      20                  130606
 Leave Stor2X
 Entering PrmDigJobTyp =                      20
 LenSav and NKeep                       0                       0
 Entered Stor2E with KNTT1,2                      34                  130594
 Leave Stor2X
 Entering PrmDigJobTyp =                      20
 LenSav and NKeep                       0                       0
 Entered Stor2E with KNTT1,2                      50                  130584
 Leave Stor2X
 Entering PrmDigJobTyp =                      20
 LenSav and NKeep                       0                       0
 Entered Stor2E with KNTT1,2                      66                  130574
 Leave Stor2X
 Entering PrmDigJobTyp =                      20
 LenSav and NKeep                       0                       0
 Entered Stor2E with KNTT1,2                      82                  130564
 Leave Stor2X
 Entering PrmDigJobTyp =                      20
 LenSav and NKeep                       0                       0
 Entered Stor2E with KNTT1,2                     100                  130556
 Leave Stor2X
 Entering PrmDigJobTyp =                      20
 LenSav and NKeep                       0                       0
 Entered Stor2E with KNTT1,2                     118                  130548
 Leave Stor2X
 Entering PrmDigJobTyp =                      20
 LenSav and NKeep                       0                       0
 Entered Stor2E with KNTT1,2                     138                  130542
 Leave Stor2X
 Entering PrmDigJobTyp =                      20
 LenSav and NKeep                       0                       0
 Entered Stor2E with KNTT1,2                     162                  130540
 Leave Stor2X
 Entering PrmDigJobTyp =                      20
 LenSav and NKeep                       0                       0
 Entered Stor2E with KNTT1,2                     166                  130532
 Leave Stor2X
 Entering PrmDigJobTyp =                      20
 LenSav and NKeep                       0                       0
 Entered Stor2E with KNTT1,2                     166                  130518
 Leave Stor2X
 Entering PrmDigJobTyp =                      20
 LenSav and NKeep                       0                       0
 Entered Stor2E with KNTT1,2                     166                  130504
 Leave Stor2X
 Entering PrmDigJobTyp =                      20
 LenSav and NKeep                       0                       0
 Entered Stor2E with KNTT1,2                     166                  130490
 Leave Stor2X
 Entering PrmDigJobTyp =                      20
 LenSav and NKeep                       0                       0
 Entered Stor2E with KNTT1,2                     166                  130476
 Leave Stor2X
 Entering PrmDigJobTyp =                      20
 LenSav and NKeep                       0                       0
 Entered Stor2E with KNTT1,2                     166                  130462
 Leave Stor2X
 Entering PrmDigJobTyp =                      20
 LenSav and NKeep                       0                       0
 Entered Stor2E with KNTT1,2                     166                  130452
 Leave Stor2X
 Entering PrmDigJobTyp =                      20
 LenSav and NKeep                       0                       0
 Entered Stor2E with KNTT1,2                     174                  130440
 Leave Stor2X
 Entering PrmDigJobTyp =                      20
 LenSav and NKeep                       0                       0
 Entered Stor2E with KNTT1,2                     190                  130436
 Leave Stor2X
 Entering PrmDigJobTyp =                      20
 LenSav and NKeep                       0                       0
 Entered Stor2E with KNTT1,2                     198                  130424
 Leave Stor2X
 Entering PrmDigJobTyp =                      20
 LenSav and NKeep                       0                       0
 Entered Stor2E with KNTT1,2                     214                  130420
 Leave Stor2X
 Entering PrmDigJobTyp =                      20
 LenSav and NKeep                       0                       0
 Entered Stor2E with KNTT1,2                     222                  130408
 Leave Stor2X
 Entering PrmDigJobTyp =                      20
 LenSav and NKeep                       0                       0
 Entered Stor2E with KNTT1,2                     238                  130404
 Leave Stor2X
 Entering PrmDigJobTyp =                      20
 LenSav and NKeep                       0                       0
 Entered Stor2E with KNTT1,2                     238                  130396
 Leave Stor2X
 Entering PrmDigJobTyp =                      20
 LenSav and NKeep                       0                       0
 Entered Stor2E with KNTT1,2                     248                  130390
 Leave Stor2X
 Entering PrmDigJobTyp =                      20
 LenSav and NKeep                       0                       0
 Entered Stor2E with KNTT1,2                     250                  130388
 Leave Stor2X
 Entering PrmDigJobTyp =                      20
 LenSav and NKeep                       0                       0
 Entered Stor2E with KNTT1,2                     250                  130366
 Leave Stor2X
 Entering PrmDigJobTyp =                      20
 LenSav and NKeep                       0                       0
 Entered Stor2E with KNTT1,2                     250                  130344
 Leave Stor2X
 Entering PrmDigJobTyp =                      20
 LenSav and NKeep                       0                       0
 Entered Stor2E with KNTT1,2                     250                  130322
 Leave Stor2X
 Entering PrmDigJobTyp =                      20
 LenSav and NKeep                       0                       0
 Entered Stor2E with KNTT1,2                     250                  130300
 Leave Stor2X
 Entering PrmDigJobTyp =                      20
 LenSav and NKeep                       0                       0
 Entered Stor2E with KNTT1,2                     250                  130278
 Leave Stor2X
 Entering PrmDigJobTyp =                      20
 LenSav and NKeep                       0                       0
 Entered Stor2E with KNTT1,2                     250                  130256
 Leave Stor2X
 Entering PrmDigJobTyp =                      20
 LenSav and NKeep                       0                       0
 Entered Stor2E with KNTT1,2                     250                  130234
 Leave Stor2X
 Entering PrmDigJobTyp =                      20
 LenSav and NKeep                       0                       0
 Entered Stor2E with KNTT1,2                     250                  130212
 Leave Stor2X
 Entering PrmDigJobTyp =                      20
 LenSav and NKeep                       0                       0
 Entered Stor2E with KNTT1,2                     250                  130190
 Leave Stor2X
 Entering PrmDigJobTyp =                      20
 LenSav and NKeep                       0                       0
 Entered Stor2E with KNTT1,2                     250                  130168
 Leave Stor2X
 Entering PrmDigJobTyp =                      20
 LenSav and NKeep                       0                       0
 Entered Stor2E with KNTT1,2                     250                  130148
 Leave Stor2X
 Entering PrmDigJobTyp =                      20
 LenSav and NKeep                       0                       0
 Entered Stor2E with KNTT1,2                     270                  130134
 Leave Stor2X
 Entering PrmDigJobTyp =                      20
 LenSav and NKeep                       0                       0
 Entered Stor2E with KNTT1,2                     292                  130122
 Leave Stor2X
 Entering PrmDigJobTyp =                      20
 LenSav and NKeep                       0                       0
 Entered Stor2E with KNTT1,2                     312                  130108
 Leave Stor2X
 Entering PrmDigJobTyp =                      20
 LenSav and NKeep                       0                       0
 Entered Stor2E with KNTT1,2                     330                  130092
 Leave Stor2X
 Entering PrmDigJobTyp =                      20
 LenSav and NKeep                       0                       0
 Entered Stor2E with KNTT1,2                     350                  130078
 Leave Stor2X
 Entering PrmDigJobTyp =                      20
 LenSav and NKeep                       0                       0
 Entered Stor2E with KNTT1,2                     370                  130064
 Leave Stor2X
 Entering PrmDigJobTyp =                      20
 LenSav and NKeep                       0                       0
 Entered Stor2E with KNTT1,2                     390                  130050
 Leave Stor2X
 Entering PrmDigJobTyp =                      20
 LenSav and NKeep                       0                       0
 Entered Stor2E with KNTT1,2                     408                  130034
 Leave Stor2X
 Entering PrmDigJobTyp =                      20
 LenSav and NKeep                       0                       0
 Entered Stor2E with KNTT1,2                     428                  130020
 Leave Stor2X
 Entering PrmDigJobTyp =                      20
 LenSav and NKeep                       0                       0
 Entered Stor2E with KNTT1,2                     450                  130008
 Leave Stor2X
 Entering PrmDigJobTyp =                      20
 LenSav and NKeep                       0                       0
 Entered Stor2E with KNTT1,2                     472                  129996
 Leave Stor2X
 Entering PrmDigJobTyp =                      20
 LenSav and NKeep                       0                       0
 Entered Stor2E with KNTT1,2                     474                  129988
 Leave Stor2X
 Entering PrmDigJobTyp =                      20
 LenSav and NKeep                       0                       0
 Entered Stor2E with KNTT1,2                     490                  129978
 Leave Stor2X
 Entering PrmDigJobTyp =                      20
 LenSav and NKeep                       0                       0
 Entered Stor2E with KNTT1,2                     504                  129966
 Leave Stor2X
 Entering PrmDigJobTyp =                      20
 LenSav and NKeep                       0                       0
 Entered Stor2E with KNTT1,2                     518                  129954
 Leave Stor2X
 Entering PrmDigJobTyp =                      20
 LenSav and NKeep                       0                       0
 Entered Stor2E with KNTT1,2                     530                  129948
 Leave Stor2X
 Entering PrmDigJobTyp =                      20
 LenSav and NKeep                       0                       0
 Entered Stor2E with KNTT1,2                     550                  129926
 Leave Stor2X
 Entering PrmDigJobTyp =                      20
 LenSav and NKeep                       0                       0
 Entered Stor2E with KNTT1,2                     580                  129914
 Leave Stor2X
 Entering PrmDigJobTyp =                      20
 LenSav and NKeep                       0                       0
 Entered Stor2E with KNTT1,2                     606                  129898
 Leave Stor2X
 Entering PrmDigJobTyp =                      20
 LenSav and NKeep                       0                       0
 Entered Stor2E with KNTT1,2                     626                  129888
 Leave Stor2X
 Entering PrmDigJobTyp =                      20
 LenSav and NKeep                       0                       0
 Entered Stor2E with KNTT1,2                     626                  129860
 Leave Stor2X
 Entering PrmDigJobTyp =                      20
 LenSav and NKeep                       0                       0
 Entered Stor2E with KNTT1,2                     626                  129832
 Leave Stor2X
 Entering PrmDigJobTyp =                      20
 LenSav and NKeep                       0                       0
 Entered Stor2E with KNTT1,2                     626                  129804
 Leave Stor2X
 Entering PrmDigJobTyp =                      20
 LenSav and NKeep                       0                       0
 Entered Stor2E with KNTT1,2                     626                  129776
 Leave Stor2X
 Entering PrmDigJobTyp =                      20
 LenSav and NKeep                       0                       0
 Entered Stor2E with KNTT1,2                     626                  129748
 Leave Stor2X
 Entering PrmDigJobTyp =                      20
 LenSav and NKeep                       0                       0
 Entered Stor2E with KNTT1,2                     652                  129732
 Leave Stor2X
 Entering PrmDigJobTyp =                      20
 LenSav and NKeep                       0                       0
 Entered Stor2E with KNTT1,2                     680                  129718
 Leave Stor2X
 Entering PrmDigJobTyp =                      20
 LenSav and NKeep                       0                       0
 Entered Stor2E with KNTT1,2                     704                  129700
 Leave Stor2X
 Entering PrmDigJobTyp =                      20
 LenSav and NKeep                       0                       0
 Entered Stor2E with KNTT1,2                     730                  129684
 Leave Stor2X
 Entering PrmDigJobTyp =                      20
 LenSav and NKeep                       0                       0
 Entered Stor2E with KNTT1,2                     758                  129670
 Leave Stor2X
 Entering PrmDigJobTyp =                      20
 LenSav and NKeep                       0                       0
 Entered Stor2E with KNTT1,2                     766                  129664
 Leave Stor2X
 Entering PrmDigJobTyp =                      20
 LenSav and NKeep                       0                       0
 Entered Stor2E with KNTT1,2                     786                  129652
 Leave Stor2X
 Entering PrmDigJobTyp =                      20
 LenSav and NKeep                       0                       0
 Entered Stor2E with KNTT1,2                     802                  129644
 Leave Stor2X
 Entering PrmDigJobTyp =                      20
 LenSav and NKeep                       0                       0
 Entered Stor2E with KNTT1,2                     834                  129622
 Leave Stor2X
 Entering PrmDigJobTyp =                      20
 LenSav and NKeep                       0                       0
 Entered Stor2E with KNTT1,2                     870                  129604
 Leave Stor2X
 Entering PrmDigJobTyp =                      20
 LenSav and NKeep                       0                       0
 Entered Stor2E with KNTT1,2                     906                  129586
 Leave Stor2X
 Entering PrmDigJobTyp =                      20
 LenSav and NKeep                       0                       0
 Entered Stor2E with KNTT1,2                     906                  129580
 Leave Stor2X
 Entering PrmDigJobTyp =                      20
 LenSav and NKeep                       0                       0
 Entered Stor2E with KNTT1,2                     940                  129558
 Leave Stor2X
 Entering PrmDigJobTyp =                      20
 LenSav and NKeep                       0                       0
 Entered Stor2E with KNTT1,2                     940                  129528
 Leave Stor2X
 Entering PrmDigJobTyp =                      20
 LenSav and NKeep                       0                       0
 Entered Stor2E with KNTT1,2                     940                  129498
 Leave Stor2X
 Entering PrmDigJobTyp =                      20
 LenSav and NKeep                       0                       0
 Entered Stor2E with KNTT1,2                     940                  129478
 Leave Stor2X
 Entering PrmDigJobTyp =                      20
 LenSav and NKeep                       0                       0
 Entered Stor2E with KNTT1,2                     974                  129464
 Leave Stor2X
 Entering PrmDigJobTyp =                      20
 LenSav and NKeep                       0                       0
 Entered Stor2E with KNTT1,2                    1006                  129448
 Leave Stor2X
 Entering PrmDigJobTyp =                      20
 LenSav and NKeep                       0                       0
 Entered Stor2E with KNTT1,2                    1028                  129438
 Leave Stor2X
 Entering PrmDigJobTyp =                      20
 LenSav and NKeep                       0                       0
 Entered Stor2E with KNTT1,2                    1052                  129430
 Leave Stor2X
 Entering PrmDigJobTyp =                      20
 LenSav and NKeep                       0                       0
 Entered Stor2E with KNTT1,2                    1092                  129410
 Leave Stor2X
 Entering PrmDigJobTyp =                      20
 LenSav and NKeep                       0                       0
 Entered Stor2E with KNTT1,2                    1116                  129398
 Leave Stor2X
 Entering PrmDigJobTyp =                      20
 LenSav and NKeep                       0                       0
 Entered Stor2E with KNTT1,2                    1144                  129370
 Leave Stor2X
 Entering PrmDigJobTyp =                      20
 LenSav and NKeep                       0                       0
 Entered Stor2E with KNTT1,2                    1152                  129358
 Leave Stor2X
 Entering PrmDigJobTyp =                      20
 LenSav and NKeep                       0                       0
 Entered Stor2E with KNTT1,2                    1152                  129338
 Leave Stor2X
 Entering PrmDigJobTyp =                      20
 LenSav and NKeep                       0                       0
 Entered Stor2E with KNTT1,2                    1172                  129326
 Leave Stor2X
 Entering PrmDigJobTyp =                      20
 LenSav and NKeep                       0                       0
 Entered Stor2E with KNTT1,2                    1176                  129322
 Leave Stor2X
 Entering PrmDigJobTyp =                      20
 LenSav and NKeep                       0                       0
 Entered Stor2E with KNTT1,2                    1192                  129314
 Leave Stor2X
 Entering PrmDigJobTyp =                      20
 LenSav and NKeep                       0                       0
 Entered Stor2E with KNTT1,2                    1202                  129310
 Leave Stor2X
 Entering PrmDigJobTyp =                      20
 LenSav and NKeep                       0                       0
 Entered Stor2E with KNTT1,2                    1206                  129306
 Leave Stor2X
 Entering PrmDigJobTyp =                      20
 LenSav and NKeep                       0                       0
 Entered Stor2E with KNTT1,2                    1206                  129304
 Leave Stor2X
 Entering PrmDigJobTyp =                      20
 LenSav and NKeep                       0                       0
 Entered Stor2E with KNTT1,2                    1206                  129284
 Leave Stor2X
 Entering PrmDigJobTyp =                      20
 LenSav and NKeep                       0                       0
 Entered Stor2E with KNTT1,2                    1230                  129276
 Leave Stor2X
 Entering PrmDigJobTyp =                      20
 LenSav and NKeep                       0                       0
 Entered Stor2E with KNTT1,2                    1238                  129276
 Leave Stor2X
 Entering PrmDigJobTyp =                      20
 LenSav and NKeep                       0                       0
 Entered Stor2E with KNTT1,2                    1254                  129268
 Leave Stor2X
 Entering PrmDigJobTyp =                      20
 LenSav and NKeep                       0                       0
 Entered Stor2E with KNTT1,2                    1260                  129260
 Leave Stor2X
 Entering PrmDigJobTyp =                      20
 LenSav and NKeep                       0                       0
 Entered Stor2E with KNTT1,2                    1260                  129252
 Leave Stor2X
 Entering PrmDigJobTyp =                      20
 LenSav and NKeep                       0                       0
 Entered Stor2E with KNTT1,2                    1262                  129252
 Leave Stor2X
 In PrSumR
 Called IWRITE
         1539 integrals produced for a total of         1539.
 ExpMin= 3.16D-02 ExpMax= 1.00D+03 ExpMxC= 1.00D+01 IAcc=3 IRadAn=         5 AccDes= 0.00D+00
 Harris functional with IExCor=  205 and IRadAn=       5 diagonalized for initial guess.
 HarFok:  IExCor=  205 AccDes= 0.00D+00 IRadAn=         5 IDoV= 1 UseB2=F ITyADJ=14
 ICtDFT=  3500011 ScaDFX=  1.000000  1.000000  1.000000  1.000000
 FoFCou: FMM=F IPFlag=           0 FMFlag=      100000 FMFlg1=           0
         NFxFlg=           0 DoJE=T BraDBF=F KetDBF=T FulRan=T
         wScrn=  0.000000 ICntrl=     500 IOpCl=  0 I1Cent=   200000004 NGrid=           0
         NMat0=    1 NMatS0=      1 NMatT0=    0 NMatD0=    1 NMtDS0=    0 NMtDT0=    0
 Petite list used in FoFCou.
 Mixing orbitals, IMix= 3 IMixAn=  0 NRI=2 NE=   10 Coef=  7.07106781D-01  7.07106781D-01
 Also mixing orbitals    10 and    12 Coef=  3.82683432D-01  9.23879533D-01
 Initial guess <Sx>= 0.0000 <Sy>=-0.2500 <Sz>= 0.4268 <S**2>= 1.0000 S= 0.6180
 Two-electron integrals will be kept in memory, NGetB=      152788.
 Requested convergence on RMS density matrix=1.00D-08 within 128 cycles.
 Requested convergence on MAX density matrix=1.00D-06.
 Requested convergence on             energy=1.00D-06.
 No special actions if energy rises.
 ************************************************
 *READING THE YAODEN.PDM FILE TO GET NEW DENSITY*
 ************************************************
 EnCoef did   100 forward-backward iterations
 EnCoef did   100 forward-backward iterations
 EnCoef did   100 forward-backward iterations
 Rare condition: small coef for last iteration:  0.544D-15
 EnCoef did   100 forward-backward iterations
 Rare condition: small coef for last iteration:  0.000D+00
 EnCoef did   100 forward-backward iterations
 Rare condition: small coef for last iteration:  0.000D+00
 SCF Done:  E(GHF) =  -5.19745540132     A.U. after   70 cycles
            NFock= 70  Conv=0.84D-08     -V/T= 2.0224
 <Sx>=-0.0501 <Sy>=-0.0252 <Sz>=-0.0116 <S**2>= 1.0033 S= 0.6195
 <L.S>= 0.000000000000E+00
 Range of M.O.s used for correlation:     1    10
 NBasis=    10 NAE=    10 NBE=     0 NFC=     0 NFV=     0
 NROrb=     20 NOA=    10 NOB=     0 NVA=    10 NVB=     0
 jaja DoHack is true or false? T
 jaja in hckghf.F, NBasis=                      10
 jaja in hckGHF/FixOG, LC =                      800
 jaja in hckGHF/FixOG, IRwC=                      548
 bfr conversion (real):
                 1             2             3             4             5 
      1a  0.203638D-02  0.109729D-01  0.226824D-02 -0.270237D-01  0.397244D-03
      1b  0.254577D-01  0.284209D-01  0.588699D-01 -0.642675D-01  0.118485D+00
      2a -0.667710D-01  0.112684D+00 -0.141325D+00 -0.210541D+00 -0.191405D+00
      2b  0.129438D+00  0.106282D+00  0.220504D+00 -0.165507D+00  0.238278D+00
      3a -0.707390D-01  0.118400D+00 -0.147820D+00 -0.218565D+00 -0.194309D+00
      3b  0.135148D+00  0.110458D+00  0.227373D+00 -0.169574D+00  0.237385D+00
      4a -0.129039D+00  0.189939D+00 -0.131231D+00 -0.150386D+00  0.632143D-01
      4b  0.195339D+00  0.145564D+00  0.120707D+00 -0.606955D-01 -0.183318D+00
      5a -0.129242D+00  0.190294D+00 -0.127147D+00 -0.143865D+00  0.724627D-01
      5b  0.195821D+00  0.145947D+00  0.113718D+00 -0.551431D-01 -0.194476D+00
      6a -0.145245D+00  0.196682D+00  0.545151D-01  0.115027D+00  0.169586D+00
      6b  0.189618D+00  0.129494D+00 -0.142168D+00  0.128299D+00 -0.153847D+00
      7a -0.144822D+00  0.196248D+00  0.599724D-01  0.122122D+00  0.162654D+00
      7b  0.189222D+00  0.129316D+00 -0.148618D+00  0.132396D+00 -0.141720D+00
      8a -0.110715D+00  0.134330D+00  0.169101D+00  0.227627D+00 -0.148829D+00
      8b  0.119653D+00  0.694307D-01 -0.219037D+00  0.146584D+00  0.256410D+00
      9a -0.106593D+00  0.128549D+00  0.165140D+00  0.220601D+00 -0.151386D+00
      9b  0.114003D+00  0.654224D-01 -0.211176D+00  0.139988D+00  0.255019D+00
     10a -0.295707D-01  0.235127D-01  0.666821D-01  0.548292D-01 -0.127802D+00
     10b  0.132065D-01 -0.387479D-02 -0.318623D-01 -0.626903D-02  0.648573D-01
                 6             7             8             9            10 
      1a  0.568700D-01 -0.827735D-02 -0.968852D-01  0.176412D+00  0.188304D+00
      1b  0.123698D+00  0.189462D+00 -0.193507D+00  0.556119D+00  0.552497D+00
      2a  0.257216D+00 -0.176547D+00 -0.192751D+00 -0.103813D+00 -0.374575D-01
      2b  0.154558D+00  0.135028D+00 -0.536675D-01 -0.207129D+00 -0.219206D+00
      3a  0.258737D+00 -0.169178D+00 -0.181805D+00 -0.972000D-01 -0.388889D-01
      3b  0.152101D+00  0.123843D+00 -0.455858D-01 -0.200221D+00 -0.210632D+00
      4a -0.141208D+00  0.249659D+00  0.332844D+00  0.114832D+00 -0.316496D-01
      4b -0.162952D+00 -0.310303D+00  0.200814D+00  0.109041D+00  0.137891D+00
      5a -0.153373D+00  0.247294D+00  0.326427D+00  0.112264D+00 -0.217358D-01
      5b -0.169947D+00 -0.301526D+00  0.192555D+00  0.121631D+00  0.147944D+00
      6a -0.194070D+00 -0.190593D+00 -0.303579D+00 -0.151898D+00  0.102675D+00
      6b -0.720336D-01  0.324836D+00 -0.248288D+00 -0.445629D-01 -0.966606D-01
      7a -0.182858D+00 -0.198816D+00 -0.312397D+00 -0.143426D+00  0.898594D-01
      7b -0.627471D-01  0.331205D+00 -0.250690D+00 -0.534394D-01 -0.101009D+00
      8a  0.240622D+00  0.408567D-01  0.129794D+00  0.205271D+00 -0.181975D+00
      8b  0.195683D+00 -0.176595D+00  0.172454D+00 -0.992503D-02  0.706907D-01
      9a  0.241368D+00  0.489258D-01  0.141009D+00  0.214019D+00 -0.187837D+00
      9b  0.192686D+00 -0.187492D+00  0.179880D+00 -0.716932D-02  0.764569D-01
     10a  0.111080D+00  0.201186D+00  0.176982D+00 -0.522325D+00  0.521560D+00
     10b -0.672679D-02 -0.110159D+00 -0.186972D-02  0.116518D+00 -0.102720D+00
                11            12            13            14            15 
      1a  0.606521D+00  0.606926D+00  0.272514D-01  0.294871D-01  0.183671D-01
      1b -0.201793D+00 -0.197544D+00 -0.209795D-01  0.932463D-02 -0.160180D-01
      2a -0.130050D+00 -0.132678D+00  0.260176D+00  0.369649D+00  0.475862D+00
      2b  0.497483D-01  0.367001D-01 -0.378747D+00  0.282474D+00 -0.664064D+00
      3a -0.101025D+00 -0.100486D+00 -0.292549D+00 -0.412153D+00 -0.507169D+00
      3b  0.320570D-01  0.342652D-01  0.418828D+00 -0.309975D+00  0.703759D+00
      4a -0.118521D-02  0.165190D-02  0.432418D+00  0.601625D+00  0.318001D+00
      4b -0.685016D-02  0.670274D-02 -0.604830D+00  0.442301D+00 -0.413762D+00
      5a  0.636557D-01  0.688110D-01 -0.433589D+00 -0.602848D+00 -0.280344D+00
      5b -0.341699D-01 -0.939886D-02  0.605855D+00 -0.442756D+00  0.360455D+00
      6a -0.626935D-04 -0.262425D-01  0.442560D+00  0.606116D+00 -0.250896D+00
      6b  0.666388D-01 -0.580948D-01 -0.602600D+00  0.433749D+00  0.371067D+00
      7a -0.715368D-02 -0.723526D-02 -0.442067D+00 -0.605141D+00  0.290226D+00
      7b  0.259254D-02  0.214985D-02  0.601330D+00 -0.432610D+00 -0.423772D+00
      8a -0.210910D-01  0.187402D-01  0.310139D+00  0.418566D+00 -0.513366D+00
      8b -0.944059D-01  0.953446D-01 -0.412447D+00  0.292301D+00  0.701526D+00
      9a -0.190450D-01  0.328880D-01 -0.283013D+00 -0.377966D+00  0.485990D+00
      9b -0.125872D+00  0.121519D+00  0.370462D+00 -0.259551D+00 -0.660414D+00
     10a  0.117705D+00 -0.122165D+00 -0.818456D-02 -0.225623D-01  0.769178D-02
     10b  0.571563D+00 -0.571058D+00  0.278966D-01 -0.284115D-01 -0.198652D-01
                16            17            18            19            20 
      1a -0.206744D-01 -0.243399D-02 -0.297924D-02 -0.151043D-01  0.181994D-01
      1b -0.830379D-02  0.248226D-02 -0.151765D-02  0.155426D-01  0.940908D-02
      2a -0.659980D+00  0.541511D+00  0.742374D+00  0.379164D+00 -0.514133D+00
      2b -0.485710D+00 -0.739321D+00  0.534126D+00 -0.507749D+00 -0.363131D+00
      3a  0.701334D+00 -0.538861D+00 -0.738168D+00 -0.342452D+00  0.464532D+00
      3b  0.513272D+00  0.734816D+00 -0.530456D+00  0.459074D+00  0.328457D+00
      4a -0.424256D+00 -0.307190D+00 -0.436607D+00 -0.622124D+00  0.852745D+00
      4b -0.290581D+00  0.446870D+00 -0.334143D+00  0.850547D+00  0.615113D+00
      5a  0.371520D+00  0.365070D+00  0.515394D+00  0.606249D+00 -0.830166D+00
      5b  0.251224D+00 -0.524971D+00  0.390153D+00 -0.827409D+00 -0.597783D+00
      6a  0.360912D+00 -0.390442D+00 -0.524554D+00  0.597935D+00 -0.827182D+00
      6b  0.280655D+00  0.515811D+00 -0.364776D+00 -0.830403D+00 -0.606072D+00
      7a -0.414254D+00  0.334442D+00  0.446444D+00 -0.615287D+00  0.850291D+00
      7b -0.318331D+00 -0.437032D+00  0.306890D+00  0.853009D+00  0.621929D+00
      8a  0.703605D+00  0.530221D+00  0.735078D+00 -0.328193D+00  0.459414D+00
      8b  0.506971D+00 -0.737935D+00  0.539016D+00  0.464208D+00  0.342673D+00
      9a -0.663662D+00 -0.533854D+00 -0.739637D+00  0.362754D+00 -0.508241D+00
      9b -0.475496D+00  0.742085D+00 -0.541709D+00 -0.513657D+00 -0.379495D+00
     10a -0.168409D-01  0.143229D-02  0.261025D-02 -0.905673D-02  0.160243D-01
     10b -0.189392D-01 -0.284387D-02  0.253992D-02  0.177201D-01  0.154502D-01
 bfr conversion (imaginary):
                 1             2             3             4             5 
      1a  0.223871D-01  0.175879D-01  0.499199D-01 -0.385020D-01  0.938349D-01
      1b  0.156491D-01 -0.813487D-02  0.334461D-01  0.156349D-01  0.546596D-01
      2a  0.668870D-01  0.266282D-01  0.976461D-01 -0.245851D-01  0.895136D-01
      2b  0.154997D-01  0.290311D-01  0.167519D-02 -0.755311D-01 -0.419614D-01
      3a  0.692148D-01  0.269702D-01  0.994391D-01 -0.236817D-01  0.873093D-01
      3b  0.153337D-01  0.312415D-01  0.000000D+00 -0.797283D-01 -0.446658D-01
      4a  0.837341D-01  0.170180D-01  0.213322D-01  0.296974D-01 -0.112239D+00
      4b -0.953191D-04  0.693062D-01 -0.435237D-01 -0.878164D-01 -0.341290D-01
      5a  0.840105D-01  0.171421D-01  0.180016D-01  0.308088D-01 -0.116283D+00
      5b  0.000000D+00  0.693682D-01 -0.439032D-01 -0.857275D-01 -0.319385D-01
      6a  0.691186D-01  0.000000D+00 -0.847815D-01  0.445495D-01 -0.340544D-01
      6b -0.166940D-01  0.846492D-01 -0.312769D-01  0.189662D-01  0.634457D-01
      7a  0.690462D-01  0.891321D-04 -0.868490D-01  0.441608D-01 -0.280489D-01
      7b -0.165607D-01  0.843972D-01 -0.302343D-01  0.223840D-01  0.635300D-01
      8a  0.320135D-01 -0.157749D-01 -0.798729D-01  0.000000D+00  0.125815D+00
      8b -0.263695D-01  0.693458D-01  0.220274D-01  0.100708D+00  0.000000D+00
      9a  0.298284D-01 -0.159423D-01 -0.757494D-01 -0.170216D-02  0.123395D+00
      9b -0.260435D-01  0.669799D-01  0.229758D-01  0.988195D-01 -0.265927D-02
     10a -0.702640D-02 -0.160603D-01  0.134750D-01 -0.341576D-01 -0.147036D-01
     10b -0.173238D-01  0.218602D-01  0.379232D-01  0.487356D-01 -0.712437D-01
                 6             7             8             9            10 
      1a  0.716284D-01  0.146975D+00 -0.108135D+00  0.360486D+00  0.354441D+00
      1b -0.197054D-01  0.842833D-01  0.271597D-01  0.000000D+00  0.000000D+00
      2a  0.265955D-02  0.129677D-01  0.501428D-01 -0.127715D+00 -0.147680D+00
      2b  0.123099D+00 -0.763214D-01 -0.125286D+00 -0.267795D-01  0.263029D-01
      3a  0.000000D+00  0.799115D-02  0.513258D-01 -0.123997D+00 -0.141355D+00
      3b  0.125594D+00 -0.757982D-01 -0.120896D+00 -0.236726D-01  0.232291D-01
      4a -0.634357D-01 -0.113733D+00  0.000000D+00  0.568908D-01  0.103352D+00
      4b -0.266447D-01  0.506638D-01  0.157814D+00  0.563895D-01 -0.555290D-01
      5a -0.633119D-01 -0.107990D+00 -0.351303D-02  0.661801D-01  0.108573D+00
      5b -0.326316D-01  0.529846D-01  0.157147D+00  0.517781D-01 -0.509484D-01
      6a  0.333695D-01  0.157116D+00 -0.521492D-01 -0.520913D-02 -0.876896D-01
      6b -0.116245D+00  0.351696D-02 -0.108687D+00 -0.968105D-01  0.957551D-01
      7a  0.355081D-01  0.157784D+00 -0.498123D-01 -0.129030D-01 -0.883333D-01
      7b -0.112215D+00  0.000000D+00 -0.114448D+00 -0.888784D-01  0.877531D-01
      8a  0.430342D-01 -0.119168D+00  0.753811D-01 -0.422549D-01  0.843688D-01
      8b  0.883767D-01 -0.520709D-01  0.105847D-01  0.146464D+00 -0.145496D+00
      9a  0.403080D-01 -0.123538D+00  0.759090D-01 -0.418219D-01  0.895501D-01
      9b  0.905397D-01 -0.508500D-01  0.155455D-01  0.151997D+00 -0.151023D+00
     10a -0.571546D-01  0.201611D-01 -0.869931D-01  0.171654D+00 -0.171284D+00
     10b  0.916707D-01  0.107946D+00  0.142719D+00 -0.393032D+00  0.392971D+00
                11            12            13            14            15 
      1a  0.000000D+00  0.000000D+00  0.436361D-03 -0.102152D-01 -0.126088D-02
      1b  0.390534D+00  0.392038D+00  0.106148D-01  0.192012D-01  0.594439D-02
      2a  0.456773D-02 -0.456406D-02 -0.150626D+00  0.155656D-01 -0.249638D+00
      2b -0.825502D-01 -0.868558D-01 -0.943794D-02  0.127493D+00 -0.235208D-02
      3a -0.109567D-02  0.109718D-02  0.163257D+00 -0.130362D-01  0.262584D+00
      3b -0.653339D-01 -0.646303D-01  0.623848D-02 -0.145557D+00  0.000000D+00
      4a -0.510650D-02  0.509627D-02 -0.228957D+00  0.102051D-01 -0.140683D+00
      4b -0.209114D-02  0.235556D-02 -0.379826D-03  0.219427D+00  0.172669D-01
      5a -0.915738D-02  0.914880D-02  0.229045D+00 -0.984057D-02  0.120269D+00
      5b  0.386059D-01  0.467610D-01  0.000000D+00 -0.220177D+00 -0.179281D-01
      6a  0.469577D-01 -0.469029D-01 -0.220088D+00  0.000000D+00  0.149865D+00
      6b  0.121715D-01 -0.288099D-01  0.980137D-02  0.229170D+00  0.143879D-01
      7a  0.149773D-03 -0.144370D-03  0.219323D+00  0.382469D-03 -0.168598D+00
      7b -0.456725D-02 -0.471005D-02 -0.101626D-01 -0.229103D+00 -0.132138D-01
      8a -0.714911D-01  0.714030D-01 -0.145694D+00 -0.627446D-02  0.256355D+00
      8b -0.321723D-01  0.301585D-01  0.129807D-01  0.163204D+00 -0.680068D-02
      9a -0.931913D-01  0.930678D-01  0.127824D+00  0.948024D-02 -0.239460D+00
      9b -0.364982D-01  0.447748D-01 -0.155145D-01 -0.150380D+00  0.876171D-02
     10a  0.430488D+00 -0.429935D+00  0.186016D-01 -0.106389D-01 -0.119900D-01
     10b  0.187742D+00 -0.187616D+00  0.102183D-01 -0.144451D-03 -0.577074D-02
                16            17            18            19            20 
      1a  0.574272D-02  0.482473D-03  0.544666D-03  0.309470D-02 -0.324151D-02
      1b -0.122715D-01 -0.564120D-03 -0.154652D-02 -0.339353D-02  0.935195D-02
      2a -0.886062D-02 -0.270130D+00  0.000000D+00 -0.180177D+00  0.673774D-02
      2b -0.239302D+00  0.839357D-02  0.277858D+00  0.112598D-01 -0.196835D+00
      3a  0.691338D-02  0.268036D+00  0.559730D-03  0.163157D+00 -0.577444D-02
      3b  0.256282D+00 -0.890807D-02 -0.276727D+00 -0.986260D-02  0.177597D+00
      4a  0.131618D-01  0.177141D+00 -0.174152D-01  0.310836D+00  0.000000D+00
      4b -0.168789D+00  0.124329D-01 -0.149619D+00 -0.750725D-02  0.317599D+00
      5a -0.143446D-01 -0.205211D+00  0.168270D-01 -0.301654D+00  0.908870D-03
      5b  0.150043D+00 -0.109581D-01  0.179574D+00  0.821725D-02 -0.309911D+00
      6a  0.179488D-01  0.179753D+00  0.109934D-01 -0.310017D+00 -0.819260D-02
      6b  0.120470D+00 -0.168551D-01 -0.205040D+00 -0.911587D-03 -0.301574D+00
      7a -0.172879D-01 -0.149797D+00 -0.124618D-01  0.317713D+00  0.748452D-02
      7b -0.140903D+00  0.174410D-01  0.176968D+00  0.000000D+00  0.310743D+00
      8a  0.000000D+00 -0.276705D+00  0.882384D-02  0.177500D+00  0.983501D-02
      8b  0.262613D+00 -0.563543D-03  0.268137D+00  0.579387D-02  0.163297D+00
      9a  0.234728D-02  0.277813D+00 -0.831327D-02 -0.196684D+00 -0.112309D-01
      9b -0.249566D+00  0.000000D+00 -0.270248D+00 -0.675868D-02 -0.180374D+00
     10a -0.592732D-02 -0.148756D-02  0.576020D-03  0.917802D-02  0.339192D-02
     10b -0.158426D-02 -0.533941D-03  0.520689D-03  0.324695D-02  0.327504D-02
 afr conversion (alpha, real):
                 1             2             3             4             5 
      1   0.203638D-02  0.109729D-01  0.226824D-02 -0.270237D-01  0.397244D-03
      2  -0.667710D-01  0.112684D+00 -0.141325D+00 -0.210541D+00 -0.191405D+00
      3  -0.707390D-01  0.118400D+00 -0.147820D+00 -0.218565D+00 -0.194309D+00
      4  -0.129039D+00  0.189939D+00 -0.131231D+00 -0.150386D+00  0.632143D-01
      5  -0.129242D+00  0.190294D+00 -0.127147D+00 -0.143865D+00  0.724627D-01
      6  -0.145245D+00  0.196682D+00  0.545151D-01  0.115027D+00  0.169586D+00
      7  -0.144822D+00  0.196248D+00  0.599724D-01  0.122122D+00  0.162654D+00
      8  -0.110715D+00  0.134330D+00  0.169101D+00  0.227627D+00 -0.148829D+00
      9  -0.106593D+00  0.128549D+00  0.165140D+00  0.220601D+00 -0.151386D+00
     10  -0.295707D-01  0.235127D-01  0.666821D-01  0.548292D-01 -0.127802D+00
                 6             7             8             9            10 
      1   0.568700D-01 -0.827735D-02 -0.968852D-01  0.176412D+00  0.188304D+00
      2   0.257216D+00 -0.176547D+00 -0.192751D+00 -0.103813D+00 -0.374575D-01
      3   0.258737D+00 -0.169178D+00 -0.181805D+00 -0.972000D-01 -0.388889D-01
      4  -0.141208D+00  0.249659D+00  0.332844D+00  0.114832D+00 -0.316496D-01
      5  -0.153373D+00  0.247294D+00  0.326427D+00  0.112264D+00 -0.217358D-01
      6  -0.194070D+00 -0.190593D+00 -0.303579D+00 -0.151898D+00  0.102675D+00
      7  -0.182858D+00 -0.198816D+00 -0.312397D+00 -0.143426D+00  0.898594D-01
      8   0.240622D+00  0.408567D-01  0.129794D+00  0.205271D+00 -0.181975D+00
      9   0.241368D+00  0.489258D-01  0.141009D+00  0.214019D+00 -0.187837D+00
     10   0.111080D+00  0.201186D+00  0.176982D+00 -0.522325D+00  0.521560D+00
                11            12            13            14            15 
      1   0.606521D+00  0.606926D+00  0.272514D-01  0.294871D-01  0.183671D-01
      2  -0.130050D+00 -0.132678D+00  0.260176D+00  0.369649D+00  0.475862D+00
      3  -0.101025D+00 -0.100486D+00 -0.292549D+00 -0.412153D+00 -0.507169D+00
      4  -0.118521D-02  0.165190D-02  0.432418D+00  0.601625D+00  0.318001D+00
      5   0.636557D-01  0.688110D-01 -0.433589D+00 -0.602848D+00 -0.280344D+00
      6  -0.626935D-04 -0.262425D-01  0.442560D+00  0.606116D+00 -0.250896D+00
      7  -0.715368D-02 -0.723526D-02 -0.442067D+00 -0.605141D+00  0.290226D+00
      8  -0.210910D-01  0.187402D-01  0.310139D+00  0.418566D+00 -0.513366D+00
      9  -0.190450D-01  0.328880D-01 -0.283013D+00 -0.377966D+00  0.485990D+00
     10   0.117705D+00 -0.122165D+00 -0.818456D-02 -0.225623D-01  0.769178D-02
                16            17            18            19            20 
      1  -0.206744D-01 -0.243399D-02 -0.297924D-02 -0.151043D-01  0.181994D-01
      2  -0.659980D+00  0.541511D+00  0.742374D+00  0.379164D+00 -0.514133D+00
      3   0.701334D+00 -0.538861D+00 -0.738168D+00 -0.342452D+00  0.464532D+00
      4  -0.424256D+00 -0.307190D+00 -0.436607D+00 -0.622124D+00  0.852745D+00
      5   0.371520D+00  0.365070D+00  0.515394D+00  0.606249D+00 -0.830166D+00
      6   0.360912D+00 -0.390442D+00 -0.524554D+00  0.597935D+00 -0.827182D+00
      7  -0.414254D+00  0.334442D+00  0.446444D+00 -0.615287D+00  0.850291D+00
      8   0.703605D+00  0.530221D+00  0.735078D+00 -0.328193D+00  0.459414D+00
      9  -0.663662D+00 -0.533854D+00 -0.739637D+00  0.362754D+00 -0.508241D+00
     10  -0.168409D-01  0.143229D-02  0.261025D-02 -0.905673D-02  0.160243D-01
 afr conversion (alpha, imaginary):
                 1             2             3             4             5 
      1   0.223871D-01  0.175879D-01  0.499199D-01 -0.385020D-01  0.938349D-01
      2   0.668870D-01  0.266282D-01  0.976461D-01 -0.245851D-01  0.895136D-01
      3   0.692148D-01  0.269702D-01  0.994391D-01 -0.236817D-01  0.873093D-01
      4   0.837341D-01  0.170180D-01  0.213322D-01  0.296974D-01 -0.112239D+00
      5   0.840105D-01  0.171421D-01  0.180016D-01  0.308088D-01 -0.116283D+00
      6   0.691186D-01  0.000000D+00 -0.847815D-01  0.445495D-01 -0.340544D-01
      7   0.690462D-01  0.891321D-04 -0.868490D-01  0.441608D-01 -0.280489D-01
      8   0.320135D-01 -0.157749D-01 -0.798729D-01  0.000000D+00  0.125815D+00
      9   0.298284D-01 -0.159423D-01 -0.757494D-01 -0.170216D-02  0.123395D+00
     10  -0.702640D-02 -0.160603D-01  0.134750D-01 -0.341576D-01 -0.147036D-01
                 6             7             8             9            10 
      1   0.716284D-01  0.146975D+00 -0.108135D+00  0.360486D+00  0.354441D+00
      2   0.265955D-02  0.129677D-01  0.501428D-01 -0.127715D+00 -0.147680D+00
      3   0.000000D+00  0.799115D-02  0.513258D-01 -0.123997D+00 -0.141355D+00
      4  -0.634357D-01 -0.113733D+00  0.000000D+00  0.568908D-01  0.103352D+00
      5  -0.633119D-01 -0.107990D+00 -0.351303D-02  0.661801D-01  0.108573D+00
      6   0.333695D-01  0.157116D+00 -0.521492D-01 -0.520913D-02 -0.876896D-01
      7   0.355081D-01  0.157784D+00 -0.498123D-01 -0.129030D-01 -0.883333D-01
      8   0.430342D-01 -0.119168D+00  0.753811D-01 -0.422549D-01  0.843688D-01
      9   0.403080D-01 -0.123538D+00  0.759090D-01 -0.418219D-01  0.895501D-01
     10  -0.571546D-01  0.201611D-01 -0.869931D-01  0.171654D+00 -0.171284D+00
                11            12            13            14            15 
      1   0.000000D+00  0.000000D+00  0.436361D-03 -0.102152D-01 -0.126088D-02
      2   0.456773D-02 -0.456406D-02 -0.150626D+00  0.155656D-01 -0.249638D+00
      3  -0.109567D-02  0.109718D-02  0.163257D+00 -0.130362D-01  0.262584D+00
      4  -0.510650D-02  0.509627D-02 -0.228957D+00  0.102051D-01 -0.140683D+00
      5  -0.915738D-02  0.914880D-02  0.229045D+00 -0.984057D-02  0.120269D+00
      6   0.469577D-01 -0.469029D-01 -0.220088D+00  0.000000D+00  0.149865D+00
      7   0.149773D-03 -0.144370D-03  0.219323D+00  0.382469D-03 -0.168598D+00
      8  -0.714911D-01  0.714030D-01 -0.145694D+00 -0.627446D-02  0.256355D+00
      9  -0.931913D-01  0.930678D-01  0.127824D+00  0.948024D-02 -0.239460D+00
     10   0.430488D+00 -0.429935D+00  0.186016D-01 -0.106389D-01 -0.119900D-01
                16            17            18            19            20 
      1   0.574272D-02  0.482473D-03  0.544666D-03  0.309470D-02 -0.324151D-02
      2  -0.886062D-02 -0.270130D+00  0.000000D+00 -0.180177D+00  0.673774D-02
      3   0.691338D-02  0.268036D+00  0.559730D-03  0.163157D+00 -0.577444D-02
      4   0.131618D-01  0.177141D+00 -0.174152D-01  0.310836D+00  0.000000D+00
      5  -0.143446D-01 -0.205211D+00  0.168270D-01 -0.301654D+00  0.908870D-03
      6   0.179488D-01  0.179753D+00  0.109934D-01 -0.310017D+00 -0.819260D-02
      7  -0.172879D-01 -0.149797D+00 -0.124618D-01  0.317713D+00  0.748452D-02
      8   0.000000D+00 -0.276705D+00  0.882384D-02  0.177500D+00  0.983501D-02
      9   0.234728D-02  0.277813D+00 -0.831327D-02 -0.196684D+00 -0.112309D-01
     10  -0.592732D-02 -0.148756D-02  0.576020D-03  0.917802D-02  0.339192D-02
 afr conversion (beta, real):
                 1             2             3             4             5 
      1   0.254577D-01  0.284209D-01  0.588699D-01 -0.642675D-01  0.118485D+00
      2   0.129438D+00  0.106282D+00  0.220504D+00 -0.165507D+00  0.238278D+00
      3   0.135148D+00  0.110458D+00  0.227373D+00 -0.169574D+00  0.237385D+00
      4   0.195339D+00  0.145564D+00  0.120707D+00 -0.606955D-01 -0.183318D+00
      5   0.195821D+00  0.145947D+00  0.113718D+00 -0.551431D-01 -0.194476D+00
      6   0.189618D+00  0.129494D+00 -0.142168D+00  0.128299D+00 -0.153847D+00
      7   0.189222D+00  0.129316D+00 -0.148618D+00  0.132396D+00 -0.141720D+00
      8   0.119653D+00  0.694307D-01 -0.219037D+00  0.146584D+00  0.256410D+00
      9   0.114003D+00  0.654224D-01 -0.211176D+00  0.139988D+00  0.255019D+00
     10   0.132065D-01 -0.387479D-02 -0.318623D-01 -0.626903D-02  0.648573D-01
                 6             7             8             9            10 
      1   0.123698D+00  0.189462D+00 -0.193507D+00  0.556119D+00  0.552497D+00
      2   0.154558D+00  0.135028D+00 -0.536675D-01 -0.207129D+00 -0.219206D+00
      3   0.152101D+00  0.123843D+00 -0.455858D-01 -0.200221D+00 -0.210632D+00
      4  -0.162952D+00 -0.310303D+00  0.200814D+00  0.109041D+00  0.137891D+00
      5  -0.169947D+00 -0.301526D+00  0.192555D+00  0.121631D+00  0.147944D+00
      6  -0.720336D-01  0.324836D+00 -0.248288D+00 -0.445629D-01 -0.966606D-01
      7  -0.627471D-01  0.331205D+00 -0.250690D+00 -0.534394D-01 -0.101009D+00
      8   0.195683D+00 -0.176595D+00  0.172454D+00 -0.992503D-02  0.706907D-01
      9   0.192686D+00 -0.187492D+00  0.179880D+00 -0.716932D-02  0.764569D-01
     10  -0.672679D-02 -0.110159D+00 -0.186972D-02  0.116518D+00 -0.102720D+00
                11            12            13            14            15 
      1  -0.201793D+00 -0.197544D+00 -0.209795D-01  0.932463D-02 -0.160180D-01
      2   0.497483D-01  0.367001D-01 -0.378747D+00  0.282474D+00 -0.664064D+00
      3   0.320570D-01  0.342652D-01  0.418828D+00 -0.309975D+00  0.703759D+00
      4  -0.685016D-02  0.670274D-02 -0.604830D+00  0.442301D+00 -0.413762D+00
      5  -0.341699D-01 -0.939886D-02  0.605855D+00 -0.442756D+00  0.360455D+00
      6   0.666388D-01 -0.580948D-01 -0.602600D+00  0.433749D+00  0.371067D+00
      7   0.259254D-02  0.214985D-02  0.601330D+00 -0.432610D+00 -0.423772D+00
      8  -0.944059D-01  0.953446D-01 -0.412447D+00  0.292301D+00  0.701526D+00
      9  -0.125872D+00  0.121519D+00  0.370462D+00 -0.259551D+00 -0.660414D+00
     10   0.571563D+00 -0.571058D+00  0.278966D-01 -0.284115D-01 -0.198652D-01
                16            17            18            19            20 
      1  -0.830379D-02  0.248226D-02 -0.151765D-02  0.155426D-01  0.940908D-02
      2  -0.485710D+00 -0.739321D+00  0.534126D+00 -0.507749D+00 -0.363131D+00
      3   0.513272D+00  0.734816D+00 -0.530456D+00  0.459074D+00  0.328457D+00
      4  -0.290581D+00  0.446870D+00 -0.334143D+00  0.850547D+00  0.615113D+00
      5   0.251224D+00 -0.524971D+00  0.390153D+00 -0.827409D+00 -0.597783D+00
      6   0.280655D+00  0.515811D+00 -0.364776D+00 -0.830403D+00 -0.606072D+00
      7  -0.318331D+00 -0.437032D+00  0.306890D+00  0.853009D+00  0.621929D+00
      8   0.506971D+00 -0.737935D+00  0.539016D+00  0.464208D+00  0.342673D+00
      9  -0.475496D+00  0.742085D+00 -0.541709D+00 -0.513657D+00 -0.379495D+00
     10  -0.189392D-01 -0.284387D-02  0.253992D-02  0.177201D-01  0.154502D-01
 afr conversion (beta, imaginary):
                 1             2             3             4             5 
      1   0.156491D-01 -0.813487D-02  0.334461D-01  0.156349D-01  0.546596D-01
      2   0.154997D-01  0.290311D-01  0.167519D-02 -0.755311D-01 -0.419614D-01
      3   0.153337D-01  0.312415D-01  0.000000D+00 -0.797283D-01 -0.446658D-01
      4  -0.953191D-04  0.693062D-01 -0.435237D-01 -0.878164D-01 -0.341290D-01
      5   0.000000D+00  0.693682D-01 -0.439032D-01 -0.857275D-01 -0.319385D-01
      6  -0.166940D-01  0.846492D-01 -0.312769D-01  0.189662D-01  0.634457D-01
      7  -0.165607D-01  0.843972D-01 -0.302343D-01  0.223840D-01  0.635300D-01
      8  -0.263695D-01  0.693458D-01  0.220274D-01  0.100708D+00  0.000000D+00
      9  -0.260435D-01  0.669799D-01  0.229758D-01  0.988195D-01 -0.265927D-02
     10  -0.173238D-01  0.218602D-01  0.379232D-01  0.487356D-01 -0.712437D-01
                 6             7             8             9            10 
      1  -0.197054D-01  0.842833D-01  0.271597D-01  0.000000D+00  0.000000D+00
      2   0.123099D+00 -0.763214D-01 -0.125286D+00 -0.267795D-01  0.263029D-01
      3   0.125594D+00 -0.757982D-01 -0.120896D+00 -0.236726D-01  0.232291D-01
      4  -0.266447D-01  0.506638D-01  0.157814D+00  0.563895D-01 -0.555290D-01
      5  -0.326316D-01  0.529846D-01  0.157147D+00  0.517781D-01 -0.509484D-01
      6  -0.116245D+00  0.351696D-02 -0.108687D+00 -0.968105D-01  0.957551D-01
      7  -0.112215D+00  0.000000D+00 -0.114448D+00 -0.888784D-01  0.877531D-01
      8   0.883767D-01 -0.520709D-01  0.105847D-01  0.146464D+00 -0.145496D+00
      9   0.905397D-01 -0.508500D-01  0.155455D-01  0.151997D+00 -0.151023D+00
     10   0.916707D-01  0.107946D+00  0.142719D+00 -0.393032D+00  0.392971D+00
                11            12            13            14            15 
      1   0.390534D+00  0.392038D+00  0.106148D-01  0.192012D-01  0.594439D-02
      2  -0.825502D-01 -0.868558D-01 -0.943794D-02  0.127493D+00 -0.235208D-02
      3  -0.653339D-01 -0.646303D-01  0.623848D-02 -0.145557D+00  0.000000D+00
      4  -0.209114D-02  0.235556D-02 -0.379826D-03  0.219427D+00  0.172669D-01
      5   0.386059D-01  0.467610D-01  0.000000D+00 -0.220177D+00 -0.179281D-01
      6   0.121715D-01 -0.288099D-01  0.980137D-02  0.229170D+00  0.143879D-01
      7  -0.456725D-02 -0.471005D-02 -0.101626D-01 -0.229103D+00 -0.132138D-01
      8  -0.321723D-01  0.301585D-01  0.129807D-01  0.163204D+00 -0.680068D-02
      9  -0.364982D-01  0.447748D-01 -0.155145D-01 -0.150380D+00  0.876171D-02
     10   0.187742D+00 -0.187616D+00  0.102183D-01 -0.144451D-03 -0.577074D-02
                16            17            18            19            20 
      1  -0.122715D-01 -0.564120D-03 -0.154652D-02 -0.339353D-02  0.935195D-02
      2  -0.239302D+00  0.839357D-02  0.277858D+00  0.112598D-01 -0.196835D+00
      3   0.256282D+00 -0.890807D-02 -0.276727D+00 -0.986260D-02  0.177597D+00
      4  -0.168789D+00  0.124329D-01 -0.149619D+00 -0.750725D-02  0.317599D+00
      5   0.150043D+00 -0.109581D-01  0.179574D+00  0.821725D-02 -0.309911D+00
      6   0.120470D+00 -0.168551D-01 -0.205040D+00 -0.911587D-03 -0.301574D+00
      7  -0.140903D+00  0.174410D-01  0.176968D+00  0.000000D+00  0.310743D+00
      8   0.262613D+00 -0.563543D-03  0.268137D+00  0.579387D-02  0.163297D+00
      9  -0.249566D+00  0.000000D+00 -0.270248D+00 -0.675868D-02 -0.180374D+00
     10  -0.158426D-02 -0.533941D-03  0.520689D-03  0.324695D-02  0.327504D-02
 jaja in hckghf.F, ISPECT =                     548
Spin block MO for GHF transformation
NOA =   10   NOB =   10
NVA =   10   NVB =   10
 NOAvA in Hack                     100
 jaja in tranN3.F, ISPECT =                     548
 in l802/tranN3.F, LSPECT =                      800
 NMat, NBtSiz,MDV                    8372                   16000
                133954722
 TranN3:  NGot= 134217728 NBasic=    263006 NTTT=       550 NMat=      8372.
 Defined bucket =                      51                   10000
 Defined bucket =                      52                   10000
 Defined bucket =                      53                   10000
 Defined bucket =                      55                   10000
 Defined bucket =                      57                   10000
 Defined bucket =                      58                   10000
 Defined bucket =                      60                   10000
 Defined bucket =                      72                   10000
 Defined bucket =                      73                   10000
 Defined bucket =                      74                   10000
 Defined bucket =                      75                   10000
 Defined bucket =                      76                   10000
 (IK/LS) integrals will be saved in memory.
 TrCghf made   2 passes through the AO integrals.
 jaja DoHack is true or false? F
 jaja in hckghf.F, NBasis=                      10
 jaja in hckGHF/FixOG, LC =                      800
 jaja in hckGHF/FixOG, IRwC=                      548
 bfr conversion (alpha, real):
                 1             2             3             4             5 
      1   0.203638D-02  0.109729D-01  0.226824D-02 -0.270237D-01  0.397244D-03
      2  -0.667710D-01  0.112684D+00 -0.141325D+00 -0.210541D+00 -0.191405D+00
      3  -0.707390D-01  0.118400D+00 -0.147820D+00 -0.218565D+00 -0.194309D+00
      4  -0.129039D+00  0.189939D+00 -0.131231D+00 -0.150386D+00  0.632143D-01
      5  -0.129242D+00  0.190294D+00 -0.127147D+00 -0.143865D+00  0.724627D-01
      6  -0.145245D+00  0.196682D+00  0.545151D-01  0.115027D+00  0.169586D+00
      7  -0.144822D+00  0.196248D+00  0.599724D-01  0.122122D+00  0.162654D+00
      8  -0.110715D+00  0.134330D+00  0.169101D+00  0.227627D+00 -0.148829D+00
      9  -0.106593D+00  0.128549D+00  0.165140D+00  0.220601D+00 -0.151386D+00
     10  -0.295707D-01  0.235127D-01  0.666821D-01  0.548292D-01 -0.127802D+00
                 6             7             8             9            10 
      1   0.568700D-01 -0.827735D-02 -0.968852D-01  0.176412D+00  0.188304D+00
      2   0.257216D+00 -0.176547D+00 -0.192751D+00 -0.103813D+00 -0.374575D-01
      3   0.258737D+00 -0.169178D+00 -0.181805D+00 -0.972000D-01 -0.388889D-01
      4  -0.141208D+00  0.249659D+00  0.332844D+00  0.114832D+00 -0.316496D-01
      5  -0.153373D+00  0.247294D+00  0.326427D+00  0.112264D+00 -0.217358D-01
      6  -0.194070D+00 -0.190593D+00 -0.303579D+00 -0.151898D+00  0.102675D+00
      7  -0.182858D+00 -0.198816D+00 -0.312397D+00 -0.143426D+00  0.898594D-01
      8   0.240622D+00  0.408567D-01  0.129794D+00  0.205271D+00 -0.181975D+00
      9   0.241368D+00  0.489258D-01  0.141009D+00  0.214019D+00 -0.187837D+00
     10   0.111080D+00  0.201186D+00  0.176982D+00 -0.522325D+00  0.521560D+00
                11            12            13            14            15 
      1   0.606521D+00  0.606926D+00  0.272514D-01  0.294871D-01  0.183671D-01
      2  -0.130050D+00 -0.132678D+00  0.260176D+00  0.369649D+00  0.475862D+00
      3  -0.101025D+00 -0.100486D+00 -0.292549D+00 -0.412153D+00 -0.507169D+00
      4  -0.118521D-02  0.165190D-02  0.432418D+00  0.601625D+00  0.318001D+00
      5   0.636557D-01  0.688110D-01 -0.433589D+00 -0.602848D+00 -0.280344D+00
      6  -0.626935D-04 -0.262425D-01  0.442560D+00  0.606116D+00 -0.250896D+00
      7  -0.715368D-02 -0.723526D-02 -0.442067D+00 -0.605141D+00  0.290226D+00
      8  -0.210910D-01  0.187402D-01  0.310139D+00  0.418566D+00 -0.513366D+00
      9  -0.190450D-01  0.328880D-01 -0.283013D+00 -0.377966D+00  0.485990D+00
     10   0.117705D+00 -0.122165D+00 -0.818456D-02 -0.225623D-01  0.769178D-02
                16            17            18            19            20 
      1  -0.206744D-01 -0.243399D-02 -0.297924D-02 -0.151043D-01  0.181994D-01
      2  -0.659980D+00  0.541511D+00  0.742374D+00  0.379164D+00 -0.514133D+00
      3   0.701334D+00 -0.538861D+00 -0.738168D+00 -0.342452D+00  0.464532D+00
      4  -0.424256D+00 -0.307190D+00 -0.436607D+00 -0.622124D+00  0.852745D+00
      5   0.371520D+00  0.365070D+00  0.515394D+00  0.606249D+00 -0.830166D+00
      6   0.360912D+00 -0.390442D+00 -0.524554D+00  0.597935D+00 -0.827182D+00
      7  -0.414254D+00  0.334442D+00  0.446444D+00 -0.615287D+00  0.850291D+00
      8   0.703605D+00  0.530221D+00  0.735078D+00 -0.328193D+00  0.459414D+00
      9  -0.663662D+00 -0.533854D+00 -0.739637D+00  0.362754D+00 -0.508241D+00
     10  -0.168409D-01  0.143229D-02  0.261025D-02 -0.905673D-02  0.160243D-01
 bfr conversion (alpha, imaginary):
                 1             2             3             4             5 
      1   0.223871D-01  0.175879D-01  0.499199D-01 -0.385020D-01  0.938349D-01
      2   0.668870D-01  0.266282D-01  0.976461D-01 -0.245851D-01  0.895136D-01
      3   0.692148D-01  0.269702D-01  0.994391D-01 -0.236817D-01  0.873093D-01
      4   0.837341D-01  0.170180D-01  0.213322D-01  0.296974D-01 -0.112239D+00
      5   0.840105D-01  0.171421D-01  0.180016D-01  0.308088D-01 -0.116283D+00
      6   0.691186D-01  0.000000D+00 -0.847815D-01  0.445495D-01 -0.340544D-01
      7   0.690462D-01  0.891321D-04 -0.868490D-01  0.441608D-01 -0.280489D-01
      8   0.320135D-01 -0.157749D-01 -0.798729D-01  0.000000D+00  0.125815D+00
      9   0.298284D-01 -0.159423D-01 -0.757494D-01 -0.170216D-02  0.123395D+00
     10  -0.702640D-02 -0.160603D-01  0.134750D-01 -0.341576D-01 -0.147036D-01
                 6             7             8             9            10 
      1   0.716284D-01  0.146975D+00 -0.108135D+00  0.360486D+00  0.354441D+00
      2   0.265955D-02  0.129677D-01  0.501428D-01 -0.127715D+00 -0.147680D+00
      3   0.000000D+00  0.799115D-02  0.513258D-01 -0.123997D+00 -0.141355D+00
      4  -0.634357D-01 -0.113733D+00  0.000000D+00  0.568908D-01  0.103352D+00
      5  -0.633119D-01 -0.107990D+00 -0.351303D-02  0.661801D-01  0.108573D+00
      6   0.333695D-01  0.157116D+00 -0.521492D-01 -0.520913D-02 -0.876896D-01
      7   0.355081D-01  0.157784D+00 -0.498123D-01 -0.129030D-01 -0.883333D-01
      8   0.430342D-01 -0.119168D+00  0.753811D-01 -0.422549D-01  0.843688D-01
      9   0.403080D-01 -0.123538D+00  0.759090D-01 -0.418219D-01  0.895501D-01
     10  -0.571546D-01  0.201611D-01 -0.869931D-01  0.171654D+00 -0.171284D+00
                11            12            13            14            15 
      1   0.000000D+00  0.000000D+00  0.436361D-03 -0.102152D-01 -0.126088D-02
      2   0.456773D-02 -0.456406D-02 -0.150626D+00  0.155656D-01 -0.249638D+00
      3  -0.109567D-02  0.109718D-02  0.163257D+00 -0.130362D-01  0.262584D+00
      4  -0.510650D-02  0.509627D-02 -0.228957D+00  0.102051D-01 -0.140683D+00
      5  -0.915738D-02  0.914880D-02  0.229045D+00 -0.984057D-02  0.120269D+00
      6   0.469577D-01 -0.469029D-01 -0.220088D+00  0.000000D+00  0.149865D+00
      7   0.149773D-03 -0.144370D-03  0.219323D+00  0.382469D-03 -0.168598D+00
      8  -0.714911D-01  0.714030D-01 -0.145694D+00 -0.627446D-02  0.256355D+00
      9  -0.931913D-01  0.930678D-01  0.127824D+00  0.948024D-02 -0.239460D+00
     10   0.430488D+00 -0.429935D+00  0.186016D-01 -0.106389D-01 -0.119900D-01
                16            17            18            19            20 
      1   0.574272D-02  0.482473D-03  0.544666D-03  0.309470D-02 -0.324151D-02
      2  -0.886062D-02 -0.270130D+00  0.000000D+00 -0.180177D+00  0.673774D-02
      3   0.691338D-02  0.268036D+00  0.559730D-03  0.163157D+00 -0.577444D-02
      4   0.131618D-01  0.177141D+00 -0.174152D-01  0.310836D+00  0.000000D+00
      5  -0.143446D-01 -0.205211D+00  0.168270D-01 -0.301654D+00  0.908870D-03
      6   0.179488D-01  0.179753D+00  0.109934D-01 -0.310017D+00 -0.819260D-02
      7  -0.172879D-01 -0.149797D+00 -0.124618D-01  0.317713D+00  0.748452D-02
      8   0.000000D+00 -0.276705D+00  0.882384D-02  0.177500D+00  0.983501D-02
      9   0.234728D-02  0.277813D+00 -0.831327D-02 -0.196684D+00 -0.112309D-01
     10  -0.592732D-02 -0.148756D-02  0.576020D-03  0.917802D-02  0.339192D-02
 bfr conversion (beta, real):
                 1             2             3             4             5 
      1   0.254577D-01  0.284209D-01  0.588699D-01 -0.642675D-01  0.118485D+00
      2   0.129438D+00  0.106282D+00  0.220504D+00 -0.165507D+00  0.238278D+00
      3   0.135148D+00  0.110458D+00  0.227373D+00 -0.169574D+00  0.237385D+00
      4   0.195339D+00  0.145564D+00  0.120707D+00 -0.606955D-01 -0.183318D+00
      5   0.195821D+00  0.145947D+00  0.113718D+00 -0.551431D-01 -0.194476D+00
      6   0.189618D+00  0.129494D+00 -0.142168D+00  0.128299D+00 -0.153847D+00
      7   0.189222D+00  0.129316D+00 -0.148618D+00  0.132396D+00 -0.141720D+00
      8   0.119653D+00  0.694307D-01 -0.219037D+00  0.146584D+00  0.256410D+00
      9   0.114003D+00  0.654224D-01 -0.211176D+00  0.139988D+00  0.255019D+00
     10   0.132065D-01 -0.387479D-02 -0.318623D-01 -0.626903D-02  0.648573D-01
                 6             7             8             9            10 
      1   0.123698D+00  0.189462D+00 -0.193507D+00  0.556119D+00  0.552497D+00
      2   0.154558D+00  0.135028D+00 -0.536675D-01 -0.207129D+00 -0.219206D+00
      3   0.152101D+00  0.123843D+00 -0.455858D-01 -0.200221D+00 -0.210632D+00
      4  -0.162952D+00 -0.310303D+00  0.200814D+00  0.109041D+00  0.137891D+00
      5  -0.169947D+00 -0.301526D+00  0.192555D+00  0.121631D+00  0.147944D+00
      6  -0.720336D-01  0.324836D+00 -0.248288D+00 -0.445629D-01 -0.966606D-01
      7  -0.627471D-01  0.331205D+00 -0.250690D+00 -0.534394D-01 -0.101009D+00
      8   0.195683D+00 -0.176595D+00  0.172454D+00 -0.992503D-02  0.706907D-01
      9   0.192686D+00 -0.187492D+00  0.179880D+00 -0.716932D-02  0.764569D-01
     10  -0.672679D-02 -0.110159D+00 -0.186972D-02  0.116518D+00 -0.102720D+00
                11            12            13            14            15 
      1  -0.201793D+00 -0.197544D+00 -0.209795D-01  0.932463D-02 -0.160180D-01
      2   0.497483D-01  0.367001D-01 -0.378747D+00  0.282474D+00 -0.664064D+00
      3   0.320570D-01  0.342652D-01  0.418828D+00 -0.309975D+00  0.703759D+00
      4  -0.685016D-02  0.670274D-02 -0.604830D+00  0.442301D+00 -0.413762D+00
      5  -0.341699D-01 -0.939886D-02  0.605855D+00 -0.442756D+00  0.360455D+00
      6   0.666388D-01 -0.580948D-01 -0.602600D+00  0.433749D+00  0.371067D+00
[...]
      6b 0.686185D-01  0.863471D-01  0.768934D-01 -0.221685D+00  0.888342D-01
      7a 0.745865D-01  0.437229D-01 -0.149881D+00  0.103507D+00 -0.168024D+00
      7b 0.704966D-01  0.923833D-01  0.657837D-01 -0.202939D+00  0.780643D-01
      8a-0.345178D-01 -0.368742D-01  0.519527D-01  0.605858D-02  0.510173D-01
      8b-0.387412D-01 -0.276489D-01  0.242812D-02  0.490351D-01  0.270829D-02
      9a-0.371913D-01 -0.371815D-01  0.513605D-01  0.433907D-02  0.513128D-01
      9b-0.422570D-01 -0.332142D-01  0.403884D-02  0.494257D-01  0.381748D-02
     10a 0.475366D-01  0.548711D-01 -0.462081D-01 -0.176352D-01 -0.409322D-01
     10b 0.457183D-01  0.243048D-01 -0.154480D-01 -0.241975D-01 -0.176811D-01
                3b            4a            4b            5a            5b
      3b 0.146567D+01
      4a-0.115449D+00  0.107753D+01
      4b-0.103934D+00 -0.681503D+00  0.138006D+01
      5a-0.927549D-01  0.107538D+01 -0.681850D+00  0.107505D+01
      5b-0.144122D+00 -0.674118D+00  0.137870D+01 -0.675359D+00  0.137963D+01
      6a 0.115716D+00 -0.141876D+00 -0.113983D+00 -0.110564D+00 -0.134480D+00
      6b-0.242443D+00  0.104846D+00 -0.141673D+00  0.875549D-01 -0.997267D-01
      7a 0.109103D+00 -0.173794D+00 -0.908335D-01 -0.143112D+00 -0.111123D+00
      7b-0.224669D+00  0.124716D+00 -0.181619D+00  0.107797D+00 -0.140437D+00
      8a 0.952644D-02 -0.176783D+00  0.128274D+00 -0.191631D+00  0.130172D+00
      8b 0.481917D-01  0.992271D-01 -0.215909D+00  0.105296D+00 -0.235468D+00
      9a 0.741995D-02 -0.158957D+00  0.123556D+00 -0.174548D+00  0.126117D+00
      9b 0.496751D-01  0.880161D-01 -0.193863D+00  0.944768D-01 -0.214407D+00
     10a-0.217309D-01  0.103041D+00 -0.150234D-01  0.993970D-01 -0.367911D-02
     10b-0.212346D-01 -0.690612D-02  0.639290D-01 -0.691951D-04  0.620917D-01
                6a            6b            7a            7b            8a
      6a 0.107035D+01
      6b-0.663761D+00  0.138433D+01
      7a 0.106947D+01 -0.664396D+00  0.107043D+01
      7b-0.657399D+00  0.138460D+01 -0.659119D+00  0.138716D+01
      8a-0.142439D+00 -0.119709D+00 -0.112007D+00 -0.139913D+00  0.110957D+01
      8b 0.974484D-01 -0.150974D+00  0.773911D-01 -0.108571D+00 -0.698993D+00
      9a-0.175980D+00 -0.983627D-01 -0.146171D+00 -0.118457D+00  0.110055D+01
      9b 0.114158D+00 -0.194239D+00  0.945810D-01 -0.152803D+00 -0.687689D+00
     10a-0.233630D+00  0.195378D+00 -0.239861D+00  0.181918D+00  0.118777D+00
     10b 0.103964D+00 -0.143254D+00  0.958663D-01 -0.149176D+00 -0.297513D+00
                8b            9a            9b           10a           10b
      8b 0.153136D+01
      9a-0.699492D+00  0.109299D+01
      9b 0.151533D+01 -0.688767D+00  0.150119D+01
     10a-0.526279D+00  0.125739D+00 -0.525616D+00  0.843455D+00
     10b 0.254661D-01 -0.296273D+00  0.298490D-01  0.231150D+00  0.627000D+00
 jaja lower-tri density matrix (imaginary):
                1a            1b            2a            2b            3a
      1a 0.000000D+00
      1b-0.224651D+00  0.000000D+00
      2a 0.473208D+00  0.360393D+00  0.000000D+00
      2b-0.506466D+00 -0.396171D+00 -0.265503D+00  0.000000D+00
      3a 0.473578D+00  0.359132D+00  0.168598D-01  0.261480D+00  0.000000D+00
      3b-0.505110D+00 -0.396824D+00 -0.263156D+00 -0.174137D-01 -0.259256D+00
      4a-0.175530D+00 -0.179010D+00  0.278532D+00  0.129269D-01  0.283077D+00
      4b 0.253570D+00  0.156407D+00 -0.396592D-01 -0.278279D+00 -0.484873D-01
      5a-0.185672D+00 -0.184745D+00  0.277414D+00  0.416089D-02  0.282447D+00
      5b 0.261516D+00  0.164221D+00 -0.298724D-01 -0.277377D+00 -0.388459D-01
      6a 0.870100D-02  0.320950D-01 -0.394329D-01 -0.638533D-01 -0.302983D-01
      6b-0.482894D-01 -0.110460D-01  0.681797D-01  0.406351D-01  0.707447D-01
      7a 0.184359D-01  0.398363D-01 -0.439956D-01 -0.645330D-01 -0.351529D-01
      7b-0.593920D-01 -0.195094D-01  0.690500D-01  0.453436D-01  0.719272D-01
      8a 0.123454D-01 -0.128042D-02 -0.765924D-02 -0.281263D-02 -0.116270D-01
      8b 0.290374D-02 -0.985464D-02  0.458538D-02  0.775657D-02  0.404596D-02
      9a 0.864790D-02 -0.517705D-02 -0.362981D-02 -0.134161D-02 -0.776299D-02
      9b 0.854316D-02 -0.659989D-02  0.286744D-02  0.362982D-02  0.211424D-02
     10a-0.434425D-01 -0.175350D-01  0.493049D-02  0.295821D-01  0.849463D-02
     10b 0.330032D-01  0.434425D-01 -0.406715D-01 -0.697853D-02 -0.360648D-01
                3b            4a            4b            5a            5b
      3b 0.000000D+00
      4a 0.218093D-01  0.000000D+00
      4b-0.283747D+00 -0.316136D+00  0.000000D+00
      5a 0.131512D-01  0.774671D-02  0.320450D+00  0.000000D+00
      5b-0.283312D+00 -0.320941D+00 -0.706041D-02 -0.325941D+00  0.000000D+00
      6a-0.673544D-01  0.281096D+00 -0.110138D-01  0.285870D+00  0.154176D-02
      6b 0.315703D-01 -0.893047D-02 -0.281807D+00 -0.220344D-01 -0.285870D+00
      7a-0.683555D-01  0.276921D+00 -0.183202D-01  0.281786D+00 -0.588984D-02
      7b 0.366286D-01 -0.129697D-02 -0.276921D+00 -0.142348D-01 -0.281075D+00
      8a-0.210083D-02 -0.370863D-01 -0.342238D-01 -0.320315D-01 -0.417898D-01
      8b 0.116270D-01  0.338322D-01  0.356106D-01  0.411863D-01  0.307595D-01
      9a-0.397181D-03 -0.458453D-01 -0.287992D-01 -0.411341D-01 -0.365233D-01
      9b 0.766567D-02  0.289719D-01  0.444972D-01  0.365282D-01  0.399320D-01
     10a 0.259118D-01  0.237977D-01 -0.640098D-01  0.149240D-01 -0.598880D-01
     10b-0.109855D-01  0.815872D-01 -0.227242D-01  0.772738D-01 -0.125789D-01
                6a            6b            7a            7b            8a
      6a 0.000000D+00
      6b-0.346863D+00  0.000000D+00
      7a 0.722951D-02  0.352476D+00  0.000000D+00
      7b-0.351502D+00 -0.791582D-02 -0.357423D+00  0.000000D+00
      8a 0.284504D+00 -0.373469D-01  0.285172D+00 -0.247513D-01  0.000000D+00
      8b 0.219721D-01 -0.283639D+00  0.104200D-01 -0.284503D+00 -0.515406D+00
      9a 0.278632D+00 -0.477176D-01  0.279769D+00 -0.357651D-01  0.173246D-01
      9b 0.328770D-01 -0.278669D+00  0.219361D-01 -0.280023D+00 -0.503845D+00
     10a-0.176301D+00  0.175179D+00 -0.168268D+00  0.177434D+00  0.414095D+00
     10b-0.203011D+00  0.197752D+00 -0.205585D+00  0.187392D+00  0.203042D+00
                8b            9a            9b           10a           10b
      8b 0.000000D+00
      9a 0.501396D+00  0.000000D+00
      9b-0.167707D-01 -0.490422D+00  0.000000D+00
     10a-0.199467D+00  0.413621D+00 -0.202440D+00  0.000000D+00
     10b-0.490849D+00  0.207470D+00 -0.490658D+00  0.687624D+00  0.000000D+00
 jaja non-ortho density matrix               [Gau-style] (real):
                 1             2             3             4             5 
      1a  0.839822D+00  0.690334D+00 -0.751772D-01  0.108828D+00 -0.806599D-01
      1b  0.690334D+00  0.630631D+00 -0.196432D+00  0.230767D+00 -0.199565D+00
      2a -0.751772D-01 -0.196432D+00  0.115370D+01 -0.815792D+00  0.116370D+01
      2b  0.108828D+00  0.230767D+00 -0.815792D+00  0.144048D+01 -0.834617D+00
      3a -0.806599D-01 -0.199565D+00  0.116370D+01 -0.834617D+00  0.117526D+01
      3b  0.104341D+00  0.224905D+00 -0.823201D+00  0.145218D+01 -0.842860D+00
      4a -0.137785D+00 -0.207426D-01 -0.151627D+00 -0.927326D-01 -0.116644D+00
      4b -0.158399D+00 -0.251253D+00  0.126788D+00 -0.147347D+00  0.108058D+00
      5a -0.127609D+00 -0.994219D-02 -0.183537D+00 -0.705523D-01 -0.149291D+00
      5b -0.153912D+00 -0.249276D+00  0.147430D+00 -0.186681D+00  0.129587D+00
      6a  0.751417D-01  0.481371D-01 -0.167269D+00  0.110704D+00 -0.184655D+00
      6b  0.686185D-01  0.863471D-01  0.768934D-01 -0.221685D+00  0.888342D-01
      7a  0.745865D-01  0.437229D-01 -0.149881D+00  0.103507D+00 -0.168024D+00
      7b  0.704966D-01  0.923833D-01  0.657837D-01 -0.202939D+00  0.780643D-01
      8a -0.345178D-01 -0.368742D-01  0.519527D-01  0.605858D-02  0.510173D-01
      8b -0.387412D-01 -0.276489D-01  0.242812D-02  0.490351D-01  0.270829D-02
      9a -0.371913D-01 -0.371815D-01  0.513605D-01  0.433907D-02  0.513128D-01
      9b -0.422570D-01 -0.332142D-01  0.403884D-02  0.494257D-01  0.381748D-02
     10a  0.475366D-01  0.548711D-01 -0.462081D-01 -0.176352D-01 -0.409322D-01
     10b  0.457183D-01  0.243048D-01 -0.154480D-01 -0.241975D-01 -0.176811D-01
                 6             7             8             9            10 
      1a  0.104341D+00 -0.137785D+00 -0.158399D+00 -0.127609D+00 -0.153912D+00
      1b  0.224905D+00 -0.207426D-01 -0.251253D+00 -0.994219D-02 -0.249276D+00
      2a -0.823201D+00 -0.151627D+00  0.126788D+00 -0.183537D+00  0.147430D+00
      2b  0.145218D+01 -0.927326D-01 -0.147347D+00 -0.705523D-01 -0.186681D+00
      3a -0.842860D+00 -0.116644D+00  0.108058D+00 -0.149291D+00  0.129587D+00
      3b  0.146567D+01 -0.115449D+00 -0.103934D+00 -0.927549D-01 -0.144122D+00
      4a -0.115449D+00  0.107753D+01 -0.681503D+00  0.107538D+01 -0.674118D+00
      4b -0.103934D+00 -0.681503D+00  0.138006D+01 -0.681850D+00  0.137870D+01
      5a -0.927549D-01  0.107538D+01 -0.681850D+00  0.107505D+01 -0.675359D+00
      5b -0.144122D+00 -0.674118D+00  0.137870D+01 -0.675359D+00  0.137963D+01
      6a  0.115716D+00 -0.141876D+00 -0.113983D+00 -0.110564D+00 -0.134480D+00
      6b -0.242443D+00  0.104846D+00 -0.141673D+00  0.875549D-01 -0.997267D-01
      7a  0.109103D+00 -0.173794D+00 -0.908335D-01 -0.143112D+00 -0.111123D+00
      7b -0.224669D+00  0.124716D+00 -0.181619D+00  0.107797D+00 -0.140437D+00
      8a  0.952644D-02 -0.176783D+00  0.128274D+00 -0.191631D+00  0.130172D+00
      8b  0.481917D-01  0.992271D-01 -0.215909D+00  0.105296D+00 -0.235468D+00
      9a  0.741995D-02 -0.158957D+00  0.123556D+00 -0.174548D+00  0.126117D+00
      9b  0.496751D-01  0.880161D-01 -0.193863D+00  0.944768D-01 -0.214407D+00
     10a -0.217309D-01  0.103041D+00 -0.150234D-01  0.993970D-01 -0.367911D-02
     10b -0.212346D-01 -0.690612D-02  0.639290D-01 -0.691951D-04  0.620917D-01
                11            12            13            14            15 
      1a  0.751417D-01  0.686185D-01  0.745865D-01  0.704966D-01 -0.345178D-01
      1b  0.481371D-01  0.863471D-01  0.437229D-01  0.923833D-01 -0.368742D-01
      2a -0.167269D+00  0.768934D-01 -0.149881D+00  0.657837D-01  0.519527D-01
      2b  0.110704D+00 -0.221685D+00  0.103507D+00 -0.202939D+00  0.605858D-02
      3a -0.184655D+00  0.888342D-01 -0.168024D+00  0.780643D-01  0.510173D-01
      3b  0.115716D+00 -0.242443D+00  0.109103D+00 -0.224669D+00  0.952644D-02
      4a -0.141876D+00  0.104846D+00 -0.173794D+00  0.124716D+00 -0.176783D+00
      4b -0.113983D+00 -0.141673D+00 -0.908335D-01 -0.181619D+00  0.128274D+00
      5a -0.110564D+00  0.875549D-01 -0.143112D+00  0.107797D+00 -0.191631D+00
      5b -0.134480D+00 -0.997267D-01 -0.111123D+00 -0.140437D+00  0.130172D+00
      6a  0.107035D+01 -0.663761D+00  0.106947D+01 -0.657399D+00 -0.142439D+00
      6b -0.663761D+00  0.138433D+01 -0.664396D+00  0.138460D+01 -0.119709D+00
      7a  0.106947D+01 -0.664396D+00  0.107043D+01 -0.659119D+00 -0.112007D+00
      7b -0.657399D+00  0.138460D+01 -0.659119D+00  0.138716D+01 -0.139913D+00
      8a -0.142439D+00 -0.119709D+00 -0.112007D+00 -0.139913D+00  0.110957D+01
      8b  0.974484D-01 -0.150974D+00  0.773911D-01 -0.108571D+00 -0.698993D+00
      9a -0.175980D+00 -0.983627D-01 -0.146171D+00 -0.118457D+00  0.110055D+01
      9b  0.114158D+00 -0.194239D+00  0.945810D-01 -0.152803D+00 -0.687689D+00
     10a -0.233630D+00  0.195378D+00 -0.239861D+00  0.181918D+00  0.118777D+00
     10b  0.103964D+00 -0.143254D+00  0.958663D-01 -0.149176D+00 -0.297513D+00
                16            17            18            19            20 
      1a -0.387412D-01 -0.371913D-01 -0.422570D-01  0.475366D-01  0.457183D-01
      1b -0.276489D-01 -0.371815D-01 -0.332142D-01  0.548711D-01  0.243048D-01
      2a  0.242812D-02  0.513605D-01  0.403884D-02 -0.462081D-01 -0.154480D-01
      2b  0.490351D-01  0.433907D-02  0.494257D-01 -0.176352D-01 -0.241975D-01
      3a  0.270829D-02  0.513128D-01  0.381748D-02 -0.409322D-01 -0.176811D-01
      3b  0.481917D-01  0.741995D-02  0.496751D-01 -0.217309D-01 -0.212346D-01
      4a  0.992271D-01 -0.158957D+00  0.880161D-01  0.103041D+00 -0.690612D-02
      4b -0.215909D+00  0.123556D+00 -0.193863D+00 -0.150234D-01  0.639290D-01
      5a  0.105296D+00 -0.174548D+00  0.944768D-01  0.993970D-01 -0.691951D-04
      5b -0.235468D+00  0.126117D+00 -0.214407D+00 -0.367911D-02  0.620917D-01
      6a  0.974484D-01 -0.175980D+00  0.114158D+00 -0.233630D+00  0.103964D+00
      6b -0.150974D+00 -0.983627D-01 -0.194239D+00  0.195378D+00 -0.143254D+00
      7a  0.773911D-01 -0.146171D+00  0.945810D-01 -0.239861D+00  0.958663D-01
      7b -0.108571D+00 -0.118457D+00 -0.152803D+00  0.181918D+00 -0.149176D+00
      8a -0.698993D+00  0.110055D+01 -0.687689D+00  0.118777D+00 -0.297513D+00
      8b  0.153136D+01 -0.699492D+00  0.151533D+01 -0.526279D+00  0.254661D-01
      9a -0.699492D+00  0.109299D+01 -0.688767D+00  0.125739D+00 -0.296273D+00
      9b  0.151533D+01 -0.688767D+00  0.150119D+01 -0.525616D+00  0.298490D-01
     10a -0.526279D+00  0.125739D+00 -0.525616D+00  0.843455D+00  0.231150D+00
     10b  0.254661D-01 -0.296273D+00  0.298490D-01  0.231150D+00  0.627000D+00
 jaja non-ortho density matrix               [Gau-style] (imaginary):
                 1             2             3             4             5 
      1a  0.000000D+00  0.224651D+00 -0.473208D+00  0.506466D+00 -0.473578D+00
      1b -0.224651D+00  0.000000D+00 -0.360393D+00  0.396171D+00 -0.359132D+00
      2a  0.473208D+00  0.360393D+00  0.000000D+00  0.265503D+00 -0.168598D-01
      2b -0.506466D+00 -0.396171D+00 -0.265503D+00  0.000000D+00 -0.261480D+00
      3a  0.473578D+00  0.359132D+00  0.168598D-01  0.261480D+00  0.000000D+00
      3b -0.505110D+00 -0.396824D+00 -0.263156D+00 -0.174137D-01 -0.259256D+00
      4a -0.175530D+00 -0.179010D+00  0.278532D+00  0.129269D-01  0.283077D+00
      4b  0.253570D+00  0.156407D+00 -0.396592D-01 -0.278279D+00 -0.484873D-01
      5a -0.185672D+00 -0.184745D+00  0.277414D+00  0.416089D-02  0.282447D+00
      5b  0.261516D+00  0.164221D+00 -0.298724D-01 -0.277377D+00 -0.388459D-01
      6a  0.870100D-02  0.320950D-01 -0.394329D-01 -0.638533D-01 -0.302983D-01
      6b -0.482894D-01 -0.110460D-01  0.681797D-01  0.406351D-01  0.707447D-01
      7a  0.184359D-01  0.398363D-01 -0.439956D-01 -0.645330D-01 -0.351529D-01
      7b -0.593920D-01 -0.195094D-01  0.690500D-01  0.453436D-01  0.719272D-01
      8a  0.123454D-01 -0.128042D-02 -0.765924D-02 -0.281263D-02 -0.116270D-01
      8b  0.290374D-02 -0.985464D-02  0.458538D-02  0.775657D-02  0.404596D-02
      9a  0.864790D-02 -0.517705D-02 -0.362981D-02 -0.134161D-02 -0.776299D-02
      9b  0.854316D-02 -0.659989D-02  0.286744D-02  0.362982D-02  0.211424D-02
     10a -0.434425D-01 -0.175350D-01  0.493049D-02  0.295821D-01  0.849463D-02
     10b  0.330032D-01  0.434425D-01 -0.406715D-01 -0.697853D-02 -0.360648D-01
                 6             7             8             9            10 
      1a  0.505110D+00  0.175530D+00 -0.253570D+00  0.185672D+00 -0.261516D+00
      1b  0.396824D+00  0.179010D+00 -0.156407D+00  0.184745D+00 -0.164221D+00
      2a  0.263156D+00 -0.278532D+00  0.396592D-01 -0.277414D+00  0.298724D-01
      2b  0.174137D-01 -0.129269D-01  0.278279D+00 -0.416089D-02  0.277377D+00
      3a  0.259256D+00 -0.283077D+00  0.484873D-01 -0.282447D+00  0.388459D-01
      3b  0.000000D+00 -0.218093D-01  0.283747D+00 -0.131512D-01  0.283312D+00
      4a  0.218093D-01  0.000000D+00  0.316136D+00 -0.774671D-02  0.320941D+00
      4b -0.283747D+00 -0.316136D+00  0.000000D+00 -0.320450D+00  0.706041D-02
      5a  0.131512D-01  0.774671D-02  0.320450D+00  0.000000D+00  0.325941D+00
      5b -0.283312D+00 -0.320941D+00 -0.706041D-02 -0.325941D+00  0.000000D+00
      6a -0.673544D-01  0.281096D+00 -0.110138D-01  0.285870D+00  0.154176D-02
      6b  0.315703D-01 -0.893047D-02 -0.281807D+00 -0.220344D-01 -0.285870D+00
      7a -0.683555D-01  0.276921D+00 -0.183202D-01  0.281786D+00 -0.588984D-02
      7b  0.366286D-01 -0.129697D-02 -0.276921D+00 -0.142348D-01 -0.281075D+00
      8a -0.210083D-02 -0.370863D-01 -0.342238D-01 -0.320315D-01 -0.417898D-01
      8b  0.116270D-01  0.338322D-01  0.356106D-01  0.411863D-01  0.307595D-01
      9a -0.397181D-03 -0.458453D-01 -0.287992D-01 -0.411341D-01 -0.365233D-01
      9b  0.766567D-02  0.289719D-01  0.444972D-01  0.365282D-01  0.399320D-01
     10a  0.259118D-01  0.237977D-01 -0.640098D-01  0.149240D-01 -0.598880D-01
     10b -0.109855D-01  0.815872D-01 -0.227242D-01  0.772738D-01 -0.125789D-01
                11            12            13            14            15 
      1a -0.870100D-02  0.482894D-01 -0.184359D-01  0.593920D-01 -0.123454D-01
      1b -0.320950D-01  0.110460D-01 -0.398363D-01  0.195094D-01  0.128042D-02
      2a  0.394329D-01 -0.681797D-01  0.439956D-01 -0.690500D-01  0.765924D-02
      2b  0.638533D-01 -0.406351D-01  0.645330D-01 -0.453436D-01  0.281263D-02
      3a  0.302983D-01 -0.707447D-01  0.351529D-01 -0.719272D-01  0.116270D-01
      3b  0.673544D-01 -0.315703D-01  0.683555D-01 -0.366286D-01  0.210083D-02
      4a -0.281096D+00  0.893047D-02 -0.276921D+00  0.129697D-02  0.370863D-01
      4b  0.110138D-01  0.281807D+00  0.183202D-01  0.276921D+00  0.342238D-01
      5a -0.285870D+00  0.220344D-01 -0.281786D+00  0.142348D-01  0.320315D-01
      5b -0.154176D-02  0.285870D+00  0.588984D-02  0.281075D+00  0.417898D-01
      6a  0.000000D+00  0.346863D+00 -0.722951D-02  0.351502D+00 -0.284504D+00
      6b -0.346863D+00  0.000000D+00 -0.352476D+00  0.791582D-02  0.373469D-01
      7a  0.722951D-02  0.352476D+00  0.000000D+00  0.357423D+00 -0.285172D+00
      7b -0.351502D+00 -0.791582D-02 -0.357423D+00  0.000000D+00  0.247513D-01
      8a  0.284504D+00 -0.373469D-01  0.285172D+00 -0.247513D-01  0.000000D+00
      8b  0.219721D-01 -0.283639D+00  0.104200D-01 -0.284503D+00 -0.515406D+00
      9a  0.278632D+00 -0.477176D-01  0.279769D+00 -0.357651D-01  0.173246D-01
      9b  0.328770D-01 -0.278669D+00  0.219361D-01 -0.280023D+00 -0.503845D+00
     10a -0.176301D+00  0.175179D+00 -0.168268D+00  0.177434D+00  0.414095D+00
     10b -0.203011D+00  0.197752D+00 -0.205585D+00  0.187392D+00  0.203042D+00
                16            17            18            19            20 
      1a -0.290374D-02 -0.864790D-02 -0.854316D-02  0.434425D-01 -0.330032D-01
      1b  0.985464D-02  0.517705D-02  0.659989D-02  0.175350D-01 -0.434425D-01
      2a -0.458538D-02  0.362981D-02 -0.286744D-02 -0.493049D-02  0.406715D-01
      2b -0.775657D-02  0.134161D-02 -0.362982D-02 -0.295821D-01  0.697853D-02
      3a -0.404596D-02  0.776299D-02 -0.211424D-02 -0.849463D-02  0.360648D-01
      3b -0.116270D-01  0.397181D-03 -0.766567D-02 -0.259118D-01  0.109855D-01
      4a -0.338322D-01  0.458453D-01 -0.289719D-01 -0.237977D-01 -0.815872D-01
      4b -0.356106D-01  0.287992D-01 -0.444972D-01  0.640098D-01  0.227242D-01
      5a -0.411863D-01  0.411341D-01 -0.365282D-01 -0.149240D-01 -0.772738D-01
      5b -0.307595D-01  0.365233D-01 -0.399320D-01  0.598880D-01  0.125789D-01
      6a -0.219721D-01 -0.278632D+00 -0.328770D-01  0.176301D+00  0.203011D+00
      6b  0.283639D+00  0.477176D-01  0.278669D+00 -0.175179D+00 -0.197752D+00
      7a -0.104200D-01 -0.279769D+00 -0.219361D-01  0.168268D+00  0.205585D+00
      7b  0.284503D+00  0.357651D-01  0.280023D+00 -0.177434D+00 -0.187392D+00
      8a  0.515406D+00 -0.173246D-01  0.503845D+00 -0.414095D+00 -0.203042D+00
      8b  0.000000D+00 -0.501396D+00  0.167707D-01  0.199467D+00  0.490849D+00
      9a  0.501396D+00  0.000000D+00  0.490422D+00 -0.413621D+00 -0.207470D+00
      9b -0.167707D-01 -0.490422D+00  0.000000D+00  0.202440D+00  0.490658D+00
     10a -0.199467D+00  0.413621D+00 -0.202440D+00  0.000000D+00 -0.687624D+00
     10b -0.490849D+00  0.207470D+00 -0.490658D+00  0.687624D+00  0.000000D+00
FORTRAN STOP
