 Entering Gaussian System, Link 0=gdv
 AtFile(1): H.gbs
            H     0
            S   10   1.00
               1000.000000000000            0.000068713567
                316.227766000000            0.000169141320
                100.000000000000            0.000823394812
                 31.622776600000            0.003425569236
                 10.000000000000            0.013951996000
                  3.162277660000            0.056909313560
                  1.000000000000            0.198286399900
                  0.316227766000            0.496922426700
                  0.100000000000            0.369846276400
                  0.031622776600            0.003752720039
            ****
 Initial command:
 /users/lcj1/GHF_hess/exe-dir/l1.exe "/users/lcj1/GHF_hess/h10_2rows/mixrmY/Gau-4357.inp" -scrdir="/users/lcj1/GHF_hess/h10_2rows/mixrmY/"
 Entering Link 1 = /users/lcj1/GHF_hess/exe-dir/l1.exe PID=      4358.
  
 Copyright (c) 1988,1990,1992,1993,1995,1998,2003,2009,2012,
            Gaussian, Inc.  All Rights Reserved.
  
 This is the private, development version of
 the Gaussian(R) DV system of programs. It is based on
 the Gaussian(R) 09 system (copyright 2009, Gaussian, Inc.),
 the Gaussian(R) 03 system (copyright 2003, Gaussian, Inc.),
 the Gaussian(R) 98 system (copyright 1998, Gaussian, Inc.),
 the Gaussian(R) 94 system (copyright 1995, Gaussian, Inc.),
 the Gaussian 92(TM) system (copyright 1992, Gaussian, Inc.),
 the Gaussian 90(TM) system (copyright 1990, Gaussian, Inc.),
 the Gaussian 88(TM) system (copyright 1988, Gaussian, Inc.),
 the Gaussian 86(TM) system (copyright 1986, Carnegie Mellon
 University), and the Gaussian 82(TM) system (copyright 1983,
 Carnegie Mellon University). Gaussian is a federally registered
 trademark of Gaussian, Inc.
  
 This software contains proprietary and confidential information,
 including trade secrets, belonging to Gaussian, Inc.
  
 This software is provided under written license and may be
 used, copied, transmitted, or stored only in accord with that
 written license.
  
 The following legend is applicable only to US Government
 contracts under FAR:
  
                    RESTRICTED RIGHTS LEGEND
  
 Use, reproduction and disclosure by the US Government is
 subject to restrictions as set forth in subparagraphs (a)
 and (c) of the Commercial Computer Software - Restricted
 Rights clause in FAR 52.227-19.
  
 Gaussian, Inc.
 340 Quinnipiac St., Bldg. 40, Wallingford CT 06492
  
  
 ---------------------------------------------------------------
 Warning -- This program may not be used in any manner that
 competes with the business of Gaussian, Inc. or will provide
 assistance to any competitor of Gaussian, Inc.  The licensee
 of this program is prohibited from giving any competitor of
 Gaussian, Inc. access to this program.  By using this program,
 the user acknowledges that Gaussian, Inc. is engaged in the
 business of creating and licensing software in the field of
 computational chemistry and represents and warrants to the
 licensee that it is not a competitor of Gaussian, Inc. and that
 it will not use this program in any manner prohibited above.
 ---------------------------------------------------------------
  

 Cite this work as:
 Gaussian Development Version, Revision H.21,
 M. J. Frisch, G. W. Trucks, H. B. Schlegel, G. E. Scuseria, 
 M. A. Robb, J. R. Cheeseman, G. Scalmani, V. Barone, B. Mennucci, 
 G. A. Petersson, H. Nakatsuji, M. Caricato, X. Li, H. P. Hratchian, 
 A. F. Izmaylov, J. Bloino, G. Zheng, J. L. Sonnenberg, W. Liang, 
 M. Hada, M. Ehara, K. Toyota, R. Fukuda, J. Hasegawa, M. Ishida, 
 T. Nakajima, Y. Honda, O. Kitao, H. Nakai, T. Vreven, 
 J. A. Montgomery, Jr., J. E. Peralta, F. Ogliaro, M. Bearpark, 
 J. J. Heyd, E. Brothers, K. N. Kudin, V. N. Staroverov, T. Keith, 
 R. Kobayashi, J. Normand, K. Raghavachari, A. Rendell, J. C. Burant, 
 S. S. Iyengar, J. Tomasi, M. Cossi, N. Rega, J. M. Millam, M. Klene, 
 J. E. Knox, J. B. Cross, V. Bakken, C. Adamo, J. Jaramillo, 
 R. Gomperts, R. E. Stratmann, O. Yazyev, A. J. Austin, R. Cammi, 
 C. Pomelli, J. W. Ochterski, R. L. Martin, K. Morokuma, 
 V. G. Zakrzewski, G. A. Voth, P. Salvador, J. J. Dannenberg, 
 S. Dapprich, P. V. Parandekar, N. J. Mayhall, A. D. Daniels, 
 O. Farkas, J. B. Foresman, J. V. Ortiz, J. Cioslowski, 
 and D. J. Fox, Gaussian, Inc., Wallingford CT, 2010.
 
 ******************************************
 Gaussian DV:  EM64L-GDVRevH.21 13-May-2012
                28-Feb-2017 
 ******************************************
 %chk=h10.chk
 ----------------------------------------------------------------------
 #ghf/gen scf(tight,novaracc,noincfock,fulldiag) stable guess=mix geom=
 nocrowd use=l802 use=l902 test
 ----------------------------------------------------------------------
 ********************************************
   THE COMPLEX ERI TRANSFORMATION WITH L802  
        COMPLEX STABILITY WITH L902          
 ********************************************
 1/38=1/1;
 2/12=1,17=6,18=5,40=1/2;
 3/5=7,16=1,25=20,28=1,116=7/1,2,3,20;
 4/13=-1/1;
 5/5=100001,16=1,32=2,38=1/2;
 8/6=1,10=90,11=11/1,2;
 9/8=4,13=1/1,2;
 6/7=2,8=2,9=2,10=2,28=1/1;
 99/5=1,9=1/99;
 ----------------------------------------------------------------------
 hf stability analysis of h10 triangular lattice, y= 0.4135443701547177
 3 alpha= 16.500000000000000
 ----------------------------------------------------------------------
 Symbolic Z-Matrix:
 Charge =  0 Multiplicity = 1
 H
 H                    1     1.45606 
 H                    1     1.45606  2     147. 
 H                    2     1.45606  1     33.      3     0.       0
 H                    3     1.45606  1     180.     2     0.       0
 H                    4     1.45606  2     180.     1     0.       0
 H                    5     1.45606  3     180.     2     0.       0
 H                    6     1.45606  4     180.     1     0.       0
 H                    7     1.45606  5     180.     2     0.       0
 H                    8     1.45606  6     180.     1     0.       0
 
                          Input orientation:                          
 ---------------------------------------------------------------------
 Center     Atomic      Atomic             Coordinates (Angstroms)
 Number     Number       Type             X           Y           Z
 ---------------------------------------------------------------------
      1          1           0        0.000000    0.000000    0.000000
      2          1           0        0.000000    0.000000    1.456063
      3          1           0        0.793029    0.000000   -1.221158
      4          1           0        0.793029    0.000000    0.234906
      5          1           0        1.586058    0.000000   -2.442315
      6          1           0        1.586058    0.000000   -0.986252
      7          1           0        2.379087    0.000000   -3.663473
      8          1           0        2.379087    0.000000   -2.207409
      9          1           0        3.172116    0.000000   -4.884630
     10          1           0        3.172116    0.000000   -3.428567
 ---------------------------------------------------------------------
                    Distance matrix (angstroms):
                    1          2          3          4          5
     1  H    0.000000
     2  H    1.456063   0.000000
     3  H    1.456063   2.792205   0.000000
     4  H    0.827089   1.456063   1.456063   0.000000
     5  H    2.912127   4.208674   1.456063   2.792205   0.000000
     6  H    1.867692   2.912127   0.827089   1.456063   1.456063
     7  H    4.368190   5.645326   2.912127   4.208674   1.456063
     8  H    3.245414   4.368190   1.867692   2.912127   0.827089
     9  H    5.824254   7.089902   4.368190   5.645326   2.912127
    10  H    4.670909   5.824254   3.245414   4.368190   1.867692
                    6          7          8          9         10
     6  H    0.000000
     7  H    2.792205   0.000000
     8  H    1.456063   1.456063   0.000000
     9  H    4.208674   1.456063   2.792205   0.000000
    10  H    2.912127   0.827089   1.456063   1.456063   0.000000
 Stoichiometry    H10
 Framework group  C2H[SGH(H10)]
 Deg. of freedom     9
 Full point group                 C2H     NOp   4
 Largest Abelian subgroup         C2H     NOp   4
 Largest concise Abelian subgroup C2      NOp   2
                         Standard orientation:                         
 ---------------------------------------------------------------------
 Center     Atomic      Atomic             Coordinates (Angstroms)
 Number     Number       Type             X           Y           Z
 ---------------------------------------------------------------------
      1          1           0        1.586058   -1.714283    0.000000
      2          1           0        1.586058   -3.170347    0.000000
      3          1           0        0.793029   -0.493126    0.000000
      4          1           0        0.793029   -1.949189    0.000000
      5          1           0        0.000000    0.728032    0.000000
      6          1           0        0.000000   -0.728032    0.000000
      7          1           0       -0.793029    1.949189    0.000000
      8          1           0       -0.793029    0.493126    0.000000
      9          1           0       -1.586058    3.170347    0.000000
     10          1           0       -1.586058    1.714283    0.000000
 ---------------------------------------------------------------------
 Rotational constants (GHZ):    347.9720329     10.8395450     10.5120870
 General basis read from cards:  (5D, 7F)
 There are     5 symmetry adapted cartesian basis functions of AG  symmetry.
 There are     0 symmetry adapted cartesian basis functions of BG  symmetry.
 There are     0 symmetry adapted cartesian basis functions of AU  symmetry.
 There are     5 symmetry adapted cartesian basis functions of BU  symmetry.
 There are     5 symmetry adapted basis functions of AG  symmetry.
 There are     0 symmetry adapted basis functions of BG  symmetry.
 There are     0 symmetry adapted basis functions of AU  symmetry.
 There are     5 symmetry adapted basis functions of BU  symmetry.
    10 basis functions,   100 primitive gaussians,    10 cartesian basis functions
     5 alpha electrons        5 beta electrons
       nuclear repulsion energy        11.7271893061 Hartrees.
 NAtoms=   10 NActive=   10 NUniq=    5 SFac= 4.00D+00 NAtFMM=   60 NAOKFM=F Big=F
 Integral buffers will be    131072 words long.
 Regular integral format.
 Two-electron integral symmetry is turned off.
 One-electron integrals computed using PRISM.
 NBasis=    10 RedAO= T EigKep=  1.78D-01  NBF=     5     0     0     5
 NBsUse=    10 1.00D-06 EigRej= -1.00D+00 NBFU=     5     0     0     5
 IOp(28)                       1
                        1                       0
                        2                       1
                        3                       1
                        4                      20
                        5                       0
                        6                       0
                        7                      10
                        8                       1
                        9                       4
                       10                       0
                       11              1073741824
                       12                      20
                       13                       2
                       14                  131070
                       15                       1
                       16                       1
                       17                  131073
                       18                       0
                       19                       0
                       20                       0
                       21                       2
                       22                  131070
                       23                       0
                       24                       0
                       25                       0
                       26                       0
                       27                   65535
                       28                       2
                       29                  131072
                       30                       0
 IHMeth                       1
 ib3: ISMode =                        0                       4
 Enter DskPsm, NBasis=  10 NBas6D=  10 NShell=  10 IDoSP=4.
 Out2e will use a cutoff of  1.00D-10
 FoFCou: FMM=F IPFlag=           0 FMFlag=           0 FMFlg1=           0
         NFxFlg=           0 DoJE=F BraDBF=F KetDBF=F FulRan=T
         wScrn=  0.000000 ICntrl=     600 IOpCl=  9 I1Cent=           0 NGrid=           0
         NMat0=    0 NMatS0=      0 NMatT0=    0 NMatD0=    0 NMtDS0=    0 NMtDT0=    0
 Symmetry not used in FoFCou.
 Entering PrmDigJobTyp =                      20
 LenSav and NKeep                       0                       0
 Entered Stor2E with KNTT1,2                       2                  131070
 Leave Stor2X
 Entering PrmDigJobTyp =                      20
 LenSav and NKeep                       0                       0
 Entered Stor2E with KNTT1,2                       2                  131056
 Leave Stor2X
 Entering PrmDigJobTyp =                      20
 LenSav and NKeep                       0                       0
 Entered Stor2E with KNTT1,2                       2                  131042
 Leave Stor2X
 Entering PrmDigJobTyp =                      20
 LenSav and NKeep                       0                       0
 Entered Stor2E with KNTT1,2                       2                  131028
 Leave Stor2X
 Entering PrmDigJobTyp =                      20
 LenSav and NKeep                       0                       0
 Entered Stor2E with KNTT1,2                       2                  131014
 Leave Stor2X
 Entering PrmDigJobTyp =                      20
 LenSav and NKeep                       0                       0
 Entered Stor2E with KNTT1,2                       2                  131000
 Leave Stor2X
 Entering PrmDigJobTyp =                      20
 LenSav and NKeep                       0                       0
 Entered Stor2E with KNTT1,2                       2                  130986
 Leave Stor2X
 Entering PrmDigJobTyp =                      20
 LenSav and NKeep                       0                       0
 Entered Stor2E with KNTT1,2                       2                  130972
 Leave Stor2X
 Entering PrmDigJobTyp =                      20
 LenSav and NKeep                       0                       0
 Entered Stor2E with KNTT1,2                       2                  130960
 Leave Stor2X
 Entering PrmDigJobTyp =                      20
 LenSav and NKeep                       0                       0
 Entered Stor2E with KNTT1,2                       2                  130944
 Leave Stor2X
 Entering PrmDigJobTyp =                      20
 LenSav and NKeep                       0                       0
 Entered Stor2E with KNTT1,2                       2                  130928
 Leave Stor2X
 Entering PrmDigJobTyp =                      20
 LenSav and NKeep                       0                       0
 Entered Stor2E with KNTT1,2                       2                  130912
 Leave Stor2X
 Entering PrmDigJobTyp =                      20
 LenSav and NKeep                       0                       0
 Entered Stor2E with KNTT1,2                       2                  130896
 Leave Stor2X
 Entering PrmDigJobTyp =                      20
 LenSav and NKeep                       0                       0
 Entered Stor2E with KNTT1,2                       2                  130880
 Leave Stor2X
 Entering PrmDigJobTyp =                      20
 LenSav and NKeep                       0                       0
 Entered Stor2E with KNTT1,2                       2                  130864
 Leave Stor2X
 Entering PrmDigJobTyp =                      20
 LenSav and NKeep                       0                       0
 Entered Stor2E with KNTT1,2                       2                  130848
 Leave Stor2X
 Entering PrmDigJobTyp =                      20
 LenSav and NKeep                       0                       0
 Entered Stor2E with KNTT1,2                       2                  130832
 Leave Stor2X
 Entering PrmDigJobTyp =                      20
 LenSav and NKeep                       0                       0
 Entered Stor2E with KNTT1,2                       2                  130816
 Leave Stor2X
 Entering PrmDigJobTyp =                      20
 LenSav and NKeep                       0                       0
 Entered Stor2E with KNTT1,2                       2                  130800
 Leave Stor2X
 Entering PrmDigJobTyp =                      20
 LenSav and NKeep                       0                       0
 Entered Stor2E with KNTT1,2                       2                  130784
 Leave Stor2X
 Entering PrmDigJobTyp =                      20
 LenSav and NKeep                       0                       0
 Entered Stor2E with KNTT1,2                       2                  130768
 Leave Stor2X
 Entering PrmDigJobTyp =                      20
 LenSav and NKeep                       0                       0
 Entered Stor2E with KNTT1,2                       2                  130752
 Leave Stor2X
 Entering PrmDigJobTyp =                      20
 LenSav and NKeep                       0                       0
 Entered Stor2E with KNTT1,2                       2                  130736
 Leave Stor2X
 Entering PrmDigJobTyp =                      20
 LenSav and NKeep                       0                       0
 Entered Stor2E with KNTT1,2                       2                  130720
 Leave Stor2X
 Entering PrmDigJobTyp =                      20
 LenSav and NKeep                       0                       0
 Entered Stor2E with KNTT1,2                       2                  130704
 Leave Stor2X
 Entering PrmDigJobTyp =                      20
 LenSav and NKeep                       0                       0
 Entered Stor2E with KNTT1,2                       2                  130700
 Leave Stor2X
 Entering PrmDigJobTyp =                      20
 LenSav and NKeep                       0                       0
 Entered Stor2E with KNTT1,2                       8                  130682
 Leave Stor2X
 Entering PrmDigJobTyp =                      20
 LenSav and NKeep                       0                       0
 Entered Stor2E with KNTT1,2                      22                  130672
 Leave Stor2X
 Entering PrmDigJobTyp =                      20
 LenSav and NKeep                       0                       0
 Entered Stor2E with KNTT1,2                      34                  130660
 Leave Stor2X
 Entering PrmDigJobTyp =                      20
 LenSav and NKeep                       0                       0
 Entered Stor2E with KNTT1,2                      52                  130654
 Leave Stor2X
 Entering PrmDigJobTyp =                      20
 LenSav and NKeep                       0                       0
 Entered Stor2E with KNTT1,2                      70                  130648
 Leave Stor2X
 Entering PrmDigJobTyp =                      20
 LenSav and NKeep                       0                       0
 Entered Stor2E with KNTT1,2                      88                  130642
 Leave Stor2X
 Entering PrmDigJobTyp =                      20
 LenSav and NKeep                       0                       0
 Entered Stor2E with KNTT1,2                     106                  130636
 Leave Stor2X
 Entering PrmDigJobTyp =                      20
 LenSav and NKeep                       0                       0
 Entered Stor2E with KNTT1,2                     114                  130630
 Leave Stor2X
 Entering PrmDigJobTyp =                      20
 LenSav and NKeep                       0                       0
 Entered Stor2E with KNTT1,2                     114                  130610
 Leave Stor2X
 Entering PrmDigJobTyp =                      20
 LenSav and NKeep                       0                       0
 Entered Stor2E with KNTT1,2                     114                  130590
 Leave Stor2X
 Entering PrmDigJobTyp =                      20
 LenSav and NKeep                       0                       0
 Entered Stor2E with KNTT1,2                     114                  130570
 Leave Stor2X
 Entering PrmDigJobTyp =                      20
 LenSav and NKeep                       0                       0
 Entered Stor2E with KNTT1,2                     114                  130550
 Leave Stor2X
 Entering PrmDigJobTyp =                      20
 LenSav and NKeep                       0                       0
 Entered Stor2E with KNTT1,2                     114                  130530
 Leave Stor2X
 Entering PrmDigJobTyp =                      20
 LenSav and NKeep                       0                       0
 Entered Stor2E with KNTT1,2                     114                  130510
 Leave Stor2X
 Entering PrmDigJobTyp =                      20
 LenSav and NKeep                       0                       0
 Entered Stor2E with KNTT1,2                     114                  130490
 Leave Stor2X
 Entering PrmDigJobTyp =                      20
 LenSav and NKeep                       0                       0
 Entered Stor2E with KNTT1,2                     114                  130470
 Leave Stor2X
 Entering PrmDigJobTyp =                      20
 LenSav and NKeep                       0                       0
 Entered Stor2E with KNTT1,2                     114                  130450
 Leave Stor2X
 Entering PrmDigJobTyp =                      20
 LenSav and NKeep                       0                       0
 Entered Stor2E with KNTT1,2                     114                  130430
 Leave Stor2X
 Entering PrmDigJobTyp =                      20
 LenSav and NKeep                       0                       0
 Entered Stor2E with KNTT1,2                     130                  130416
 Leave Stor2X
 Entering PrmDigJobTyp =                      20
 LenSav and NKeep                       0                       0
 Entered Stor2E with KNTT1,2                     150                  130406
 Leave Stor2X
 Entering PrmDigJobTyp =                      20
 LenSav and NKeep                       0                       0
 Entered Stor2E with KNTT1,2                     166                  130392
 Leave Stor2X
 Entering PrmDigJobTyp =                      20
 LenSav and NKeep                       0                       0
 Entered Stor2E with KNTT1,2                     184                  130380
 Leave Stor2X
 Entering PrmDigJobTyp =                      20
 LenSav and NKeep                       0                       0
 Entered Stor2E with KNTT1,2                     200                  130366
 Leave Stor2X
 Entering PrmDigJobTyp =                      20
 LenSav and NKeep                       0                       0
 Entered Stor2E with KNTT1,2                     216                  130352
 Leave Stor2X
 Entering PrmDigJobTyp =                      20
 LenSav and NKeep                       0                       0
 Entered Stor2E with KNTT1,2                     236                  130342
 Leave Stor2X
 Entering PrmDigJobTyp =                      20
 LenSav and NKeep                       0                       0
 Entered Stor2E with KNTT1,2                     256                  130332
 Leave Stor2X
 Entering PrmDigJobTyp =                      20
 LenSav and NKeep                       0                       0
 Entered Stor2E with KNTT1,2                     266                  130322
 Leave Stor2X
 Entering PrmDigJobTyp =                      20
 LenSav and NKeep                       0                       0
 Entered Stor2E with KNTT1,2                     286                  130304
 Leave Stor2X
 Entering PrmDigJobTyp =                      20
 LenSav and NKeep                       0                       0
 Entered Stor2E with KNTT1,2                     310                  130290
 Leave Stor2X
 Entering PrmDigJobTyp =                      20
 LenSav and NKeep                       0                       0
 Entered Stor2E with KNTT1,2                     332                  130278
 Leave Stor2X
 Entering PrmDigJobTyp =                      20
 LenSav and NKeep                       0                       0
 Entered Stor2E with KNTT1,2                     332                  130264
 Leave Stor2X
 Entering PrmDigJobTyp =                      20
 LenSav and NKeep                       0                       0
 Entered Stor2E with KNTT1,2                     332                  130250
 Leave Stor2X
 Entering PrmDigJobTyp =                      20
 LenSav and NKeep                       0                       0
 Entered Stor2E with KNTT1,2                     332                  130236
 Leave Stor2X
 Entering PrmDigJobTyp =                      20
 LenSav and NKeep                       0                       0
 Entered Stor2E with KNTT1,2                     332                  130222
 Leave Stor2X
 Entering PrmDigJobTyp =                      20
 LenSav and NKeep                       0                       0
 Entered Stor2E with KNTT1,2                     332                  130208
 Leave Stor2X
 Entering PrmDigJobTyp =                      20
 LenSav and NKeep                       0                       0
 Entered Stor2E with KNTT1,2                     332                  130198
 Leave Stor2X
 Entering PrmDigJobTyp =                      20
 LenSav and NKeep                       0                       0
 Entered Stor2E with KNTT1,2                     342                  130188
 Leave Stor2X
 Entering PrmDigJobTyp =                      20
 LenSav and NKeep                       0                       0
 Entered Stor2E with KNTT1,2                     352                  130178
 Leave Stor2X
 Entering PrmDigJobTyp =                      20
 LenSav and NKeep                       0                       0
 Entered Stor2E with KNTT1,2                     370                  130176
 Leave Stor2X
 Entering PrmDigJobTyp =                      20
 LenSav and NKeep                       0                       0
 Entered Stor2E with KNTT1,2                     378                  130164
 Leave Stor2X
 Entering PrmDigJobTyp =                      20
 LenSav and NKeep                       0                       0
 Entered Stor2E with KNTT1,2                     392                  130158
 Leave Stor2X
 Entering PrmDigJobTyp =                      20
 LenSav and NKeep                       0                       0
 Entered Stor2E with KNTT1,2                     392                  130154
 Leave Stor2X
 Entering PrmDigJobTyp =                      20
 LenSav and NKeep                       0                       0
 Entered Stor2E with KNTT1,2                     410                  130146
 Leave Stor2X
 Entering PrmDigJobTyp =                      20
 LenSav and NKeep                       0                       0
 Entered Stor2E with KNTT1,2                     424                  130134
 Leave Stor2X
 Entering PrmDigJobTyp =                      20
 LenSav and NKeep                       0                       0
 Entered Stor2E with KNTT1,2                     440                  130124
 Leave Stor2X
 Entering PrmDigJobTyp =                      20
 LenSav and NKeep                       0                       0
 Entered Stor2E with KNTT1,2                     440                  130122
 Leave Stor2X
 Entering PrmDigJobTyp =                      20
 LenSav and NKeep                       0                       0
 Entered Stor2E with KNTT1,2                     452                  130116
 Leave Stor2X
 Entering PrmDigJobTyp =                      20
 LenSav and NKeep                       0                       0
 Entered Stor2E with KNTT1,2                     452                  130114
 Leave Stor2X
 Entering PrmDigJobTyp =                      20
 LenSav and NKeep                       0                       0
 Entered Stor2E with KNTT1,2                     452                  130090
 Leave Stor2X
 Entering PrmDigJobTyp =                      20
 LenSav and NKeep                       0                       0
 Entered Stor2E with KNTT1,2                     452                  130066
 Leave Stor2X
 Entering PrmDigJobTyp =                      20
 LenSav and NKeep                       0                       0
 Entered Stor2E with KNTT1,2                     452                  130042
 Leave Stor2X
 Entering PrmDigJobTyp =                      20
 LenSav and NKeep                       0                       0
 Entered Stor2E with KNTT1,2                     452                  130018
 Leave Stor2X
 Entering PrmDigJobTyp =                      20
 LenSav and NKeep                       0                       0
 Entered Stor2E with KNTT1,2                     452                  129994
 Leave Stor2X
 Entering PrmDigJobTyp =                      20
 LenSav and NKeep                       0                       0
 Entered Stor2E with KNTT1,2                     452                  129974
 Leave Stor2X
 Entering PrmDigJobTyp =                      20
 LenSav and NKeep                       0                       0
 Entered Stor2E with KNTT1,2                     472                  129960
 Leave Stor2X
 Entering PrmDigJobTyp =                      20
 LenSav and NKeep                       0                       0
 Entered Stor2E with KNTT1,2                     492                  129946
 Leave Stor2X
 Entering PrmDigJobTyp =                      20
 LenSav and NKeep                       0                       0
 Entered Stor2E with KNTT1,2                     512                  129932
 Leave Stor2X
 Entering PrmDigJobTyp =                      20
 LenSav and NKeep                       0                       0
 Entered Stor2E with KNTT1,2                     536                  129922
 Leave Stor2X
 Entering PrmDigJobTyp =                      20
 LenSav and NKeep                       0                       0
 Entered Stor2E with KNTT1,2                     554                  129906
 Leave Stor2X
 Entering PrmDigJobTyp =                      20
 LenSav and NKeep                       0                       0
 Entered Stor2E with KNTT1,2                     562                  129902
 Leave Stor2X
 Entering PrmDigJobTyp =                      20
 LenSav and NKeep                       0                       0
 Entered Stor2E with KNTT1,2                     590                  129886
 Leave Stor2X
 Entering PrmDigJobTyp =                      20
 LenSav and NKeep                       0                       0
 Entered Stor2E with KNTT1,2                     616                  129868
 Leave Stor2X
 Entering PrmDigJobTyp =                      20
 LenSav and NKeep                       0                       0
 Entered Stor2E with KNTT1,2                     642                  129850
 Leave Stor2X
 Entering PrmDigJobTyp =                      20
 LenSav and NKeep                       0                       0
 Entered Stor2E with KNTT1,2                     646                  129846
 Leave Stor2X
 Entering PrmDigJobTyp =                      20
 LenSav and NKeep                       0                       0
 Entered Stor2E with KNTT1,2                     664                  129834
 Leave Stor2X
 Entering PrmDigJobTyp =                      20
 LenSav and NKeep                       0                       0
 Entered Stor2E with KNTT1,2                     682                  129826
 Leave Stor2X
 Entering PrmDigJobTyp =                      20
 LenSav and NKeep                       0                       0
 Entered Stor2E with KNTT1,2                     714                  129806
 Leave Stor2X
 Entering PrmDigJobTyp =                      20
 LenSav and NKeep                       0                       0
 Entered Stor2E with KNTT1,2                     716                  129804
 Leave Stor2X
 Entering PrmDigJobTyp =                      20
 LenSav and NKeep                       0                       0
 Entered Stor2E with KNTT1,2                     716                  129788
 Leave Stor2X
 Entering PrmDigJobTyp =                      20
 LenSav and NKeep                       0                       0
 Entered Stor2E with KNTT1,2                     716                  129772
 Leave Stor2X
 Entering PrmDigJobTyp =                      20
 LenSav and NKeep                       0                       0
 Entered Stor2E with KNTT1,2                     716                  129756
 Leave Stor2X
 Entering PrmDigJobTyp =                      20
 LenSav and NKeep                       0                       0
 Entered Stor2E with KNTT1,2                     716                  129744
 Leave Stor2X
 Entering PrmDigJobTyp =                      20
 LenSav and NKeep                       0                       0
 Entered Stor2E with KNTT1,2                     730                  129734
 Leave Stor2X
 Entering PrmDigJobTyp =                      20
 LenSav and NKeep                       0                       0
 Entered Stor2E with KNTT1,2                     744                  129724
 Leave Stor2X
 Entering PrmDigJobTyp =                      20
 LenSav and NKeep                       0                       0
 Entered Stor2E with KNTT1,2                     760                  129716
 Leave Stor2X
 Entering PrmDigJobTyp =                      20
 LenSav and NKeep                       0                       0
 Entered Stor2E with KNTT1,2                     762                  129712
 Leave Stor2X
 Entering PrmDigJobTyp =                      20
 LenSav and NKeep                       0                       0
 Entered Stor2E with KNTT1,2                     782                  129700
 Leave Stor2X
 Entering PrmDigJobTyp =                      20
 LenSav and NKeep                       0                       0
 Entered Stor2E with KNTT1,2                     798                  129688
 Leave Stor2X
 Entering PrmDigJobTyp =                      20
 LenSav and NKeep                       0                       0
 Entered Stor2E with KNTT1,2                     810                  129678
 Leave Stor2X
 Entering PrmDigJobTyp =                      20
 LenSav and NKeep                       0                       0
 Entered Stor2E with KNTT1,2                     810                  129676
 Leave Stor2X
 Entering PrmDigJobTyp =                      20
 LenSav and NKeep                       0                       0
 Entered Stor2E with KNTT1,2                     838                  129666
 Leave Stor2X
 Entering PrmDigJobTyp =                      20
 LenSav and NKeep                       0                       0
 Entered Stor2E with KNTT1,2                     840                  129664
 Leave Stor2X
 Entering PrmDigJobTyp =                      20
 LenSav and NKeep                       0                       0
 Entered Stor2E with KNTT1,2                     846                  129658
 Leave Stor2X
 Entering PrmDigJobTyp =                      20
 LenSav and NKeep                       0                       0
 Entered Stor2E with KNTT1,2                     846                  129630
 Leave Stor2X
 Entering PrmDigJobTyp =                      20
 LenSav and NKeep                       0                       0
 Entered Stor2E with KNTT1,2                     846                  129618
 Leave Stor2X
 Entering PrmDigJobTyp =                      20
 LenSav and NKeep                       0                       0
 Entered Stor2E with KNTT1,2                     872                  129602
 Leave Stor2X
 Entering PrmDigJobTyp =                      20
 LenSav and NKeep                       0                       0
 Entered Stor2E with KNTT1,2                     878                  129598
 Leave Stor2X
 Entering PrmDigJobTyp =                      20
 LenSav and NKeep                       0                       0
 Entered Stor2E with KNTT1,2                     902                  129582
 Leave Stor2X
 Entering PrmDigJobTyp =                      20
 LenSav and NKeep                       0                       0
 Entered Stor2E with KNTT1,2                     914                  129578
 Leave Stor2X
 Entering PrmDigJobTyp =                      20
 LenSav and NKeep                       0                       0
 Entered Stor2E with KNTT1,2                     926                  129562
 Leave Stor2X
 Entering PrmDigJobTyp =                      20
 LenSav and NKeep                       0                       0
 Entered Stor2E with KNTT1,2                     938                  129562
 Leave Stor2X
 Entering PrmDigJobTyp =                      20
 LenSav and NKeep                       0                       0
 Entered Stor2E with KNTT1,2                     940                  129558
 Leave Stor2X
 Entering PrmDigJobTyp =                      20
 LenSav and NKeep                       0                       0
 Entered Stor2E with KNTT1,2                     940                  129536
 Leave Stor2X
 Entering PrmDigJobTyp =                      20
 LenSav and NKeep                       0                       0
 Entered Stor2E with KNTT1,2                     940                  129518
 Leave Stor2X
 Entering PrmDigJobTyp =                      20
 LenSav and NKeep                       0                       0
 Entered Stor2E with KNTT1,2                     960                  129506
 Leave Stor2X
 Entering PrmDigJobTyp =                      20
 LenSav and NKeep                       0                       0
 Entered Stor2E with KNTT1,2                     972                  129498
 Leave Stor2X
 Entering PrmDigJobTyp =                      20
 LenSav and NKeep                       0                       0
 Entered Stor2E with KNTT1,2                    1000                  129486
 Leave Stor2X
 Entering PrmDigJobTyp =                      20
 LenSav and NKeep                       0                       0
 Entered Stor2E with KNTT1,2                    1008                  129478
 Leave Stor2X
 Entering PrmDigJobTyp =                      20
 LenSav and NKeep                       0                       0
 Entered Stor2E with KNTT1,2                    1028                  129470
 Leave Stor2X
 Entering PrmDigJobTyp =                      20
 LenSav and NKeep                       0                       0
 Entered Stor2E with KNTT1,2                    1032                  129462
 Leave Stor2X
 Entering PrmDigJobTyp =                      20
 LenSav and NKeep                       0                       0
 Entered Stor2E with KNTT1,2                    1040                  129462
 Leave Stor2X
 Entering PrmDigJobTyp =                      20
 LenSav and NKeep                       0                       0
 Entered Stor2E with KNTT1,2                    1042                  129458
 Leave Stor2X
 Entering PrmDigJobTyp =                      20
 LenSav and NKeep                       0                       0
 Entered Stor2E with KNTT1,2                    1042                  129428
 Leave Stor2X
 Entering PrmDigJobTyp =                      20
 LenSav and NKeep                       0                       0
 Entered Stor2E with KNTT1,2                    1042                  129418
 Leave Stor2X
 Entering PrmDigJobTyp =                      20
 LenSav and NKeep                       0                       0
 Entered Stor2E with KNTT1,2                    1074                  129406
 Leave Stor2X
 Entering PrmDigJobTyp =                      20
 LenSav and NKeep                       0                       0
 Entered Stor2E with KNTT1,2                    1078                  129402
 Leave Stor2X
 Entering PrmDigJobTyp =                      20
 LenSav and NKeep                       0                       0
 Entered Stor2E with KNTT1,2                    1106                  129390
 Leave Stor2X
 Entering PrmDigJobTyp =                      20
 LenSav and NKeep                       0                       0
 Entered Stor2E with KNTT1,2                    1118                  129386
 Leave Stor2X
 Entering PrmDigJobTyp =                      20
 LenSav and NKeep                       0                       0
 Entered Stor2E with KNTT1,2                    1134                  129374
 Leave Stor2X
 Entering PrmDigJobTyp =                      20
 LenSav and NKeep                       0                       0
 Entered Stor2E with KNTT1,2                    1142                  129370
 Leave Stor2X
 Entering PrmDigJobTyp =                      20
 LenSav and NKeep                       0                       0
 Entered Stor2E with KNTT1,2                    1146                  129366
 Leave Stor2X
 Entering PrmDigJobTyp =                      20
 LenSav and NKeep                       0                       0
 Entered Stor2E with KNTT1,2                    1150                  129362
 Leave Stor2X
 Entering PrmDigJobTyp =                      20
 LenSav and NKeep                       0                       0
 Entered Stor2E with KNTT1,2                    1152                  129358
 Leave Stor2X
 Entering PrmDigJobTyp =                      20
 LenSav and NKeep                       0                       0
 Entered Stor2E with KNTT1,2                    1152                  129338
 Leave Stor2X
 Entering PrmDigJobTyp =                      20
 LenSav and NKeep                       0                       0
 Entered Stor2E with KNTT1,2                    1170                  129330
 Leave Stor2X
 Entering PrmDigJobTyp =                      20
 LenSav and NKeep                       0                       0
 Entered Stor2E with KNTT1,2                    1182                  129322
 Leave Stor2X
 Entering PrmDigJobTyp =                      20
 LenSav and NKeep                       0                       0
 Entered Stor2E with KNTT1,2                    1190                  129322
 Leave Stor2X
 Entering PrmDigJobTyp =                      20
 LenSav and NKeep                       0                       0
 Entered Stor2E with KNTT1,2                    1196                  129314
 Leave Stor2X
 Entering PrmDigJobTyp =                      20
 LenSav and NKeep                       0                       0
 Entered Stor2E with KNTT1,2                    1202                  129314
 Leave Stor2X
 Entering PrmDigJobTyp =                      20
 LenSav and NKeep                       0                       0
 Entered Stor2E with KNTT1,2                    1202                  129310
 Leave Stor2X
 Entering PrmDigJobTyp =                      20
 LenSav and NKeep                       0                       0
 Entered Stor2E with KNTT1,2                    1206                  129310
 Leave Stor2X
 Entering PrmDigJobTyp =                      20
 LenSav and NKeep                       0                       0
 Entered Stor2E with KNTT1,2                    1206                  129306
 Leave Stor2X
 Entering PrmDigJobTyp =                      20
 LenSav and NKeep                       0                       0
 Entered Stor2E with KNTT1,2                    1206                  129304
 Leave Stor2X
 Entering PrmDigJobTyp =                      20
 LenSav and NKeep                       0                       0
 Entered Stor2E with KNTT1,2                    1206                  129284
 Leave Stor2X
 Entering PrmDigJobTyp =                      20
 LenSav and NKeep                       0                       0
 Entered Stor2E with KNTT1,2                    1224                  129276
 Leave Stor2X
 Entering PrmDigJobTyp =                      20
 LenSav and NKeep                       0                       0
 Entered Stor2E with KNTT1,2                    1240                  129272
 Leave Stor2X
 Entering PrmDigJobTyp =                      20
 LenSav and NKeep                       0                       0
 Entered Stor2E with KNTT1,2                    1244                  129268
 Leave Stor2X
 Entering PrmDigJobTyp =                      20
 LenSav and NKeep                       0                       0
 Entered Stor2E with KNTT1,2                    1254                  129264
 Leave Stor2X
 Entering PrmDigJobTyp =                      20
 LenSav and NKeep                       0                       0
 Entered Stor2E with KNTT1,2                    1256                  129260
 Leave Stor2X
 Entering PrmDigJobTyp =                      20
 LenSav and NKeep                       0                       0
 Entered Stor2E with KNTT1,2                    1260                  129260
 Leave Stor2X
 Entering PrmDigJobTyp =                      20
 LenSav and NKeep                       0                       0
 Entered Stor2E with KNTT1,2                    1260                  129256
 Leave Stor2X
 Entering PrmDigJobTyp =                      20
 LenSav and NKeep                       0                       0
 Entered Stor2E with KNTT1,2                    1260                  129252
 Leave Stor2X
 Entering PrmDigJobTyp =                      20
 LenSav and NKeep                       0                       0
 Entered Stor2E with KNTT1,2                    1262                  129252
 Leave Stor2X
 In PrSumR
 Called IWRITE
         1540 integrals produced for a total of         1540.
 ExpMin= 3.16D-02 ExpMax= 1.00D+03 ExpMxC= 1.00D+01 IAcc=3 IRadAn=         5 AccDes= 0.00D+00
 Harris functional with IExCor=  205 and IRadAn=       5 diagonalized for initial guess.
 HarFok:  IExCor=  205 AccDes= 0.00D+00 IRadAn=         5 IDoV= 1 UseB2=F ITyADJ=14
 ICtDFT=  3500011 ScaDFX=  1.000000  1.000000  1.000000  1.000000
 FoFCou: FMM=F IPFlag=           0 FMFlag=      100000 FMFlg1=           0
         NFxFlg=           0 DoJE=T BraDBF=F KetDBF=T FulRan=T
         wScrn=  0.000000 ICntrl=     500 IOpCl=  0 I1Cent=   200000004 NGrid=           0
         NMat0=    1 NMatS0=      1 NMatT0=    0 NMatD0=    1 NMtDS0=    0 NMtDT0=    0
 Petite list used in FoFCou.
 Mixing orbitals, IMix= 3 IMixAn=  0 NRI=2 NE=   10 Coef=  7.07106781D-01  7.07106781D-01
 Also mixing orbitals    10 and    12 Coef=  3.82683432D-01  9.23879533D-01
 Initial guess <Sx>=-0.0015 <Sy>= 0.2500 <Sz>=-0.4268 <S**2>= 1.0000 S= 0.6180
 Two-electron integrals will be kept in memory, NGetB=      152788.
 Requested convergence on RMS density matrix=1.00D-08 within 128 cycles.
 Requested convergence on MAX density matrix=1.00D-06.
 Requested convergence on             energy=1.00D-06.
 No special actions if energy rises.
 Density File Not Found. Continue as usual
 SCF Done:  E(GHF) =  -5.04182000617     A.U. after  106 cycles
            NFock=106  Conv=0.20D-08     -V/T= 1.9254
 <Sx>=-0.0038 <Sy>= 0.4849 <Sz>=-0.8746 <S**2>= 2.0283 S= 1.0094
 <L.S>= 0.000000000000E+00
 Range of M.O.s used for correlation:     1    10
 NBasis=    10 NAE=    10 NBE=     0 NFC=     0 NFV=     0
 NROrb=     20 NOA=    10 NOB=     0 NVA=    10 NVB=     0
 jaja DoHack is true or false? T
 jaja in hckghf.F, NBasis=                      10
 jaja in hckGHF/FixOG, LC =                      800
 jaja in hckGHF/FixOG, IRwC=                      548
 bfr conversion (real):
                 1             2             3             4             5 
      1a -0.297333D-03  0.108296D+00 -0.545137D-03  0.238108D+00 -0.579198D-03
      1b  0.148468D+00  0.216924D-03  0.272196D+00  0.476916D-03  0.289182D+00
      2a -0.900077D-04  0.115514D-02 -0.245333D-03  0.151436D-01 -0.543272D-03
      2b  0.449470D-01  0.233262D-05  0.122511D+00  0.303818D-04  0.271286D+00
      3a -0.419418D-03  0.263453D+00 -0.314949D-03  0.230892D+00  0.371587D-03
      3b  0.209419D+00  0.527647D-03  0.157235D+00  0.462388D-03 -0.185565D+00
      4a -0.310554D-03  0.148703D+00 -0.540218D-03  0.300274D+00 -0.505754D-03
      4b  0.155067D+00  0.297843D-03  0.269733D+00  0.601405D-03  0.252500D+00
      5a -0.493553D-03  0.233140D+00  0.300744D-03 -0.170584D+00  0.527565D-03
      5b  0.246428D+00  0.466913D-03 -0.150181D+00 -0.341692D-03 -0.263388D+00
      6a -0.493533D-03  0.233140D+00 -0.300814D-03  0.170584D+00  0.527455D-03
      6b  0.246428D+00  0.466947D-03  0.150181D+00  0.341596D-03 -0.263388D+00
      7a -0.310580D-03  0.148703D+00  0.540215D-03 -0.300274D+00 -0.505655D-03
      7b  0.155067D+00  0.297797D-03 -0.269733D+00 -0.601367D-03  0.252500D+00
      8a -0.419425D-03  0.263453D+00  0.314866D-03 -0.230892D+00  0.371709D-03
      8b  0.209419D+00  0.527632D-03 -0.157235D+00 -0.462470D-03 -0.185565D+00
      9a -0.900307D-04  0.115513D-02  0.245391D-03 -0.151436D-01 -0.543388D-03
      9b  0.449470D-01  0.229437D-05 -0.122511D+00 -0.302773D-04  0.271286D+00
     10a -0.297368D-03  0.108296D+00  0.545162D-03 -0.238108D+00 -0.579145D-03
     10b  0.148468D+00  0.216864D-03 -0.272196D+00 -0.476843D-03  0.289182D+00
                 6             7             8             9            10 
      1a  0.350867D+00 -0.132550D-03 -0.304110D+00  0.717823D-03  0.906252D-03
      1b  0.702705D-03  0.661157D-01 -0.608691D-03 -0.358602D+00 -0.452535D+00
      2a  0.595004D-01 -0.101295D-02 -0.105791D+00 -0.142596D-02 -0.112016D-02
      2b  0.119321D-03  0.505824D+00 -0.212564D-03  0.712027D+00  0.559386D+00
      3a -0.216299D+00  0.705817D-03  0.552367D+00 -0.117526D-03 -0.666028D-03
      3b -0.433295D-03 -0.352384D+00  0.110618D-02  0.589691D-01  0.332555D+00
      4a  0.384876D+00 -0.345065D-04 -0.271916D+00  0.572906D-03  0.585715D-03
      4b  0.770789D-03  0.171551D-01 -0.544271D-03 -0.286218D+00 -0.292478D+00
      5a -0.244221D+00 -0.742356D-03 -0.434719D+00 -0.338049D-03  0.888481D-03
      5b -0.489011D-03  0.370702D+00 -0.870819D-03  0.168557D+00 -0.443610D+00
      6a -0.244221D+00  0.742505D-03  0.434719D+00 -0.337117D-03 -0.888411D-03
      6b -0.489233D-03 -0.370702D+00  0.870471D-03  0.168557D+00  0.443610D+00
      7a  0.384876D+00  0.342090D-04  0.271916D+00  0.573557D-03 -0.585812D-03
      7b  0.770853D-03 -0.171551D-01  0.544903D-03 -0.286218D+00  0.292478D+00
      8a -0.216299D+00 -0.705674D-03 -0.552367D+00 -0.118678D-03  0.666030D-03
      8b -0.433104D-03  0.352384D+00 -0.110635D-02  0.589692D-01 -0.332555D+00
      9a  0.595004D-01  0.101314D-02  0.105791D+00 -0.142610D-02  0.112048D-02
      9b  0.119012D-03 -0.505824D+00  0.211186D-03  0.712027D+00 -0.559386D+00
     10a  0.350867D+00  0.132280D-03  0.304110D+00  0.718578D-03 -0.906391D-03
     10b  0.702715D-03 -0.661157D-01  0.609438D-03 -0.358602D+00  0.452535D+00
                11            12            13            14            15 
      1a -0.626451D-03  0.421366D+00 -0.319643D+00 -0.195519D+00  0.135872D-02
      1b  0.312773D+00  0.843899D-03 -0.640136D-03 -0.391485D-03 -0.678422D+00
      2a -0.151325D-03 -0.101367D+00  0.740289D+00  0.753612D+00  0.121491D-03
      2b  0.756077D-01 -0.202979D-03  0.148242D-02  0.150913D-02 -0.606381D-01
      3a -0.137509D-02  0.567301D+00 -0.105056D+00  0.247996D+00  0.939262D-03
      3b  0.686588D+00  0.113619D-02 -0.210517D-03  0.496718D-03 -0.468967D+00
      4a  0.976150D-03 -0.387677D+00 -0.106874D+00 -0.318674D+00 -0.165936D-02
      4b -0.487414D+00 -0.776459D-03 -0.213921D-03 -0.638228D-03  0.828525D+00
      5a -0.115793D-02  0.676421D+00  0.202093D+00 -0.224031D-01 -0.637987D-03
      5b  0.578171D+00  0.135474D-02  0.404720D-03 -0.449231D-04  0.318561D+00
      6a  0.115798D-02 -0.676421D+00  0.202093D+00  0.224031D-01 -0.638032D-03
      6b -0.578171D+00 -0.135472D-02  0.404770D-03  0.448135D-04  0.318561D+00
      7a -0.976221D-03  0.387677D+00 -0.106874D+00  0.318674D+00 -0.165935D-02
      7b  0.487414D+00  0.776407D-03 -0.214165D-03  0.638232D-03  0.828525D+00
      8a  0.137509D-02 -0.567301D+00 -0.105056D+00 -0.247996D+00  0.939220D-03
      8b -0.686588D+00 -0.113618D-02 -0.210287D-03 -0.496641D-03 -0.468967D+00
      9a  0.151527D-03  0.101367D+00  0.740289D+00 -0.753612D+00  0.121399D-03
      9b -0.756077D-01  0.203053D-03  0.148283D-02 -0.150949D-02 -0.606381D-01
     10a  0.626384D-03 -0.421366D+00 -0.319643D+00  0.195519D+00  0.135875D-02
     10b -0.312773D+00 -0.843912D-03 -0.640203D-03  0.391674D-03 -0.678422D+00
                16            17            18            19            20 
      1a -0.644386D+00  0.164237D-02 -0.829815D+00  0.122420D-02 -0.644898D+00
      1b -0.129058D-02 -0.820044D+00 -0.166194D-02 -0.611239D+00 -0.129157D-02
      2a -0.173831D+00  0.231475D-04 -0.126974D-02 -0.831137D-04  0.788063D-01
      2b -0.348114D-03 -0.115574D-01 -0.254369D-05  0.414939D-01  0.157823D-03
      3a -0.476452D+00 -0.874430D-03  0.424004D+00 -0.209422D-02  0.102022D+01
      3b -0.954212D-03  0.436622D+00  0.849220D-03  0.104565D+01  0.204328D-02
      4a  0.813725D+00 -0.171181D-02  0.843064D+00 -0.962394D-03  0.493217D+00
      4b  0.162972D-02  0.854716D+00  0.168848D-02  0.480519D+00  0.987792D-03
      5a  0.341311D+00 -0.131102D-02  0.665881D+00  0.194062D-02 -0.963097D+00
      5b  0.683594D-03  0.654584D+00  0.133359D-02 -0.968966D+00 -0.192889D-02
      6a  0.341311D+00  0.131097D-02 -0.665881D+00  0.194065D-02 -0.963097D+00
      6b  0.683549D-03 -0.654584D+00 -0.133364D-02 -0.968966D+00 -0.192886D-02
      7a  0.813725D+00  0.171181D-02 -0.843064D+00 -0.962359D-03  0.493217D+00
      7b  0.162971D-02 -0.854716D+00 -0.168847D-02  0.480519D+00  0.987822D-03
      8a -0.476452D+00  0.874489D-03 -0.424004D+00 -0.209421D-02  0.102022D+01
      8b -0.954249D-03 -0.436622D+00 -0.849156D-03  0.104565D+01  0.204329D-02
      9a -0.173831D+00 -0.231467D-04  0.126974D-02 -0.830932D-04  0.788063D-01
      9b -0.348177D-03  0.115574D-01  0.254233D-05  0.414939D-01  0.157842D-03
     10a -0.644386D+00 -0.164237D-02  0.829815D+00  0.122416D-02 -0.644898D+00
     10b -0.129055D-02  0.820044D+00  0.166194D-02 -0.611239D+00 -0.129161D-02
 bfr conversion (imaginary):
                 1             2             3             4             5 
      1a -0.384058D-01  0.000000D+00 -0.704116D-01  0.000000D+00 -0.748056D-01
      1b  0.000000D+00 -0.280140D-01  0.000000D+00 -0.615937D-01  0.000000D+00
      2a -0.116269D-01  0.000000D+00 -0.316910D-01  0.000000D+00 -0.701763D-01
      2b  0.000000D+00 -0.298807D-03  0.000000D+00 -0.391735D-02  0.000000D+00
      3a -0.541725D-01  0.000000D+00 -0.406735D-01  0.000000D+00  0.480019D-01
      3b  0.000000D+00 -0.681499D-01  0.000000D+00 -0.597272D-01  0.000000D+00
      4a -0.401128D-01  0.000000D+00 -0.697745D-01  0.000000D+00 -0.653166D-01
      4b  0.000000D+00 -0.384665D-01  0.000000D+00 -0.776749D-01  0.000000D+00
      5a -0.637460D-01  0.000000D+00  0.388487D-01  0.000000D+00  0.681330D-01
      5b  0.000000D+00 -0.603087D-01  0.000000D+00  0.441267D-01  0.000000D+00
      6a -0.637460D-01  0.000000D+00 -0.388487D-01  0.000000D+00  0.681331D-01
      6b  0.000000D+00 -0.603087D-01  0.000000D+00 -0.441267D-01  0.000000D+00
      7a -0.401128D-01  0.000000D+00  0.697745D-01  0.000000D+00 -0.653166D-01
      7b  0.000000D+00 -0.384665D-01  0.000000D+00  0.776749D-01  0.000000D+00
      8a -0.541725D-01  0.000000D+00  0.406735D-01  0.000000D+00  0.480019D-01
      8b  0.000000D+00 -0.681499D-01  0.000000D+00  0.597272D-01  0.000000D+00
      9a -0.116269D-01  0.000000D+00  0.316910D-01  0.000000D+00 -0.701763D-01
      9b  0.000000D+00 -0.298814D-03  0.000000D+00  0.391736D-02  0.000000D+00
     10a -0.384058D-01  0.000000D+00  0.704116D-01  0.000000D+00 -0.748056D-01
     10b  0.000000D+00 -0.280140D-01  0.000000D+00  0.615937D-01  0.000000D+00
                 6             7             8             9            10 
      1a  0.000000D+00 -0.171028D-01  0.000000D+00  0.927632D-01  0.117062D+00
      1b -0.907623D-01  0.000000D+00  0.786673D-01  0.000000D+00  0.000000D+00
      2a  0.000000D+00 -0.130846D+00  0.000000D+00 -0.184187D+00 -0.144702D+00
      2b -0.153915D-01  0.000000D+00  0.273658D-01  0.000000D+00  0.000000D+00
      3a  0.000000D+00  0.911547D-01  0.000000D+00 -0.152542D-01 -0.860252D-01
      3b  0.559522D-01  0.000000D+00 -0.142886D+00  0.000000D+00  0.000000D+00
      4a  0.000000D+00 -0.443765D-02  0.000000D+00  0.740390D-01  0.756580D-01
      4b -0.995596D-01  0.000000D+00  0.703393D-01  0.000000D+00  0.000000D+00
      5a  0.000000D+00 -0.958930D-01  0.000000D+00 -0.436023D-01  0.114753D+00
      5b  0.631752D-01  0.000000D+00  0.112453D+00  0.000000D+00  0.000000D+00
      6a  0.000000D+00  0.958930D-01  0.000000D+00 -0.436024D-01 -0.114753D+00
      6b  0.631752D-01  0.000000D+00 -0.112453D+00  0.000000D+00  0.000000D+00
      7a  0.000000D+00  0.443770D-02  0.000000D+00  0.740389D-01 -0.756580D-01
      7b -0.995595D-01  0.000000D+00 -0.703392D-01  0.000000D+00  0.000000D+00
      8a  0.000000D+00 -0.911547D-01  0.000000D+00 -0.152540D-01  0.860252D-01
      8b  0.559522D-01  0.000000D+00  0.142886D+00  0.000000D+00  0.000000D+00
      9a  0.000000D+00  0.130846D+00  0.000000D+00 -0.184187D+00  0.144702D+00
      9b -0.153916D-01  0.000000D+00 -0.273661D-01  0.000000D+00  0.000000D+00
     10a  0.000000D+00  0.171028D-01  0.000000D+00  0.927631D-01 -0.117062D+00
     10b -0.907623D-01  0.000000D+00 -0.786671D-01  0.000000D+00  0.000000D+00
                11            12            13            14            15 
      1a -0.809081D-01  0.000000D+00  0.000000D+00  0.000000D+00  0.175494D+00
      1b  0.000000D+00 -0.108999D+00  0.826851D-01  0.505768D-01  0.000000D+00
      2a -0.195582D-01  0.000000D+00  0.000000D+00  0.000000D+00  0.156858D-01
      2b  0.000000D+00  0.262216D-01 -0.191498D+00 -0.194944D+00  0.000000D+00
      3a -0.177607D+00  0.000000D+00  0.000000D+00  0.000000D+00  0.121312D+00
      3b  0.000000D+00 -0.146749D+00  0.271758D-01 -0.641516D-01  0.000000D+00
      4a  0.126084D+00  0.000000D+00  0.000000D+00  0.000000D+00 -0.214323D+00
      4b  0.000000D+00  0.100284D+00  0.276461D-01  0.824345D-01  0.000000D+00
      5a -0.149561D+00  0.000000D+00  0.000000D+00  0.000000D+00 -0.824054D-01
      5b  0.000000D+00 -0.174977D+00 -0.522773D-01  0.579523D-02  0.000000D+00
      6a  0.149561D+00  0.000000D+00  0.000000D+00  0.000000D+00 -0.824054D-01
      6b  0.000000D+00  0.174977D+00 -0.522773D-01 -0.579525D-02  0.000000D+00
      7a -0.126084D+00  0.000000D+00  0.000000D+00  0.000000D+00 -0.214323D+00
      7b  0.000000D+00 -0.100284D+00  0.276460D-01 -0.824345D-01  0.000000D+00
      8a  0.177607D+00  0.000000D+00  0.000000D+00  0.000000D+00  0.121312D+00
      8b  0.000000D+00  0.146749D+00  0.271758D-01  0.641516D-01  0.000000D+00
      9a  0.195582D-01  0.000000D+00  0.000000D+00  0.000000D+00  0.156859D-01
      9b  0.000000D+00 -0.262216D-01 -0.191498D+00  0.194944D+00  0.000000D+00
     10a  0.809081D-01  0.000000D+00  0.000000D+00  0.000000D+00  0.175494D+00
     10b  0.000000D+00  0.108999D+00  0.826851D-01 -0.505768D-01  0.000000D+00
                16            17            18            19            20 
      1a  0.000000D+00  0.212129D+00  0.000000D+00  0.158115D+00  0.000000D+00
      1b  0.166690D+00  0.000000D+00  0.214656D+00  0.000000D+00  0.166822D+00
      2a  0.000000D+00  0.298968D-02  0.000000D+00 -0.107336D-01  0.000000D+00
      2b  0.449665D-01  0.000000D+00  0.328455D-03  0.000000D+00 -0.203856D-01
      3a  0.000000D+00 -0.112945D+00  0.000000D+00 -0.270489D+00  0.000000D+00
      3b  0.123248D+00  0.000000D+00 -0.109681D+00  0.000000D+00 -0.263910D+00
      4a  0.000000D+00 -0.221098D+00  0.000000D+00 -0.124301D+00  0.000000D+00
      4b -0.210494D+00  0.000000D+00 -0.218084D+00  0.000000D+00 -0.127585D+00
      5a  0.000000D+00 -0.169328D+00  0.000000D+00  0.250652D+00  0.000000D+00
      5b -0.882902D-01  0.000000D+00 -0.172250D+00  0.000000D+00  0.249134D+00
      6a  0.000000D+00  0.169328D+00  0.000000D+00  0.250652D+00  0.000000D+00
      6b -0.882902D-01  0.000000D+00  0.172250D+00  0.000000D+00  0.249134D+00
      7a  0.000000D+00  0.221098D+00  0.000000D+00 -0.124301D+00  0.000000D+00
      7b -0.210494D+00  0.000000D+00  0.218084D+00  0.000000D+00 -0.127585D+00
      8a  0.000000D+00  0.112945D+00  0.000000D+00 -0.270489D+00  0.000000D+00
      8b  0.123248D+00  0.000000D+00  0.109681D+00  0.000000D+00 -0.263910D+00
      9a  0.000000D+00 -0.298968D-02  0.000000D+00 -0.107336D-01  0.000000D+00
      9b  0.449665D-01  0.000000D+00 -0.328455D-03  0.000000D+00 -0.203856D-01
     10a  0.000000D+00 -0.212129D+00  0.000000D+00  0.158115D+00  0.000000D+00
     10b  0.166690D+00  0.000000D+00 -0.214656D+00  0.000000D+00  0.166822D+00
 afr conversion (alpha, real):
                 1             2             3             4             5 
      1  -0.297333D-03  0.108296D+00 -0.545137D-03  0.238108D+00 -0.579198D-03
      2  -0.900077D-04  0.115514D-02 -0.245333D-03  0.151436D-01 -0.543272D-03
      3  -0.419418D-03  0.263453D+00 -0.314949D-03  0.230892D+00  0.371587D-03
      4  -0.310554D-03  0.148703D+00 -0.540218D-03  0.300274D+00 -0.505754D-03
      5  -0.493553D-03  0.233140D+00  0.300744D-03 -0.170584D+00  0.527565D-03
      6  -0.493533D-03  0.233140D+00 -0.300814D-03  0.170584D+00  0.527455D-03
      7  -0.310580D-03  0.148703D+00  0.540215D-03 -0.300274D+00 -0.505655D-03
      8  -0.419425D-03  0.263453D+00  0.314866D-03 -0.230892D+00  0.371709D-03
      9  -0.900307D-04  0.115513D-02  0.245391D-03 -0.151436D-01 -0.543388D-03
     10  -0.297368D-03  0.108296D+00  0.545162D-03 -0.238108D+00 -0.579145D-03
                 6             7             8             9            10 
      1   0.350867D+00 -0.132550D-03 -0.304110D+00  0.717823D-03  0.906252D-03
      2   0.595004D-01 -0.101295D-02 -0.105791D+00 -0.142596D-02 -0.112016D-02
      3  -0.216299D+00  0.705817D-03  0.552367D+00 -0.117526D-03 -0.666028D-03
      4   0.384876D+00 -0.345065D-04 -0.271916D+00  0.572906D-03  0.585715D-03
      5  -0.244221D+00 -0.742356D-03 -0.434719D+00 -0.338049D-03  0.888481D-03
      6  -0.244221D+00  0.742505D-03  0.434719D+00 -0.337117D-03 -0.888411D-03
      7   0.384876D+00  0.342090D-04  0.271916D+00  0.573557D-03 -0.585812D-03
      8  -0.216299D+00 -0.705674D-03 -0.552367D+00 -0.118678D-03  0.666030D-03
      9   0.595004D-01  0.101314D-02  0.105791D+00 -0.142610D-02  0.112048D-02
     10   0.350867D+00  0.132280D-03  0.304110D+00  0.718578D-03 -0.906391D-03
                11            12            13            14            15 
      1  -0.626451D-03  0.421366D+00 -0.319643D+00 -0.195519D+00  0.135872D-02
      2  -0.151325D-03 -0.101367D+00  0.740289D+00  0.753612D+00  0.121491D-03
      3  -0.137509D-02  0.567301D+00 -0.105056D+00  0.247996D+00  0.939262D-03
      4   0.976150D-03 -0.387677D+00 -0.106874D+00 -0.318674D+00 -0.165936D-02
      5  -0.115793D-02  0.676421D+00  0.202093D+00 -0.224031D-01 -0.637987D-03
      6   0.115798D-02 -0.676421D+00  0.202093D+00  0.224031D-01 -0.638032D-03
      7  -0.976221D-03  0.387677D+00 -0.106874D+00  0.318674D+00 -0.165935D-02
      8   0.137509D-02 -0.567301D+00 -0.105056D+00 -0.247996D+00  0.939220D-03
      9   0.151527D-03  0.101367D+00  0.740289D+00 -0.753612D+00  0.121399D-03
     10   0.626384D-03 -0.421366D+00 -0.319643D+00  0.195519D+00  0.135875D-02
                16            17            18            19            20 
      1  -0.644386D+00  0.164237D-02 -0.829815D+00  0.122420D-02 -0.644898D+00
      2  -0.173831D+00  0.231475D-04 -0.126974D-02 -0.831137D-04  0.788063D-01
      3  -0.476452D+00 -0.874430D-03  0.424004D+00 -0.209422D-02  0.102022D+01
      4   0.813725D+00 -0.171181D-02  0.843064D+00 -0.962394D-03  0.493217D+00
      5   0.341311D+00 -0.131102D-02  0.665881D+00  0.194062D-02 -0.963097D+00
      6   0.341311D+00  0.131097D-02 -0.665881D+00  0.194065D-02 -0.963097D+00
      7   0.813725D+00  0.171181D-02 -0.843064D+00 -0.962359D-03  0.493217D+00
      8  -0.476452D+00  0.874489D-03 -0.424004D+00 -0.209421D-02  0.102022D+01
      9  -0.173831D+00 -0.231467D-04  0.126974D-02 -0.830932D-04  0.788063D-01
     10  -0.644386D+00 -0.164237D-02  0.829815D+00  0.122416D-02 -0.644898D+00
 afr conversion (alpha, imaginary):
                 1             2             3             4             5 
      1  -0.384058D-01  0.000000D+00 -0.704116D-01  0.000000D+00 -0.748056D-01
      2  -0.116269D-01  0.000000D+00 -0.316910D-01  0.000000D+00 -0.701763D-01
      3  -0.541725D-01  0.000000D+00 -0.406735D-01  0.000000D+00  0.480019D-01
      4  -0.401128D-01  0.000000D+00 -0.697745D-01  0.000000D+00 -0.653166D-01
      5  -0.637460D-01  0.000000D+00  0.388487D-01  0.000000D+00  0.681330D-01
      6  -0.637460D-01  0.000000D+00 -0.388487D-01  0.000000D+00  0.681331D-01
      7  -0.401128D-01  0.000000D+00  0.697745D-01  0.000000D+00 -0.653166D-01
      8  -0.541725D-01  0.000000D+00  0.406735D-01  0.000000D+00  0.480019D-01
      9  -0.116269D-01  0.000000D+00  0.316910D-01  0.000000D+00 -0.701763D-01
     10  -0.384058D-01  0.000000D+00  0.704116D-01  0.000000D+00 -0.748056D-01
                 6             7             8             9            10 
      1   0.000000D+00 -0.171028D-01  0.000000D+00  0.927632D-01  0.117062D+00
      2   0.000000D+00 -0.130846D+00  0.000000D+00 -0.184187D+00 -0.144702D+00
      3   0.000000D+00  0.911547D-01  0.000000D+00 -0.152542D-01 -0.860252D-01
      4   0.000000D+00 -0.443765D-02  0.000000D+00  0.740390D-01  0.756580D-01
      5   0.000000D+00 -0.958930D-01  0.000000D+00 -0.436023D-01  0.114753D+00
      6   0.000000D+00  0.958930D-01  0.000000D+00 -0.436024D-01 -0.114753D+00
      7   0.000000D+00  0.443770D-02  0.000000D+00  0.740389D-01 -0.756580D-01
      8   0.000000D+00 -0.911547D-01  0.000000D+00 -0.152540D-01  0.860252D-01
      9   0.000000D+00  0.130846D+00  0.000000D+00 -0.184187D+00  0.144702D+00
     10   0.000000D+00  0.171028D-01  0.000000D+00  0.927631D-01 -0.117062D+00
                11            12            13            14            15 
      1  -0.809081D-01  0.000000D+00  0.000000D+00  0.000000D+00  0.175494D+00
      2  -0.195582D-01  0.000000D+00  0.000000D+00  0.000000D+00  0.156858D-01
      3  -0.177607D+00  0.000000D+00  0.000000D+00  0.000000D+00  0.121312D+00
      4   0.126084D+00  0.000000D+00  0.000000D+00  0.000000D+00 -0.214323D+00
      5  -0.149561D+00  0.000000D+00  0.000000D+00  0.000000D+00 -0.824054D-01
      6   0.149561D+00  0.000000D+00  0.000000D+00  0.000000D+00 -0.824054D-01
      7  -0.126084D+00  0.000000D+00  0.000000D+00  0.000000D+00 -0.214323D+00
      8   0.177607D+00  0.000000D+00  0.000000D+00  0.000000D+00  0.121312D+00
      9   0.195582D-01  0.000000D+00  0.000000D+00  0.000000D+00  0.156859D-01
     10   0.809081D-01  0.000000D+00  0.000000D+00  0.000000D+00  0.175494D+00
                16            17            18            19            20 
      1   0.000000D+00  0.212129D+00  0.000000D+00  0.158115D+00  0.000000D+00
      2   0.000000D+00  0.298968D-02  0.000000D+00 -0.107336D-01  0.000000D+00
      3   0.000000D+00 -0.112945D+00  0.000000D+00 -0.270489D+00  0.000000D+00
      4   0.000000D+00 -0.221098D+00  0.000000D+00 -0.124301D+00  0.000000D+00
      5   0.000000D+00 -0.169328D+00  0.000000D+00  0.250652D+00  0.000000D+00
      6   0.000000D+00  0.169328D+00  0.000000D+00  0.250652D+00  0.000000D+00
      7   0.000000D+00  0.221098D+00  0.000000D+00 -0.124301D+00  0.000000D+00
      8   0.000000D+00  0.112945D+00  0.000000D+00 -0.270489D+00  0.000000D+00
      9   0.000000D+00 -0.298968D-02  0.000000D+00 -0.107336D-01  0.000000D+00
     10   0.000000D+00 -0.212129D+00  0.000000D+00  0.158115D+00  0.000000D+00
 afr conversion (beta, real):
                 1             2             3             4             5 
      1   0.148468D+00  0.216924D-03  0.272196D+00  0.476916D-03  0.289182D+00
      2   0.449470D-01  0.233262D-05  0.122511D+00  0.303818D-04  0.271286D+00
      3   0.209419D+00  0.527647D-03  0.157235D+00  0.462388D-03 -0.185565D+00
      4   0.155067D+00  0.297843D-03  0.269733D+00  0.601405D-03  0.252500D+00
      5   0.246428D+00  0.466913D-03 -0.150181D+00 -0.341692D-03 -0.263388D+00
      6   0.246428D+00  0.466947D-03  0.150181D+00  0.341596D-03 -0.263388D+00
      7   0.155067D+00  0.297797D-03 -0.269733D+00 -0.601367D-03  0.252500D+00
      8   0.209419D+00  0.527632D-03 -0.157235D+00 -0.462470D-03 -0.185565D+00
      9   0.449470D-01  0.229437D-05 -0.122511D+00 -0.302773D-04  0.271286D+00
     10   0.148468D+00  0.216864D-03 -0.272196D+00 -0.476843D-03  0.289182D+00
                 6             7             8             9            10 
      1   0.702705D-03  0.661157D-01 -0.608691D-03 -0.358602D+00 -0.452535D+00
      2   0.119321D-03  0.505824D+00 -0.212564D-03  0.712027D+00  0.559386D+00
      3  -0.433295D-03 -0.352384D+00  0.110618D-02  0.589691D-01  0.332555D+00
      4   0.770789D-03  0.171551D-01 -0.544271D-03 -0.286218D+00 -0.292478D+00
      5  -0.489011D-03  0.370702D+00 -0.870819D-03  0.168557D+00 -0.443610D+00
      6  -0.489233D-03 -0.370702D+00  0.870471D-03  0.168557D+00  0.443610D+00
      7   0.770853D-03 -0.171551D-01  0.544903D-03 -0.286218D+00  0.292478D+00
      8  -0.433104D-03  0.352384D+00 -0.110635D-02  0.589692D-01 -0.332555D+00
      9   0.119012D-03 -0.505824D+00  0.211186D-03  0.712027D+00 -0.559386D+00
     10   0.702715D-03 -0.661157D-01  0.609438D-03 -0.358602D+00  0.452535D+00
                11            12            13            14            15 
      1   0.312773D+00  0.843899D-03 -0.640136D-03 -0.391485D-03 -0.678422D+00
      2   0.756077D-01 -0.202979D-03  0.148242D-02  0.150913D-02 -0.606381D-01
      3   0.686588D+00  0.113619D-02 -0.210517D-03  0.496718D-03 -0.468967D+00
      4  -0.487414D+00 -0.776459D-03 -0.213921D-03 -0.638228D-03  0.828525D+00
      5   0.578171D+00  0.135474D-02  0.404720D-03 -0.449231D-04  0.318561D+00
      6  -0.578171D+00 -0.135472D-02  0.404770D-03  0.448135D-04  0.318561D+00
      7   0.487414D+00  0.776407D-03 -0.214165D-03  0.638232D-03  0.828525D+00
      8  -0.686588D+00 -0.113618D-02 -0.210287D-03 -0.496641D-03 -0.468967D+00
      9  -0.756077D-01  0.203053D-03  0.148283D-02 -0.150949D-02 -0.606381D-01
     10  -0.312773D+00 -0.843912D-03 -0.640203D-03  0.391674D-03 -0.678422D+00
                16            17            18            19            20 
      1  -0.129058D-02 -0.820044D+00 -0.166194D-02 -0.611239D+00 -0.129157D-02
      2  -0.348114D-03 -0.115574D-01 -0.254369D-05  0.414939D-01  0.157823D-03
      3  -0.954212D-03  0.436622D+00  0.849220D-03  0.104565D+01  0.204328D-02
      4   0.162972D-02  0.854716D+00  0.168848D-02  0.480519D+00  0.987792D-03
      5   0.683594D-03  0.654584D+00  0.133359D-02 -0.968966D+00 -0.192889D-02
      6   0.683549D-03 -0.654584D+00 -0.133364D-02 -0.968966D+00 -0.192886D-02
      7   0.162971D-02 -0.854716D+00 -0.168847D-02  0.480519D+00  0.987822D-03
      8  -0.954249D-03 -0.436622D+00 -0.849156D-03  0.104565D+01  0.204329D-02
      9  -0.348177D-03  0.115574D-01  0.254233D-05  0.414939D-01  0.157842D-03
     10  -0.129055D-02  0.820044D+00  0.166194D-02 -0.611239D+00 -0.129161D-02
 afr conversion (beta, imaginary):
                 1             2             3             4             5 
      1   0.000000D+00 -0.280140D-01  0.000000D+00 -0.615937D-01  0.000000D+00
      2   0.000000D+00 -0.298807D-03  0.000000D+00 -0.391735D-02  0.000000D+00
      3   0.000000D+00 -0.681499D-01  0.000000D+00 -0.597272D-01  0.000000D+00
      4   0.000000D+00 -0.384665D-01  0.000000D+00 -0.776749D-01  0.000000D+00
      5   0.000000D+00 -0.603087D-01  0.000000D+00  0.441267D-01  0.000000D+00
      6   0.000000D+00 -0.603087D-01  0.000000D+00 -0.441267D-01  0.000000D+00
      7   0.000000D+00 -0.384665D-01  0.000000D+00  0.776749D-01  0.000000D+00
      8   0.000000D+00 -0.681499D-01  0.000000D+00  0.597272D-01  0.000000D+00
      9   0.000000D+00 -0.298814D-03  0.000000D+00  0.391736D-02  0.000000D+00
     10   0.000000D+00 -0.280140D-01  0.000000D+00  0.615937D-01  0.000000D+00
                 6             7             8             9            10 
      1  -0.907623D-01  0.000000D+00  0.786673D-01  0.000000D+00  0.000000D+00
      2  -0.153915D-01  0.000000D+00  0.273658D-01  0.000000D+00  0.000000D+00
      3   0.559522D-01  0.000000D+00 -0.142886D+00  0.000000D+00  0.000000D+00
      4  -0.995596D-01  0.000000D+00  0.703393D-01  0.000000D+00  0.000000D+00
      5   0.631752D-01  0.000000D+00  0.112453D+00  0.000000D+00  0.000000D+00
      6   0.631752D-01  0.000000D+00 -0.112453D+00  0.000000D+00  0.000000D+00
      7  -0.995595D-01  0.000000D+00 -0.703392D-01  0.000000D+00  0.000000D+00
      8   0.559522D-01  0.000000D+00  0.142886D+00  0.000000D+00  0.000000D+00
      9  -0.153916D-01  0.000000D+00 -0.273661D-01  0.000000D+00  0.000000D+00
     10  -0.907623D-01  0.000000D+00 -0.786671D-01  0.000000D+00  0.000000D+00
                11            12            13            14            15 
      1   0.000000D+00 -0.108999D+00  0.826851D-01  0.505768D-01  0.000000D+00
      2   0.000000D+00  0.262216D-01 -0.191498D+00 -0.194944D+00  0.000000D+00
      3   0.000000D+00 -0.146749D+00  0.271758D-01 -0.641516D-01  0.000000D+00
      4   0.000000D+00  0.100284D+00  0.276461D-01  0.824345D-01  0.000000D+00
      5   0.000000D+00 -0.174977D+00 -0.522773D-01  0.579523D-02  0.000000D+00
      6   0.000000D+00  0.174977D+00 -0.522773D-01 -0.579525D-02  0.000000D+00
      7   0.000000D+00 -0.100284D+00  0.276460D-01 -0.824345D-01  0.000000D+00
      8   0.000000D+00  0.146749D+00  0.271758D-01  0.641516D-01  0.000000D+00
      9   0.000000D+00 -0.262216D-01 -0.191498D+00  0.194944D+00  0.000000D+00
     10   0.000000D+00  0.108999D+00  0.826851D-01 -0.505768D-01  0.000000D+00
                16            17            18            19            20 
      1   0.166690D+00  0.000000D+00  0.214656D+00  0.000000D+00  0.166822D+00
      2   0.449665D-01  0.000000D+00  0.328455D-03  0.000000D+00 -0.203856D-01
      3   0.123248D+00  0.000000D+00 -0.109681D+00  0.000000D+00 -0.263910D+00
      4  -0.210494D+00  0.000000D+00 -0.218084D+00  0.000000D+00 -0.127585D+00
      5  -0.882902D-01  0.000000D+00 -0.172250D+00  0.000000D+00  0.249134D+00
      6  -0.882902D-01  0.000000D+00  0.172250D+00  0.000000D+00  0.249134D+00
      7  -0.210494D+00  0.000000D+00  0.218084D+00  0.000000D+00 -0.127585D+00
      8   0.123248D+00  0.000000D+00  0.109681D+00  0.000000D+00 -0.263910D+00
      9   0.449665D-01  0.000000D+00 -0.328455D-03  0.000000D+00 -0.203856D-01
     10   0.166690D+00  0.000000D+00 -0.214656D+00  0.000000D+00  0.166822D+00
 jaja in hckghf.F, ISPECT =                     548
Spin block MO for GHF transformation
NOA =   10   NOB =   10
NVA =   10   NVB =   10
 NOAvA in Hack                     100
 jaja in tranN3.F, ISPECT =                     548
 in l802/tranN3.F, LSPECT =                      800
 NMat, NBtSiz,MDV                    8372                   16000
                133954722
 TranN3:  NGot= 134217728 NBasic=    263006 NTTT=       550 NMat=      8372.
 Defined bucket =                      51                   10000
 Defined bucket =                      52                   10000
 Defined bucket =                      53                   10000
 Defined bucket =                      55                   10000
 Defined bucket =                      57                   10000
 Defined bucket =                      58                   10000
 Defined bucket =                      60                   10000
 Defined bucket =                      72                   10000
 Defined bucket =                      73                   10000
 Defined bucket =                      74                   10000
 Defined bucket =                      75                   10000
 Defined bucket =                      76                   10000
 (IK/LS) integrals will be saved in memory.
 TrCghf made   2 passes through the AO integrals.
 jaja DoHack is true or false? F
 jaja in hckghf.F, NBasis=                      10
 jaja in hckGHF/FixOG, LC =                      800
 jaja in hckGHF/FixOG, IRwC=                      548
 bfr conversion (alpha, real):
                 1             2             3             4             5 
      1  -0.297333D-03  0.108296D+00 -0.545137D-03  0.238108D+00 -0.579198D-03
      2  -0.900077D-04  0.115514D-02 -0.245333D-03  0.151436D-01 -0.543272D-03
      3  -0.419418D-03  0.263453D+00 -0.314949D-03  0.230892D+00  0.371587D-03
      4  -0.310554D-03  0.148703D+00 -0.540218D-03  0.300274D+00 -0.505754D-03
      5  -0.493553D-03  0.233140D+00  0.300744D-03 -0.170584D+00  0.527565D-03
      6  -0.493533D-03  0.233140D+00 -0.300814D-03  0.170584D+00  0.527455D-03
      7  -0.310580D-03  0.148703D+00  0.540215D-03 -0.300274D+00 -0.505655D-03
      8  -0.419425D-03  0.263453D+00  0.314866D-03 -0.230892D+00  0.371709D-03
      9  -0.900307D-04  0.115513D-02  0.245391D-03 -0.151436D-01 -0.543388D-03
     10  -0.297368D-03  0.108296D+00  0.545162D-03 -0.238108D+00 -0.579145D-03
                 6             7             8             9            10 
      1   0.350867D+00 -0.132550D-03 -0.304110D+00  0.717823D-03  0.906252D-03
      2   0.595004D-01 -0.101295D-02 -0.105791D+00 -0.142596D-02 -0.112016D-02
      3  -0.216299D+00  0.705817D-03  0.552367D+00 -0.117526D-03 -0.666028D-03
      4   0.384876D+00 -0.345065D-04 -0.271916D+00  0.572906D-03  0.585715D-03
      5  -0.244221D+00 -0.742356D-03 -0.434719D+00 -0.338049D-03  0.888481D-03
      6  -0.244221D+00  0.742505D-03  0.434719D+00 -0.337117D-03 -0.888411D-03
      7   0.384876D+00  0.342090D-04  0.271916D+00  0.573557D-03 -0.585812D-03
      8  -0.216299D+00 -0.705674D-03 -0.552367D+00 -0.118678D-03  0.666030D-03
      9   0.595004D-01  0.101314D-02  0.105791D+00 -0.142610D-02  0.112048D-02
     10   0.350867D+00  0.132280D-03  0.304110D+00  0.718578D-03 -0.906391D-03
                11            12            13            14            15 
      1  -0.626451D-03  0.421366D+00 -0.319643D+00 -0.195519D+00  0.135872D-02
      2  -0.151325D-03 -0.101367D+00  0.740289D+00  0.753612D+00  0.121491D-03
      3  -0.137509D-02  0.567301D+00 -0.105056D+00  0.247996D+00  0.939262D-03
      4   0.976150D-03 -0.387677D+00 -0.106874D+00 -0.318674D+00 -0.165936D-02
      5  -0.115793D-02  0.676421D+00  0.202093D+00 -0.224031D-01 -0.637987D-03
      6   0.115798D-02 -0.676421D+00  0.202093D+00  0.224031D-01 -0.638032D-03
      7  -0.976221D-03  0.387677D+00 -0.106874D+00  0.318674D+00 -0.165935D-02
      8   0.137509D-02 -0.567301D+00 -0.105056D+00 -0.247996D+00  0.939220D-03
      9   0.151527D-03  0.101367D+00  0.740289D+00 -0.753612D+00  0.121399D-03
     10   0.626384D-03 -0.421366D+00 -0.319643D+00  0.195519D+00  0.135875D-02
                16            17            18            19            20 
      1  -0.644386D+00  0.164237D-02 -0.829815D+00  0.122420D-02 -0.644898D+00
      2  -0.173831D+00  0.231475D-04 -0.126974D-02 -0.831137D-04  0.788063D-01
      3  -0.476452D+00 -0.874430D-03  0.424004D+00 -0.209422D-02  0.102022D+01
      4   0.813725D+00 -0.171181D-02  0.843064D+00 -0.962394D-03  0.493217D+00
      5   0.341311D+00 -0.131102D-02  0.665881D+00  0.194062D-02 -0.963097D+00
      6   0.341311D+00  0.131097D-02 -0.665881D+00  0.194065D-02 -0.963097D+00
      7   0.813725D+00  0.171181D-02 -0.843064D+00 -0.962359D-03  0.493217D+00
      8  -0.476452D+00  0.874489D-03 -0.424004D+00 -0.209421D-02  0.102022D+01
      9  -0.173831D+00 -0.231467D-04  0.126974D-02 -0.830932D-04  0.788063D-01
     10  -0.644386D+00 -0.164237D-02  0.829815D+00  0.122416D-02 -0.644898D+00
 bfr conversion (alpha, imaginary):
                 1             2             3             4             5 
[...]
      6b 0.958978D-02 -0.791968D-01 -0.307004D-01 -0.126843D+00 -0.732482D-01
      7a-0.836366D-01  0.166878D-02  0.300542D-02  0.340757D-02 -0.231643D+00
      7b-0.110391D-01 -0.539475D-01  0.141699D-01  0.332125D-01  0.234313D-02
      8a-0.167266D+00  0.159213D-01 -0.251825D-02 -0.191708D-01 -0.239273D+00
      8b-0.506511D-02 -0.168206D+00 -0.259026D-01 -0.602378D-01 -0.135765D-01
      9a 0.592254D-02  0.217484D-01 -0.705022D-02 -0.689251D-02 -0.251837D-02
      9b 0.131513D-01  0.440911D-01 -0.689248D-02 -0.180629D-01 -0.191710D-01
     10a-0.632810D-01 -0.536983D-02  0.592245D-02  0.131512D-01 -0.167266D+00
     10b-0.536990D-02 -0.490673D-01  0.217484D-01  0.440910D-01  0.159215D-01
                3b            4a            4b            5a            5b
      3b 0.391810D+00
      4a 0.805726D-02  0.724768D+00
      4b 0.503394D-01 -0.940089D-02  0.507573D+00
      5a-0.168672D-01 -0.211590D+00 -0.158520D-01  0.466424D+00
      5b-0.401803D-01  0.324300D-01 -0.209411D+00 -0.137494D-02  0.532755D+00
      6a 0.578068D-01  0.281717D-03  0.128501D-02 -0.588936D-01  0.661127D-03
      6b 0.444018D+00  0.155953D-01 -0.130868D-01  0.661207D-03  0.105378D-01
      7a 0.556098D-02 -0.116326D+00 -0.664478D-02  0.281668D-03  0.155954D-01
      7b-0.180010D+00 -0.664483D-02 -0.650728D-01  0.128494D-02 -0.130868D-01
      8a-0.135764D-01 -0.231643D+00  0.234298D-02  0.537170D+00 -0.732482D-01
      8b-0.796125D-01  0.556099D-02 -0.180010D+00  0.578068D-01  0.444018D+00
      9a-0.259026D-01  0.300550D-02  0.141699D-01 -0.363045D-01 -0.307003D-01
      9b-0.602378D-01  0.340769D-02  0.332125D-01  0.381771D-01 -0.126843D+00
     10a-0.506511D-02 -0.836366D-01 -0.110390D-01 -0.549499D-01  0.958982D-02
     10b-0.168206D+00  0.166872D-02 -0.539475D-01  0.199972D-02 -0.791968D-01
                6a            6b            7a            7b            8a
      6a 0.466423D+00
      6b-0.137496D-02  0.532755D+00
      7a-0.211590D+00  0.324299D-01  0.724768D+00
      7b-0.158519D-01 -0.209411D+00 -0.940077D-02  0.507573D+00
      8a-0.136782D+00  0.124669D-01  0.722785D-01  0.629433D-02  0.649727D+00
      8b-0.168672D-01 -0.401803D-01  0.805732D-02  0.503394D-01  0.124546D-01
      9a-0.129211D-01 -0.390361D-01  0.426049D-01  0.495908D-01 -0.391918D-01
      9b-0.189270D-01 -0.887530D-01 -0.101139D+00  0.171525D+00  0.447349D-01
     10a-0.162699D+00  0.115435D-01  0.620991D+00  0.396431D-01 -0.145384D-02
     10b-0.324146D-03 -0.202530D+00 -0.770110D-01  0.544760D+00  0.118586D-01
                8b            9a            9b           10a           10b
      8b 0.391810D+00
      9a-0.391303D-01  0.193629D+00
      9b-0.112301D+00  0.315350D+00  0.673245D+00
     10a 0.321036D-02  0.403798D-01 -0.873788D-01  0.547731D+00
     10b 0.121845D-02  0.367496D-01  0.173868D+00 -0.111904D-01  0.604340D+00
 jaja lower-tri density matrix (imaginary):
                1a            1b            2a            2b            3a
      1a 0.000000D+00
      1b 0.353424D-02  0.000000D+00
      2a 0.344106D-01 -0.353431D-01  0.000000D+00
      2b 0.361406D-01 -0.344106D-01  0.132360D+00  0.000000D+00
      3a 0.240303D-02  0.645646D-03  0.232565D-01  0.191728D-01  0.000000D+00
      3b-0.317127D-02 -0.240304D-02 -0.221784D-01 -0.232565D-01 -0.527357D-01
      4a-0.323935D-01  0.333590D-01 -0.417926D-01 -0.351652D-01  0.487955D-03
      4b-0.855030D-02  0.323935D-01  0.377649D-01  0.417926D-01 -0.820099D-02
      5a-0.329116D-02  0.772678D-02  0.557533D-02  0.212354D-01 -0.815235D-02
      5b-0.725432D-02  0.329117D-02 -0.214251D-01 -0.557534D-02  0.335487D-01
      6a-0.210578D-02  0.656678D-02  0.190939D-01  0.239144D-01  0.363961D-01
      6b-0.582679D-02  0.210577D-02 -0.234252D-01 -0.190939D-01 -0.416276D-01
      7a 0.353096D-02 -0.103795D-01 -0.298323D-02 -0.826921D-02  0.888728D-03
      7b 0.668004D-02 -0.353096D-02  0.807446D-02  0.298323D-02  0.114735D-01
      8a 0.583020D-02 -0.280362D-02  0.186441D-02  0.163549D-01  0.000000D+00
      8b-0.283236D-02 -0.583020D-02 -0.154909D-01 -0.186442D-02  0.381696D-01
      9a 0.238362D-02 -0.106815D-01  0.000000D+00  0.296652D-02 -0.186437D-02
      9b 0.105730D-01 -0.238361D-02 -0.296652D-02  0.000000D+00 -0.163550D-01
     10a 0.000000D+00 -0.580366D-02 -0.238364D-02 -0.105730D-01 -0.583025D-02
     10b 0.580365D-02  0.000000D+00  0.106816D-01  0.238365D-02  0.280365D-02
                3b            4a            4b            5a            5b
      3b 0.000000D+00
      4a 0.855725D-02  0.000000D+00
      4b-0.487953D-03 -0.439176D-01  0.000000D+00
      5a-0.242142D-01 -0.134013D-01  0.184193D-02  0.000000D+00
      5b 0.815235D-02  0.562127D-02  0.134013D-01  0.340486D-02  0.000000D+00
      6a 0.120725D-01 -0.397096D-02  0.658824D-02  0.000000D+00 -0.237906D-01
      6b-0.363961D-01 -0.486941D-02  0.397096D-02  0.237906D-01  0.000000D+00
      7a-0.990528D-02  0.000000D+00 -0.120052D-01  0.397099D-02  0.486939D-02
      7b-0.888727D-03  0.120052D-01  0.000000D+00 -0.658824D-02 -0.397100D-02
      8a-0.381697D-01 -0.888769D-03 -0.114734D-01 -0.363961D-01  0.416276D-01
      8b 0.000000D+00  0.990529D-02  0.888770D-03 -0.120725D-01  0.363961D-01
      9a 0.154909D-01  0.298321D-02 -0.807445D-02 -0.190940D-01  0.234252D-01
      9b 0.186436D-02  0.826922D-02 -0.298321D-02 -0.239144D-01  0.190940D-01
     10a 0.283237D-02 -0.353094D-02 -0.668005D-02  0.210580D-02  0.582676D-02
     10b 0.583025D-02  0.103795D-01  0.353093D-02 -0.656677D-02 -0.210581D-02
                6a            6b            7a            7b            8a
      6a 0.000000D+00
      6b 0.340487D-02  0.000000D+00
      7a 0.134013D-01 -0.562126D-02  0.000000D+00
      7b-0.184192D-02 -0.134013D-01 -0.439176D-01  0.000000D+00
      8a 0.815239D-02 -0.335487D-01 -0.487989D-03  0.820099D-02  0.000000D+00
      8b 0.242141D-01 -0.815239D-02 -0.855722D-02  0.487991D-03 -0.527357D-01
      9a-0.557530D-02  0.214251D-01  0.417926D-01 -0.377649D-01 -0.232565D-01
      9b-0.212354D-01  0.557529D-02  0.351651D-01 -0.417926D-01 -0.191728D-01
     10a 0.329112D-02  0.725434D-02  0.323935D-01  0.855032D-02 -0.240300D-02
     10b-0.772676D-02 -0.329111D-02 -0.333591D-01 -0.323935D-01 -0.645651D-03
                8b            9a            9b           10a           10b
      8b 0.000000D+00
      9a 0.221784D-01  0.000000D+00
      9b 0.232566D-01  0.132360D+00  0.000000D+00
     10a 0.317124D-02 -0.344106D-01 -0.361406D-01  0.000000D+00
     10b 0.240299D-02  0.353431D-01  0.344106D-01  0.353422D-02  0.000000D+00
 jaja non-ortho density matrix               [Gau-style] (real):
                 1             2             3             4             5 
      1a  0.547730D+00 -0.111904D-01  0.403799D-01 -0.873785D-01 -0.145376D-02
      1b -0.111904D-01  0.604340D+00  0.367496D-01  0.173868D+00  0.118587D-01
      2a  0.403799D-01  0.367496D-01  0.193630D+00  0.315351D+00 -0.391920D-01
      2b -0.873785D-01  0.173868D+00  0.315351D+00  0.673245D+00  0.447346D-01
      3a -0.145376D-02  0.118587D-01 -0.391920D-01  0.447346D-01  0.649727D+00
      3b  0.321032D-02  0.121845D-02 -0.391303D-01 -0.112301D+00  0.124545D-01
      4a  0.620991D+00 -0.770111D-01  0.426050D-01 -0.101139D+00  0.722785D-01
      4b  0.396430D-01  0.544760D+00  0.495909D-01  0.171525D+00  0.629442D-02
      5a -0.162699D+00 -0.324296D-03 -0.129210D-01 -0.189268D-01 -0.136782D+00
      5b  0.115436D-01 -0.202530D+00 -0.390361D-01 -0.887530D-01  0.124668D-01
      6a -0.549499D-01  0.199979D-02 -0.363047D-01  0.381768D-01  0.537170D+00
      6b  0.958978D-02 -0.791968D-01 -0.307004D-01 -0.126843D+00 -0.732482D-01
      7a -0.836366D-01  0.166878D-02  0.300542D-02  0.340757D-02 -0.231643D+00
      7b -0.110391D-01 -0.539475D-01  0.141699D-01  0.332125D-01  0.234313D-02
      8a -0.167266D+00  0.159213D-01 -0.251825D-02 -0.191708D-01 -0.239273D+00
      8b -0.506511D-02 -0.168206D+00 -0.259026D-01 -0.602378D-01 -0.135765D-01
      9a  0.592254D-02  0.217484D-01 -0.705022D-02 -0.689251D-02 -0.251837D-02
      9b  0.131513D-01  0.440911D-01 -0.689248D-02 -0.180629D-01 -0.191710D-01
     10a -0.632810D-01 -0.536983D-02  0.592245D-02  0.131512D-01 -0.167266D+00
     10b -0.536990D-02 -0.490673D-01  0.217484D-01  0.440910D-01  0.159215D-01
                 6             7             8             9            10 
      1a  0.321032D-02  0.620991D+00  0.396430D-01 -0.162699D+00  0.115436D-01
      1b  0.121845D-02 -0.770111D-01  0.544760D+00 -0.324296D-03 -0.202530D+00
      2a -0.391303D-01  0.426050D-01  0.495909D-01 -0.129210D-01 -0.390361D-01
      2b -0.112301D+00 -0.101139D+00  0.171525D+00 -0.189268D-01 -0.887530D-01
      3a  0.124545D-01  0.722785D-01  0.629442D-02 -0.136782D+00  0.124668D-01
      3b  0.391810D+00  0.805726D-02  0.503394D-01 -0.168672D-01 -0.401803D-01
      4a  0.805726D-02  0.724768D+00 -0.940089D-02 -0.211590D+00  0.324300D-01
      4b  0.503394D-01 -0.940089D-02  0.507573D+00 -0.158520D-01 -0.209411D+00
      5a -0.168672D-01 -0.211590D+00 -0.158520D-01  0.466424D+00 -0.137494D-02
      5b -0.401803D-01  0.324300D-01 -0.209411D+00 -0.137494D-02  0.532755D+00
      6a  0.578068D-01  0.281717D-03  0.128501D-02 -0.588936D-01  0.661127D-03
      6b  0.444018D+00  0.155953D-01 -0.130868D-01  0.661207D-03  0.105378D-01
      7a  0.556098D-02 -0.116326D+00 -0.664478D-02  0.281668D-03  0.155954D-01
      7b -0.180010D+00 -0.664483D-02 -0.650728D-01  0.128494D-02 -0.130868D-01
      8a -0.135764D-01 -0.231643D+00  0.234298D-02  0.537170D+00 -0.732482D-01
      8b -0.796125D-01  0.556099D-02 -0.180010D+00  0.578068D-01  0.444018D+00
      9a -0.259026D-01  0.300550D-02  0.141699D-01 -0.363045D-01 -0.307003D-01
      9b -0.602378D-01  0.340769D-02  0.332125D-01  0.381771D-01 -0.126843D+00
     10a -0.506511D-02 -0.836366D-01 -0.110390D-01 -0.549499D-01  0.958982D-02
     10b -0.168206D+00  0.166872D-02 -0.539475D-01  0.199972D-02 -0.791968D-01
                11            12            13            14            15 
      1a -0.549499D-01  0.958978D-02 -0.836366D-01 -0.110391D-01 -0.167266D+00
      1b  0.199979D-02 -0.791968D-01  0.166878D-02 -0.539475D-01  0.159213D-01
      2a -0.363047D-01 -0.307004D-01  0.300542D-02  0.141699D-01 -0.251825D-02
      2b  0.381768D-01 -0.126843D+00  0.340757D-02  0.332125D-01 -0.191708D-01
      3a  0.537170D+00 -0.732482D-01 -0.231643D+00  0.234313D-02 -0.239273D+00
      3b  0.578068D-01  0.444018D+00  0.556098D-02 -0.180010D+00 -0.135764D-01
      4a  0.281717D-03  0.155953D-01 -0.116326D+00 -0.664483D-02 -0.231643D+00
      4b  0.128501D-02 -0.130868D-01 -0.664478D-02 -0.650728D-01  0.234298D-02
      5a -0.588936D-01  0.661207D-03  0.281668D-03  0.128494D-02  0.537170D+00
      5b  0.661127D-03  0.105378D-01  0.155954D-01 -0.130868D-01 -0.732482D-01
      6a  0.466423D+00 -0.137496D-02 -0.211590D+00 -0.158519D-01 -0.136782D+00
      6b -0.137496D-02  0.532755D+00  0.324299D-01 -0.209411D+00  0.124669D-01
      7a -0.211590D+00  0.324299D-01  0.724768D+00 -0.940077D-02  0.722785D-01
      7b -0.158519D-01 -0.209411D+00 -0.940077D-02  0.507573D+00  0.629433D-02
      8a -0.136782D+00  0.124669D-01  0.722785D-01  0.629433D-02  0.649727D+00
      8b -0.168672D-01 -0.401803D-01  0.805732D-02  0.503394D-01  0.124546D-01
      9a -0.129211D-01 -0.390361D-01  0.426049D-01  0.495908D-01 -0.391918D-01
      9b -0.189270D-01 -0.887530D-01 -0.101139D+00  0.171525D+00  0.447349D-01
     10a -0.162699D+00  0.115435D-01  0.620991D+00  0.396431D-01 -0.145384D-02
     10b -0.324146D-03 -0.202530D+00 -0.770110D-01  0.544760D+00  0.118586D-01
                16            17            18            19            20 
      1a -0.506511D-02  0.592254D-02  0.131513D-01 -0.632810D-01 -0.536990D-02
      1b -0.168206D+00  0.217484D-01  0.440911D-01 -0.536983D-02 -0.490673D-01
      2a -0.259026D-01 -0.705022D-02 -0.689248D-02  0.592245D-02  0.217484D-01
      2b -0.602378D-01 -0.689251D-02 -0.180629D-01  0.131512D-01  0.440910D-01
      3a -0.135765D-01 -0.251837D-02 -0.191710D-01 -0.167266D+00  0.159215D-01
      3b -0.796125D-01 -0.259026D-01 -0.602378D-01 -0.506511D-02 -0.168206D+00
      4a  0.556099D-02  0.300550D-02  0.340769D-02 -0.836366D-01  0.166872D-02
      4b -0.180010D+00  0.141699D-01  0.332125D-01 -0.110390D-01 -0.539475D-01
      5a  0.578068D-01 -0.363045D-01  0.381771D-01 -0.549499D-01  0.199972D-02
      5b  0.444018D+00 -0.307003D-01 -0.126843D+00  0.958982D-02 -0.791968D-01
      6a -0.168672D-01 -0.129211D-01 -0.189270D-01 -0.162699D+00 -0.324146D-03
      6b -0.401803D-01 -0.390361D-01 -0.887530D-01  0.115435D-01 -0.202530D+00
      7a  0.805732D-02  0.426049D-01 -0.101139D+00  0.620991D+00 -0.770110D-01
      7b  0.503394D-01  0.495908D-01  0.171525D+00  0.396431D-01  0.544760D+00
      8a  0.124546D-01 -0.391918D-01  0.447349D-01 -0.145384D-02  0.118586D-01
      8b  0.391810D+00 -0.391303D-01 -0.112301D+00  0.321036D-02  0.121845D-02
      9a -0.391303D-01  0.193629D+00  0.315350D+00  0.403798D-01  0.367496D-01
      9b -0.112301D+00  0.315350D+00  0.673245D+00 -0.873788D-01  0.173868D+00
     10a  0.321036D-02  0.403798D-01 -0.873788D-01  0.547731D+00 -0.111904D-01
     10b  0.121845D-02  0.367496D-01  0.173868D+00 -0.111904D-01  0.604340D+00
 jaja non-ortho density matrix               [Gau-style] (imaginary):
                 1             2             3             4             5 
      1a  0.000000D+00 -0.353424D-02 -0.344106D-01 -0.361406D-01 -0.240303D-02
      1b  0.353424D-02  0.000000D+00  0.353431D-01  0.344106D-01 -0.645646D-03
      2a  0.344106D-01 -0.353431D-01  0.000000D+00 -0.132360D+00 -0.232565D-01
      2b  0.361406D-01 -0.344106D-01  0.132360D+00  0.000000D+00 -0.191728D-01
      3a  0.240303D-02  0.645646D-03  0.232565D-01  0.191728D-01  0.000000D+00
      3b -0.317127D-02 -0.240304D-02 -0.221784D-01 -0.232565D-01 -0.527357D-01
      4a -0.323935D-01  0.333590D-01 -0.417926D-01 -0.351652D-01  0.487955D-03
      4b -0.855030D-02  0.323935D-01  0.377649D-01  0.417926D-01 -0.820099D-02
      5a -0.329116D-02  0.772678D-02  0.557533D-02  0.212354D-01 -0.815235D-02
      5b -0.725432D-02  0.329117D-02 -0.214251D-01 -0.557534D-02  0.335487D-01
      6a -0.210578D-02  0.656678D-02  0.190939D-01  0.239144D-01  0.363961D-01
      6b -0.582679D-02  0.210577D-02 -0.234252D-01 -0.190939D-01 -0.416276D-01
      7a  0.353096D-02 -0.103795D-01 -0.298323D-02 -0.826921D-02  0.888728D-03
      7b  0.668004D-02 -0.353096D-02  0.807446D-02  0.298323D-02  0.114735D-01
      8a  0.583020D-02 -0.280362D-02  0.186441D-02  0.163549D-01  0.000000D+00
      8b -0.283236D-02 -0.583020D-02 -0.154909D-01 -0.186442D-02  0.381696D-01
      9a  0.238362D-02 -0.106815D-01  0.000000D+00  0.296652D-02 -0.186437D-02
      9b  0.105730D-01 -0.238361D-02 -0.296652D-02  0.000000D+00 -0.163550D-01
     10a  0.000000D+00 -0.580366D-02 -0.238364D-02 -0.105730D-01 -0.583025D-02
     10b  0.580365D-02  0.000000D+00  0.106816D-01  0.238365D-02  0.280365D-02
                 6             7             8             9            10 
      1a  0.317127D-02  0.323935D-01  0.855030D-02  0.329116D-02  0.725432D-02
      1b  0.240304D-02 -0.333590D-01 -0.323935D-01 -0.772678D-02 -0.329117D-02
      2a  0.221784D-01  0.417926D-01 -0.377649D-01 -0.557533D-02  0.214251D-01
      2b  0.232565D-01  0.351652D-01 -0.417926D-01 -0.212354D-01  0.557534D-02
      3a  0.527357D-01 -0.487955D-03  0.820099D-02  0.815235D-02 -0.335487D-01
      3b  0.000000D+00 -0.855725D-02  0.487953D-03  0.242142D-01 -0.815235D-02
      4a  0.855725D-02  0.000000D+00  0.439176D-01  0.134013D-01 -0.562127D-02
      4b -0.487953D-03 -0.439176D-01  0.000000D+00 -0.184193D-02 -0.134013D-01
      5a -0.242142D-01 -0.134013D-01  0.184193D-02  0.000000D+00 -0.340486D-02
      5b  0.815235D-02  0.562127D-02  0.134013D-01  0.340486D-02  0.000000D+00
      6a  0.120725D-01 -0.397096D-02  0.658824D-02  0.000000D+00 -0.237906D-01
      6b -0.363961D-01 -0.486941D-02  0.397096D-02  0.237906D-01  0.000000D+00
      7a -0.990528D-02  0.000000D+00 -0.120052D-01  0.397099D-02  0.486939D-02
      7b -0.888727D-03  0.120052D-01  0.000000D+00 -0.658824D-02 -0.397100D-02
      8a -0.381697D-01 -0.888769D-03 -0.114734D-01 -0.363961D-01  0.416276D-01
      8b  0.000000D+00  0.990529D-02  0.888770D-03 -0.120725D-01  0.363961D-01
      9a  0.154909D-01  0.298321D-02 -0.807445D-02 -0.190940D-01  0.234252D-01
      9b  0.186436D-02  0.826922D-02 -0.298321D-02 -0.239144D-01  0.190940D-01
     10a  0.283237D-02 -0.353094D-02 -0.668005D-02  0.210580D-02  0.582676D-02
     10b  0.583025D-02  0.103795D-01  0.353093D-02 -0.656677D-02 -0.210581D-02
                11            12            13            14            15 
      1a  0.210578D-02  0.582679D-02 -0.353096D-02 -0.668004D-02 -0.583020D-02
      1b -0.656678D-02 -0.210577D-02  0.103795D-01  0.353096D-02  0.280362D-02
      2a -0.190939D-01  0.234252D-01  0.298323D-02 -0.807446D-02 -0.186441D-02
      2b -0.239144D-01  0.190939D-01  0.826921D-02 -0.298323D-02 -0.163549D-01
      3a -0.363961D-01  0.416276D-01 -0.888728D-03 -0.114735D-01  0.000000D+00
      3b -0.120725D-01  0.363961D-01  0.990528D-02  0.888727D-03  0.381697D-01
      4a  0.397096D-02  0.486941D-02  0.000000D+00 -0.120052D-01  0.888769D-03
      4b -0.658824D-02 -0.397096D-02  0.120052D-01  0.000000D+00  0.114734D-01
      5a  0.000000D+00 -0.237906D-01 -0.397099D-02  0.658824D-02  0.363961D-01
      5b  0.237906D-01  0.000000D+00 -0.486939D-02  0.397100D-02 -0.416276D-01
      6a  0.000000D+00 -0.340487D-02 -0.134013D-01  0.184192D-02 -0.815239D-02
      6b  0.340487D-02  0.000000D+00  0.562126D-02  0.134013D-01  0.335487D-01
      7a  0.134013D-01 -0.562126D-02  0.000000D+00  0.439176D-01  0.487989D-03
      7b -0.184192D-02 -0.134013D-01 -0.439176D-01  0.000000D+00 -0.820099D-02
      8a  0.815239D-02 -0.335487D-01 -0.487989D-03  0.820099D-02  0.000000D+00
      8b  0.242141D-01 -0.815239D-02 -0.855722D-02  0.487991D-03 -0.527357D-01
      9a -0.557530D-02  0.214251D-01  0.417926D-01 -0.377649D-01 -0.232565D-01
      9b -0.212354D-01  0.557529D-02  0.351651D-01 -0.417926D-01 -0.191728D-01
     10a  0.329112D-02  0.725434D-02  0.323935D-01  0.855032D-02 -0.240300D-02
     10b -0.772676D-02 -0.329111D-02 -0.333591D-01 -0.323935D-01 -0.645651D-03
                16            17            18            19            20 
      1a  0.283236D-02 -0.238362D-02 -0.105730D-01  0.000000D+00 -0.580365D-02
      1b  0.583020D-02  0.106815D-01  0.238361D-02  0.580366D-02  0.000000D+00
      2a  0.154909D-01  0.000000D+00  0.296652D-02  0.238364D-02 -0.106816D-01
      2b  0.186442D-02 -0.296652D-02  0.000000D+00  0.105730D-01 -0.238365D-02
      3a -0.381696D-01  0.186437D-02  0.163550D-01  0.583025D-02 -0.280365D-02
      3b  0.000000D+00 -0.154909D-01 -0.186436D-02 -0.283237D-02 -0.583025D-02
      4a -0.990529D-02 -0.298321D-02 -0.826922D-02  0.353094D-02 -0.103795D-01
      4b -0.888770D-03  0.807445D-02  0.298321D-02  0.668005D-02 -0.353093D-02
      5a  0.120725D-01  0.190940D-01  0.239144D-01 -0.210580D-02  0.656677D-02
      5b -0.363961D-01 -0.234252D-01 -0.190940D-01 -0.582676D-02  0.210581D-02
      6a -0.242141D-01  0.557530D-02  0.212354D-01 -0.329112D-02  0.772676D-02
      6b  0.815239D-02 -0.214251D-01 -0.557529D-02 -0.725434D-02  0.329111D-02
      7a  0.855722D-02 -0.417926D-01 -0.351651D-01 -0.323935D-01  0.333591D-01
      7b -0.487991D-03  0.377649D-01  0.417926D-01 -0.855032D-02  0.323935D-01
      8a  0.527357D-01  0.232565D-01  0.191728D-01  0.240300D-02  0.645651D-03
      8b  0.000000D+00 -0.221784D-01 -0.232566D-01 -0.317124D-02 -0.240299D-02
      9a  0.221784D-01  0.000000D+00 -0.132360D+00  0.344106D-01 -0.353431D-01
      9b  0.232566D-01  0.132360D+00  0.000000D+00  0.361406D-01 -0.344106D-01
     10a  0.317124D-02 -0.344106D-01 -0.361406D-01  0.000000D+00 -0.353422D-02
     10b  0.240299D-02  0.353431D-01  0.344106D-01  0.353422D-02  0.000000D+00
FORTRAN STOP
