 Entering Gaussian System, Link 0=gdv
 AtFile(1): H.gbs
            H     0
            S   10   1.00
               1000.000000000000            0.000068713567
                316.227766000000            0.000169141320
                100.000000000000            0.000823394812
                 31.622776600000            0.003425569236
                 10.000000000000            0.013951996000
                  3.162277660000            0.056909313560
                  1.000000000000            0.198286399900
                  0.316227766000            0.496922426700
                  0.100000000000            0.369846276400
                  0.031622776600            0.003752720039
            ****
 Initial command:
 /users/lcj1/GHF_hess/exe-dir/l1.exe "/users/lcj1/GHF_hess/h10_2rows/mixrmY/Gau-10059.inp" -scrdir="/users/lcj1/GHF_hess/h10_2rows/mixrmY/"
 Entering Link 1 = /users/lcj1/GHF_hess/exe-dir/l1.exe PID=     10060.
  
 Copyright (c) 1988,1990,1992,1993,1995,1998,2003,2009,2012,
            Gaussian, Inc.  All Rights Reserved.
  
 This is the private, development version of
 the Gaussian(R) DV system of programs. It is based on
 the Gaussian(R) 09 system (copyright 2009, Gaussian, Inc.),
 the Gaussian(R) 03 system (copyright 2003, Gaussian, Inc.),
 the Gaussian(R) 98 system (copyright 1998, Gaussian, Inc.),
 the Gaussian(R) 94 system (copyright 1995, Gaussian, Inc.),
 the Gaussian 92(TM) system (copyright 1992, Gaussian, Inc.),
 the Gaussian 90(TM) system (copyright 1990, Gaussian, Inc.),
 the Gaussian 88(TM) system (copyright 1988, Gaussian, Inc.),
 the Gaussian 86(TM) system (copyright 1986, Carnegie Mellon
 University), and the Gaussian 82(TM) system (copyright 1983,
 Carnegie Mellon University). Gaussian is a federally registered
 trademark of Gaussian, Inc.
  
 This software contains proprietary and confidential information,
 including trade secrets, belonging to Gaussian, Inc.
  
 This software is provided under written license and may be
 used, copied, transmitted, or stored only in accord with that
 written license.
  
 The following legend is applicable only to US Government
 contracts under FAR:
  
                    RESTRICTED RIGHTS LEGEND
  
 Use, reproduction and disclosure by the US Government is
 subject to restrictions as set forth in subparagraphs (a)
 and (c) of the Commercial Computer Software - Restricted
 Rights clause in FAR 52.227-19.
  
 Gaussian, Inc.
 340 Quinnipiac St., Bldg. 40, Wallingford CT 06492
  
  
 ---------------------------------------------------------------
 Warning -- This program may not be used in any manner that
 competes with the business of Gaussian, Inc. or will provide
 assistance to any competitor of Gaussian, Inc.  The licensee
 of this program is prohibited from giving any competitor of
 Gaussian, Inc. access to this program.  By using this program,
 the user acknowledges that Gaussian, Inc. is engaged in the
 business of creating and licensing software in the field of
 computational chemistry and represents and warrants to the
 licensee that it is not a competitor of Gaussian, Inc. and that
 it will not use this program in any manner prohibited above.
 ---------------------------------------------------------------
  

 Cite this work as:
 Gaussian Development Version, Revision H.21,
 M. J. Frisch, G. W. Trucks, H. B. Schlegel, G. E. Scuseria, 
 M. A. Robb, J. R. Cheeseman, G. Scalmani, V. Barone, B. Mennucci, 
 G. A. Petersson, H. Nakatsuji, M. Caricato, X. Li, H. P. Hratchian, 
 A. F. Izmaylov, J. Bloino, G. Zheng, J. L. Sonnenberg, W. Liang, 
 M. Hada, M. Ehara, K. Toyota, R. Fukuda, J. Hasegawa, M. Ishida, 
 T. Nakajima, Y. Honda, O. Kitao, H. Nakai, T. Vreven, 
 J. A. Montgomery, Jr., J. E. Peralta, F. Ogliaro, M. Bearpark, 
 J. J. Heyd, E. Brothers, K. N. Kudin, V. N. Staroverov, T. Keith, 
 R. Kobayashi, J. Normand, K. Raghavachari, A. Rendell, J. C. Burant, 
 S. S. Iyengar, J. Tomasi, M. Cossi, N. Rega, J. M. Millam, M. Klene, 
 J. E. Knox, J. B. Cross, V. Bakken, C. Adamo, J. Jaramillo, 
 R. Gomperts, R. E. Stratmann, O. Yazyev, A. J. Austin, R. Cammi, 
 C. Pomelli, J. W. Ochterski, R. L. Martin, K. Morokuma, 
 V. G. Zakrzewski, G. A. Voth, P. Salvador, J. J. Dannenberg, 
 S. Dapprich, P. V. Parandekar, N. J. Mayhall, A. D. Daniels, 
 O. Farkas, J. B. Foresman, J. V. Ortiz, J. Cioslowski, 
 and D. J. Fox, Gaussian, Inc., Wallingford CT, 2010.
 
 ******************************************
 Gaussian DV:  EM64L-GDVRevH.21 13-May-2012
                28-Feb-2017 
 ******************************************
 %chk=h10.chk
 ----------------------------------------------------------------------
 #ghf/gen scf(tight,novaracc,noincfock,fulldiag) stable guess=mix geom=
 nocrowd use=l802 use=l902 test
 ----------------------------------------------------------------------
 ********************************************
   THE COMPLEX ERI TRANSFORMATION WITH L802  
        COMPLEX STABILITY WITH L902          
 ********************************************
 1/38=1/1;
 2/12=1,17=6,18=5,40=1/2;
 3/5=7,16=1,25=20,28=1,116=7/1,2,3,20;
 4/13=-1/1;
 5/5=100001,16=1,32=2,38=1/2;
 8/6=1,10=90,11=11/1,2;
 9/8=4,13=1/1,2;
 6/7=2,8=2,9=2,10=2,28=1/1;
 99/5=1,9=1/99;
 ----------------------------------------------------------------------
 hf stability analysis of h10 triangular lattice, y= 0.2662511995880488
 8 alpha= 7.0000000000000000
 ----------------------------------------------------------------------
 Symbolic Z-Matrix:
 Charge =  0 Multiplicity = 1
 H
 H                    1     2.18473 
 H                    1     2.18473  2     166. 
 H                    2     2.18473  1     14.      3     0.       0
 H                    3     2.18473  1     180.     2     0.       0
 H                    4     2.18473  2     180.     1     0.       0
 H                    5     2.18473  3     180.     2     0.       0
 H                    6     2.18473  4     180.     1     0.       0
 H                    7     2.18473  5     180.     2     0.       0
 H                    8     2.18473  6     180.     1     0.       0
 
                          Input orientation:                          
 ---------------------------------------------------------------------
 Center     Atomic      Atomic             Coordinates (Angstroms)
 Number     Number       Type             X           Y           Z
 ---------------------------------------------------------------------
      1          1           0        0.000000    0.000000    0.000000
      2          1           0        0.000000    0.000000    2.184727
      3          1           0        0.528533    0.000000   -2.119831
      4          1           0        0.528533    0.000000    0.064896
      5          1           0        1.057066    0.000000   -4.239662
      6          1           0        1.057066    0.000000   -2.054935
      7          1           0        1.585600    0.000000   -6.359493
      8          1           0        1.585600    0.000000   -4.174766
      9          1           0        2.114133    0.000000   -8.479323
     10          1           0        2.114133    0.000000   -6.294597
 ---------------------------------------------------------------------
                    Distance matrix (angstroms):
                    1          2          3          4          5
     1  H    0.000000
     2  H    2.184727   0.000000
     3  H    2.184727   4.336884   0.000000
     4  H    0.532502   2.184727   2.184727   0.000000
     5  H    4.369453   6.510772   2.184727   4.336884   0.000000
     6  H    2.310876   4.369453   0.532502   2.184727   2.184727
     7  H    6.554180   8.690098   4.369453   6.510772   2.184727
     8  H    4.465736   6.554180   2.310876   4.369453   0.532502
     9  H    8.738906  10.871592   6.554180   8.690098   4.369453
    10  H    6.640144   8.738906   4.465736   6.554180   2.310876
                    6          7          8          9         10
     6  H    0.000000
     7  H    4.336884   0.000000
     8  H    2.184727   2.184727   0.000000
     9  H    6.510772   2.184727   4.336884   0.000000
    10  H    4.369453   0.532502   2.184727   2.184727   0.000000
 Stoichiometry    H10
 Framework group  C2H[SGH(H10)]
 Deg. of freedom     9
 Full point group                 C2H     NOp   4
 Largest Abelian subgroup         C2H     NOp   4
 Largest concise Abelian subgroup C2      NOp   2
                         Standard orientation:                         
 ---------------------------------------------------------------------
 Center     Atomic      Atomic             Coordinates (Angstroms)
 Number     Number       Type             X           Y           Z
 ---------------------------------------------------------------------
      1          1           0        1.057066   -3.147298    0.000000
      2          1           0        1.057066   -5.332025    0.000000
      3          1           0        0.528533   -1.027468    0.000000
      4          1           0        0.528533   -3.212194    0.000000
      5          1           0        0.000000    1.092363    0.000000
      6          1           0        0.000000   -1.092363    0.000000
      7          1           0       -0.528533    3.212194    0.000000
      8          1           0       -0.528533    1.027468    0.000000
      9          1           0       -1.057066    5.332025    0.000000
     10          1           0       -1.057066    3.147298    0.000000
 ---------------------------------------------------------------------
 Rotational constants (GHZ):    803.0962644      4.6966456      4.6693385
 General basis read from cards:  (5D, 7F)
 There are     5 symmetry adapted cartesian basis functions of AG  symmetry.
 There are     0 symmetry adapted cartesian basis functions of BG  symmetry.
 There are     0 symmetry adapted cartesian basis functions of AU  symmetry.
 There are     5 symmetry adapted cartesian basis functions of BU  symmetry.
 There are     5 symmetry adapted basis functions of AG  symmetry.
 There are     0 symmetry adapted basis functions of BG  symmetry.
 There are     0 symmetry adapted basis functions of AU  symmetry.
 There are     5 symmetry adapted basis functions of BU  symmetry.
    10 basis functions,   100 primitive gaussians,    10 cartesian basis functions
     5 alpha electrons        5 beta electrons
       nuclear repulsion energy        10.2005903863 Hartrees.
 NAtoms=   10 NActive=   10 NUniq=    5 SFac= 4.00D+00 NAtFMM=   60 NAOKFM=F Big=F
 Integral buffers will be    131072 words long.
 Regular integral format.
 Two-electron integral symmetry is turned off.
 One-electron integrals computed using PRISM.
 NBasis=    10 RedAO= T EigKep=  1.23D-01  NBF=     5     0     0     5
 NBsUse=    10 1.00D-06 EigRej= -1.00D+00 NBFU=     5     0     0     5
 IOp(28)                       1
                        1                       0
                        2                       1
                        3                       1
                        4                      20
                        5                       0
                        6                       0
                        7                      10
                        8                       1
                        9                       4
                       10                       0
                       11              1073741824
                       12                      20
                       13                       2
                       14                  131070
                       15                       1
                       16                       1
                       17                  131073
                       18                       0
                       19                       0
                       20                       0
                       21                       2
                       22                  131070
                       23                       0
                       24                       0
                       25                       0
                       26                       0
                       27                   65535
                       28                       2
                       29                  131072
                       30                       0
 IHMeth                       1
 ib3: ISMode =                        0                       4
 Enter DskPsm, NBasis=  10 NBas6D=  10 NShell=  10 IDoSP=4.
 Out2e will use a cutoff of  1.00D-10
 FoFCou: FMM=F IPFlag=           0 FMFlag=           0 FMFlg1=           0
         NFxFlg=           0 DoJE=F BraDBF=F KetDBF=F FulRan=T
         wScrn=  0.000000 ICntrl=     600 IOpCl=  9 I1Cent=           0 NGrid=           0
         NMat0=    0 NMatS0=      0 NMatT0=    0 NMatD0=    0 NMtDS0=    0 NMtDT0=    0
 Symmetry not used in FoFCou.
 Entering PrmDigJobTyp =                      20
 LenSav and NKeep                       0                       0
 Entered Stor2E with KNTT1,2                       2                  131070
 Leave Stor2X
 Entering PrmDigJobTyp =                      20
 LenSav and NKeep                       0                       0
 Entered Stor2E with KNTT1,2                       2                  131056
 Leave Stor2X
 Entering PrmDigJobTyp =                      20
 LenSav and NKeep                       0                       0
 Entered Stor2E with KNTT1,2                       2                  131042
 Leave Stor2X
 Entering PrmDigJobTyp =                      20
 LenSav and NKeep                       0                       0
 Entered Stor2E with KNTT1,2                       2                  131028
 Leave Stor2X
 Entering PrmDigJobTyp =                      20
 LenSav and NKeep                       0                       0
 Entered Stor2E with KNTT1,2                       2                  131014
 Leave Stor2X
 Entering PrmDigJobTyp =                      20
 LenSav and NKeep                       0                       0
 Entered Stor2E with KNTT1,2                       2                  131000
 Leave Stor2X
 Entering PrmDigJobTyp =                      20
 LenSav and NKeep                       0                       0
 Entered Stor2E with KNTT1,2                       2                  130986
 Leave Stor2X
 Entering PrmDigJobTyp =                      20
 LenSav and NKeep                       0                       0
 Entered Stor2E with KNTT1,2                       2                  130972
 Leave Stor2X
 Entering PrmDigJobTyp =                      20
 LenSav and NKeep                       0                       0
 Entered Stor2E with KNTT1,2                       2                  130960
 Leave Stor2X
 Entering PrmDigJobTyp =                      20
 LenSav and NKeep                       0                       0
 Entered Stor2E with KNTT1,2                       2                  130942
 Leave Stor2X
 Entering PrmDigJobTyp =                      20
 LenSav and NKeep                       0                       0
 Entered Stor2E with KNTT1,2                       2                  130924
 Leave Stor2X
 Entering PrmDigJobTyp =                      20
 LenSav and NKeep                       0                       0
 Entered Stor2E with KNTT1,2                       2                  130906
 Leave Stor2X
 Entering PrmDigJobTyp =                      20
 LenSav and NKeep                       0                       0
 Entered Stor2E with KNTT1,2                       2                  130888
 Leave Stor2X
 Entering PrmDigJobTyp =                      20
 LenSav and NKeep                       0                       0
 Entered Stor2E with KNTT1,2                       2                  130870
 Leave Stor2X
 Entering PrmDigJobTyp =                      20
 LenSav and NKeep                       0                       0
 Entered Stor2E with KNTT1,2                       2                  130852
 Leave Stor2X
 Entering PrmDigJobTyp =                      20
 LenSav and NKeep                       0                       0
 Entered Stor2E with KNTT1,2                       2                  130834
 Leave Stor2X
 Entering PrmDigJobTyp =                      20
 LenSav and NKeep                       0                       0
 Entered Stor2E with KNTT1,2                       2                  130816
 Leave Stor2X
 Entering PrmDigJobTyp =                      20
 LenSav and NKeep                       0                       0
 Entered Stor2E with KNTT1,2                       2                  130798
 Leave Stor2X
 Entering PrmDigJobTyp =                      20
 LenSav and NKeep                       0                       0
 Entered Stor2E with KNTT1,2                       2                  130780
 Leave Stor2X
 Entering PrmDigJobTyp =                      20
 LenSav and NKeep                       0                       0
 Entered Stor2E with KNTT1,2                       2                  130762
 Leave Stor2X
 Entering PrmDigJobTyp =                      20
 LenSav and NKeep                       0                       0
 Entered Stor2E with KNTT1,2                       2                  130744
 Leave Stor2X
 Entering PrmDigJobTyp =                      20
 LenSav and NKeep                       0                       0
 Entered Stor2E with KNTT1,2                       2                  130726
 Leave Stor2X
 Entering PrmDigJobTyp =                      20
 LenSav and NKeep                       0                       0
 Entered Stor2E with KNTT1,2                       2                  130708
 Leave Stor2X
 Entering PrmDigJobTyp =                      20
 LenSav and NKeep                       0                       0
 Entered Stor2E with KNTT1,2                       2                  130700
 Leave Stor2X
 Entering PrmDigJobTyp =                      20
 LenSav and NKeep                       0                       0
 Entered Stor2E with KNTT1,2                      10                  130680
 Leave Stor2X
 Entering PrmDigJobTyp =                      20
 LenSav and NKeep                       0                       0
 Entered Stor2E with KNTT1,2                      24                  130666
 Leave Stor2X
 Entering PrmDigJobTyp =                      20
 LenSav and NKeep                       0                       0
 Entered Stor2E with KNTT1,2                      44                  130658
 Leave Stor2X
 Entering PrmDigJobTyp =                      20
 LenSav and NKeep                       0                       0
 Entered Stor2E with KNTT1,2                      62                  130648
 Leave Stor2X
 Entering PrmDigJobTyp =                      20
 LenSav and NKeep                       0                       0
 Entered Stor2E with KNTT1,2                      84                  130642
 Leave Stor2X
 Entering PrmDigJobTyp =                      20
 LenSav and NKeep                       0                       0
 Entered Stor2E with KNTT1,2                     106                  130636
 Leave Stor2X
 Entering PrmDigJobTyp =                      20
 LenSav and NKeep                       0                       0
 Entered Stor2E with KNTT1,2                     114                  130630
 Leave Stor2X
 Entering PrmDigJobTyp =                      20
 LenSav and NKeep                       0                       0
 Entered Stor2E with KNTT1,2                     114                  130606
 Leave Stor2X
 Entering PrmDigJobTyp =                      20
 LenSav and NKeep                       0                       0
 Entered Stor2E with KNTT1,2                     114                  130582
 Leave Stor2X
 Entering PrmDigJobTyp =                      20
 LenSav and NKeep                       0                       0
 Entered Stor2E with KNTT1,2                     114                  130558
 Leave Stor2X
 Entering PrmDigJobTyp =                      20
 LenSav and NKeep                       0                       0
 Entered Stor2E with KNTT1,2                     114                  130534
 Leave Stor2X
 Entering PrmDigJobTyp =                      20
 LenSav and NKeep                       0                       0
 Entered Stor2E with KNTT1,2                     114                  130510
 Leave Stor2X
 Entering PrmDigJobTyp =                      20
 LenSav and NKeep                       0                       0
 Entered Stor2E with KNTT1,2                     114                  130486
 Leave Stor2X
 Entering PrmDigJobTyp =                      20
 LenSav and NKeep                       0                       0
 Entered Stor2E with KNTT1,2                     114                  130462
 Leave Stor2X
 Entering PrmDigJobTyp =                      20
 LenSav and NKeep                       0                       0
 Entered Stor2E with KNTT1,2                     114                  130438
 Leave Stor2X
 Entering PrmDigJobTyp =                      20
 LenSav and NKeep                       0                       0
 Entered Stor2E with KNTT1,2                     114                  130430
 Leave Stor2X
 Entering PrmDigJobTyp =                      20
 LenSav and NKeep                       0                       0
 Entered Stor2E with KNTT1,2                     136                  130414
 Leave Stor2X
 Entering PrmDigJobTyp =                      20
 LenSav and NKeep                       0                       0
 Entered Stor2E with KNTT1,2                     158                  130398
 Leave Stor2X
 Entering PrmDigJobTyp =                      20
 LenSav and NKeep                       0                       0
 Entered Stor2E with KNTT1,2                     180                  130382
 Leave Stor2X
 Entering PrmDigJobTyp =                      20
 LenSav and NKeep                       0                       0
 Entered Stor2E with KNTT1,2                     200                  130364
 Leave Stor2X
 Entering PrmDigJobTyp =                      20
 LenSav and NKeep                       0                       0
 Entered Stor2E with KNTT1,2                     226                  130352
 Leave Stor2X
 Entering PrmDigJobTyp =                      20
 LenSav and NKeep                       0                       0
 Entered Stor2E with KNTT1,2                     250                  130338
 Leave Stor2X
 Entering PrmDigJobTyp =                      20
 LenSav and NKeep                       0                       0
 Entered Stor2E with KNTT1,2                     266                  130322
 Leave Stor2X
 Entering PrmDigJobTyp =                      20
 LenSav and NKeep                       0                       0
 Entered Stor2E with KNTT1,2                     294                  130298
 Leave Stor2X
 Entering PrmDigJobTyp =                      20
 LenSav and NKeep                       0                       0
 Entered Stor2E with KNTT1,2                     328                  130280
 Leave Stor2X
 Entering PrmDigJobTyp =                      20
 LenSav and NKeep                       0                       0
 Entered Stor2E with KNTT1,2                     332                  130278
 Leave Stor2X
 Entering PrmDigJobTyp =                      20
 LenSav and NKeep                       0                       0
 Entered Stor2E with KNTT1,2                     332                  130264
 Leave Stor2X
 Entering PrmDigJobTyp =                      20
 LenSav and NKeep                       0                       0
 Entered Stor2E with KNTT1,2                     332                  130250
 Leave Stor2X
 Entering PrmDigJobTyp =                      20
 LenSav and NKeep                       0                       0
 Entered Stor2E with KNTT1,2                     332                  130236
 Leave Stor2X
 Entering PrmDigJobTyp =                      20
 LenSav and NKeep                       0                       0
 Entered Stor2E with KNTT1,2                     332                  130222
 Leave Stor2X
 Entering PrmDigJobTyp =                      20
 LenSav and NKeep                       0                       0
 Entered Stor2E with KNTT1,2                     332                  130208
 Leave Stor2X
 Entering PrmDigJobTyp =                      20
 LenSav and NKeep                       0                       0
 Entered Stor2E with KNTT1,2                     332                  130198
 Leave Stor2X
 Entering PrmDigJobTyp =                      20
 LenSav and NKeep                       0                       0
 Entered Stor2E with KNTT1,2                     342                  130188
 Leave Stor2X
 Entering PrmDigJobTyp =                      20
 LenSav and NKeep                       0                       0
 Entered Stor2E with KNTT1,2                     352                  130178
 Leave Stor2X
 Entering PrmDigJobTyp =                      20
 LenSav and NKeep                       0                       0
 Entered Stor2E with KNTT1,2                     370                  130176
 Leave Stor2X
 Entering PrmDigJobTyp =                      20
 LenSav and NKeep                       0                       0
 Entered Stor2E with KNTT1,2                     378                  130164
 Leave Stor2X
 Entering PrmDigJobTyp =                      20
 LenSav and NKeep                       0                       0
 Entered Stor2E with KNTT1,2                     392                  130158
 Leave Stor2X
 Entering PrmDigJobTyp =                      20
 LenSav and NKeep                       0                       0
 Entered Stor2E with KNTT1,2                     392                  130154
 Leave Stor2X
 Entering PrmDigJobTyp =                      20
 LenSav and NKeep                       0                       0
 Entered Stor2E with KNTT1,2                     410                  130144
 Leave Stor2X
 Entering PrmDigJobTyp =                      20
 LenSav and NKeep                       0                       0
 Entered Stor2E with KNTT1,2                     424                  130130
 Leave Stor2X
 Entering PrmDigJobTyp =                      20
 LenSav and NKeep                       0                       0
 Entered Stor2E with KNTT1,2                     440                  130122
 Leave Stor2X
 Entering PrmDigJobTyp =                      20
 LenSav and NKeep                       0                       0
 Entered Stor2E with KNTT1,2                     450                  130116
 Leave Stor2X
 Entering PrmDigJobTyp =                      20
 LenSav and NKeep                       0                       0
 Entered Stor2E with KNTT1,2                     452                  130114
 Leave Stor2X
 Entering PrmDigJobTyp =                      20
 LenSav and NKeep                       0                       0
 Entered Stor2E with KNTT1,2                     452                  130084
 Leave Stor2X
 Entering PrmDigJobTyp =                      20
 LenSav and NKeep                       0                       0
 Entered Stor2E with KNTT1,2                     452                  130054
 Leave Stor2X
 Entering PrmDigJobTyp =                      20
 LenSav and NKeep                       0                       0
 Entered Stor2E with KNTT1,2                     452                  130024
 Leave Stor2X
 Entering PrmDigJobTyp =                      20
 LenSav and NKeep                       0                       0
 Entered Stor2E with KNTT1,2                     452                  129994
 Leave Stor2X
 Entering PrmDigJobTyp =                      20
 LenSav and NKeep                       0                       0
 Entered Stor2E with KNTT1,2                     452                  129964
 Leave Stor2X
 Entering PrmDigJobTyp =                      20
 LenSav and NKeep                       0                       0
 Entered Stor2E with KNTT1,2                     452                  129954
 Leave Stor2X
 Entering PrmDigJobTyp =                      20
 LenSav and NKeep                       0                       0
 Entered Stor2E with KNTT1,2                     480                  129934
 Leave Stor2X
 Entering PrmDigJobTyp =                      20
 LenSav and NKeep                       0                       0
 Entered Stor2E with KNTT1,2                     510                  129916
 Leave Stor2X
 Entering PrmDigJobTyp =                      20
 LenSav and NKeep                       0                       0
 Entered Stor2E with KNTT1,2                     540                  129898
 Leave Stor2X
 Entering PrmDigJobTyp =                      20
 LenSav and NKeep                       0                       0
 Entered Stor2E with KNTT1,2                     570                  129880
 Leave Stor2X
 Entering PrmDigJobTyp =                      20
 LenSav and NKeep                       0                       0
 Entered Stor2E with KNTT1,2                     580                  129874
 Leave Stor2X
 Entering PrmDigJobTyp =                      20
 LenSav and NKeep                       0                       0
 Entered Stor2E with KNTT1,2                     620                  129848
 Leave Stor2X
 Entering PrmDigJobTyp =                      20
 LenSav and NKeep                       0                       0
 Entered Stor2E with KNTT1,2                     660                  129822
 Leave Stor2X
 Entering PrmDigJobTyp =                      20
 LenSav and NKeep                       0                       0
 Entered Stor2E with KNTT1,2                     680                  129814
 Leave Stor2X
 Entering PrmDigJobTyp =                      20
 LenSav and NKeep                       0                       0
 Entered Stor2E with KNTT1,2                     702                  129800
 Leave Stor2X
 Entering PrmDigJobTyp =                      20
 LenSav and NKeep                       0                       0
 Entered Stor2E with KNTT1,2                     720                  129790
 Leave Stor2X
 Entering PrmDigJobTyp =                      20
 LenSav and NKeep                       0                       0
 Entered Stor2E with KNTT1,2                     764                  129762
 Leave Stor2X
 Entering PrmDigJobTyp =                      20
 LenSav and NKeep                       0                       0
 Entered Stor2E with KNTT1,2                     764                  129744
 Leave Stor2X
 Entering PrmDigJobTyp =                      20
 LenSav and NKeep                       0                       0
 Entered Stor2E with KNTT1,2                     764                  129726
 Leave Stor2X
 Entering PrmDigJobTyp =                      20
 LenSav and NKeep                       0                       0
 Entered Stor2E with KNTT1,2                     764                  129708
 Leave Stor2X
 Entering PrmDigJobTyp =                      20
 LenSav and NKeep                       0                       0
 Entered Stor2E with KNTT1,2                     764                  129702
 Leave Stor2X
 Entering PrmDigJobTyp =                      20
 LenSav and NKeep                       0                       0
 Entered Stor2E with KNTT1,2                     782                  129692
 Leave Stor2X
 Entering PrmDigJobTyp =                      20
 LenSav and NKeep                       0                       0
 Entered Stor2E with KNTT1,2                     798                  129680
 Leave Stor2X
 Entering PrmDigJobTyp =                      20
 LenSav and NKeep                       0                       0
 Entered Stor2E with KNTT1,2                     810                  129670
 Leave Stor2X
 Entering PrmDigJobTyp =                      20
 LenSav and NKeep                       0                       0
 Entered Stor2E with KNTT1,2                     832                  129654
 Leave Stor2X
 Entering PrmDigJobTyp =                      20
 LenSav and NKeep                       0                       0
 Entered Stor2E with KNTT1,2                     846                  129646
 Leave Stor2X
 Entering PrmDigJobTyp =                      20
 LenSav and NKeep                       0                       0
 Entered Stor2E with KNTT1,2                     858                  129636
 Leave Stor2X
 Entering PrmDigJobTyp =                      20
 LenSav and NKeep                       0                       0
 Entered Stor2E with KNTT1,2                     858                  129634
 Leave Stor2X
 Entering PrmDigJobTyp =                      20
 LenSav and NKeep                       0                       0
 Entered Stor2E with KNTT1,2                     890                  129618
 Leave Stor2X
 Entering PrmDigJobTyp =                      20
 LenSav and NKeep                       0                       0
 Entered Stor2E with KNTT1,2                     896                  129612
 Leave Stor2X
 Entering PrmDigJobTyp =                      20
 LenSav and NKeep                       0                       0
 Entered Stor2E with KNTT1,2                     896                  129564
 Leave Stor2X
 Entering PrmDigJobTyp =                      20
 LenSav and NKeep                       0                       0
 Entered Stor2E with KNTT1,2                     896                  129532
 Leave Stor2X
 Entering PrmDigJobTyp =                      20
 LenSav and NKeep                       0                       0
 Entered Stor2E with KNTT1,2                     944                  129506
 Leave Stor2X
 Entering PrmDigJobTyp =                      20
 LenSav and NKeep                       0                       0
 Entered Stor2E with KNTT1,2                     964                  129496
 Leave Stor2X
 Entering PrmDigJobTyp =                      20
 LenSav and NKeep                       0                       0
 Entered Stor2E with KNTT1,2                    1016                  129468
 Leave Stor2X
 Entering PrmDigJobTyp =                      20
 LenSav and NKeep                       0                       0
 Entered Stor2E with KNTT1,2                    1040                  129460
 Leave Stor2X
 Entering PrmDigJobTyp =                      20
 LenSav and NKeep                       0                       0
 Entered Stor2E with KNTT1,2                    1048                  129452
 Leave Stor2X
 Entering PrmDigJobTyp =                      20
 LenSav and NKeep                       0                       0
 Entered Stor2E with KNTT1,2                    1056                  129444
 Leave Stor2X
 Entering PrmDigJobTyp =                      20
 LenSav and NKeep                       0                       0
 Entered Stor2E with KNTT1,2                    1064                  129436
 Leave Stor2X
 Entering PrmDigJobTyp =                      20
 LenSav and NKeep                       0                       0
 Entered Stor2E with KNTT1,2                    1072                  129428
 Leave Stor2X
 Entering PrmDigJobTyp =                      20
 LenSav and NKeep                       0                       0
 Entered Stor2E with KNTT1,2                    1092                  129424
 Leave Stor2X
 Entering PrmDigJobTyp =                      20
 LenSav and NKeep                       0                       0
 Entered Stor2E with KNTT1,2                    1092                  129424
 Leave Stor2X
 Entering PrmDigJobTyp =                      20
 LenSav and NKeep                       0                       0
 Entered Stor2E with KNTT1,2                    1092                  129400
 Leave Stor2X
 Entering PrmDigJobTyp =                      20
 LenSav and NKeep                       0                       0
 Entered Stor2E with KNTT1,2                    1092                  129384
 Leave Stor2X
 Entering PrmDigJobTyp =                      20
 LenSav and NKeep                       0                       0
 Entered Stor2E with KNTT1,2                    1116                  129368
 Leave Stor2X
 Entering PrmDigJobTyp =                      20
 LenSav and NKeep                       0                       0
 Entered Stor2E with KNTT1,2                    1124                  129364
 Leave Stor2X
 Entering PrmDigJobTyp =                      20
 LenSav and NKeep                       0                       0
 Entered Stor2E with KNTT1,2                    1152                  129352
 Leave Stor2X
 Entering PrmDigJobTyp =                      20
 LenSav and NKeep                       0                       0
 Entered Stor2E with KNTT1,2                    1160                  129344
 Leave Stor2X
 Entering PrmDigJobTyp =                      20
 LenSav and NKeep                       0                       0
 Entered Stor2E with KNTT1,2                    1180                  129332
 Leave Stor2X
 Entering PrmDigJobTyp =                      20
 LenSav and NKeep                       0                       0
 Entered Stor2E with KNTT1,2                    1184                  129324
 Leave Stor2X
 Entering PrmDigJobTyp =                      20
 LenSav and NKeep                       0                       0
 Entered Stor2E with KNTT1,2                    1196                  129320
 Leave Stor2X
 Entering PrmDigJobTyp =                      20
 LenSav and NKeep                       0                       0
 Entered Stor2E with KNTT1,2                    1198                  129316
 Leave Stor2X
 Entering PrmDigJobTyp =                      20
 LenSav and NKeep                       0                       0
 Entered Stor2E with KNTT1,2                    1198                  129296
 Leave Stor2X
 Entering PrmDigJobTyp =                      20
 LenSav and NKeep                       0                       0
 Entered Stor2E with KNTT1,2                    1216                  129288
 Leave Stor2X
 Entering PrmDigJobTyp =                      20
 LenSav and NKeep                       0                       0
 Entered Stor2E with KNTT1,2                    1226                  129282
 Leave Stor2X
 Entering PrmDigJobTyp =                      20
 LenSav and NKeep                       0                       0
 Entered Stor2E with KNTT1,2                    1228                  129280
 Leave Stor2X
 Entering PrmDigJobTyp =                      20
 LenSav and NKeep                       0                       0
 Entered Stor2E with KNTT1,2                    1236                  129280
 Leave Stor2X
 Entering PrmDigJobTyp =                      20
 LenSav and NKeep                       0                       0
 Entered Stor2E with KNTT1,2                    1236                  129280
 Leave Stor2X
 Entering PrmDigJobTyp =                      20
 LenSav and NKeep                       0                       0
 Entered Stor2E with KNTT1,2                    1242                  129280
 Leave Stor2X
 In PrSumR
 Called IWRITE
         1517 integrals produced for a total of         1517.
 ExpMin= 3.16D-02 ExpMax= 1.00D+03 ExpMxC= 1.00D+01 IAcc=3 IRadAn=         5 AccDes= 0.00D+00
 Harris functional with IExCor=  205 and IRadAn=       5 diagonalized for initial guess.
 HarFok:  IExCor=  205 AccDes= 0.00D+00 IRadAn=         5 IDoV= 1 UseB2=F ITyADJ=14
 ICtDFT=  3500011 ScaDFX=  1.000000  1.000000  1.000000  1.000000
 FoFCou: FMM=F IPFlag=           0 FMFlag=      100000 FMFlg1=           0
         NFxFlg=           0 DoJE=T BraDBF=F KetDBF=T FulRan=T
         wScrn=  0.000000 ICntrl=     500 IOpCl=  0 I1Cent=   200000004 NGrid=           0
         NMat0=    1 NMatS0=      1 NMatT0=    0 NMatD0=    1 NMtDS0=    0 NMtDT0=    0
 Petite list used in FoFCou.
 Mixing orbitals, IMix= 3 IMixAn=  0 NRI=2 NE=   10 Coef=  7.07106781D-01  7.07106781D-01
 Also mixing orbitals    10 and    12 Coef=  3.82683432D-01  9.23879533D-01
 Initial guess <Sx>= 0.0000 <Sy>=-0.2500 <Sz>= 0.4268 <S**2>= 1.0000 S= 0.6180
 Two-electron integrals will be kept in memory, NGetB=      152788.
 Requested convergence on RMS density matrix=1.00D-08 within 128 cycles.
 Requested convergence on MAX density matrix=1.00D-06.
 Requested convergence on             energy=1.00D-06.
 No special actions if energy rises.
 Density File Not Found. Continue as usual
 SCF Done:  E(GHF) =  -4.95693952158     A.U. after    9 cycles
            NFock=  9  Conv=0.91D-09     -V/T= 2.0455
 <Sx>= 0.0000 <Sy>=-0.3574 <Sz>= 0.6101 <S**2>= 1.5000 S= 0.8229
 <L.S>= 0.000000000000E+00
 Range of M.O.s used for correlation:     1    10
 NBasis=    10 NAE=    10 NBE=     0 NFC=     0 NFV=     0
 NROrb=     20 NOA=    10 NOB=     0 NVA=    10 NVB=     0
 jaja DoHack is true or false? T
 jaja in hckghf.F, NBasis=                      10
 jaja in hckGHF/FixOG, LC =                      800
 jaja in hckGHF/FixOG, IRwC=                      548
 bfr conversion (real):
                 1             2             3             4             5 
      1a  0.168087D+00  0.000000D+00 -0.286432D+00  0.000000D+00  0.312195D+00
      1b  0.000000D+00  0.164601D+00  0.000000D+00  0.286040D+00  0.000000D+00
      2a  0.113169D-01  0.000000D+00 -0.223213D-01  0.000000D+00  0.315371D-01
      2b  0.000000D+00 -0.122347D-02  0.000000D+00 -0.154312D-02  0.000000D+00
      3a  0.256282D+00  0.000000D+00 -0.172436D+00  0.000000D+00 -0.199037D+00
      3b  0.000000D+00  0.268299D+00  0.000000D+00  0.172481D+00  0.000000D+00
      4a  0.167102D+00  0.000000D+00 -0.286502D+00  0.000000D+00  0.314635D+00
      4b  0.000000D+00  0.163535D+00  0.000000D+00  0.286133D+00  0.000000D+00
      5a  0.258622D+00  0.000000D+00  0.160677D+00  0.000000D+00 -0.211776D+00
      5b  0.000000D+00  0.263761D+00  0.000000D+00 -0.190265D+00  0.000000D+00
      6a  0.255577D+00  0.000000D+00 -0.175284D+00  0.000000D+00 -0.195814D+00
      6b  0.000000D+00  0.267509D+00  0.000000D+00  0.175487D+00  0.000000D+00
      7a  0.175263D+00  0.000000D+00  0.290891D+00  0.000000D+00  0.307745D+00
      7b  0.000000D+00  0.153741D+00  0.000000D+00 -0.279201D+00  0.000000D+00
      8a  0.259246D+00  0.000000D+00  0.157693D+00  0.000000D+00 -0.214864D+00
      8b  0.000000D+00  0.264648D+00  0.000000D+00 -0.187411D+00  0.000000D+00
      9a  0.159873D-01  0.000000D+00  0.314535D-01  0.000000D+00  0.436819D-01
      9b  0.000000D+00 -0.656301D-02  0.000000D+00  0.114535D-01  0.000000D+00
     10a  0.176238D+00  0.000000D+00  0.290716D+00  0.000000D+00  0.305248D+00
     10b  0.000000D+00  0.154819D+00  0.000000D+00 -0.279223D+00  0.000000D+00
                 6             7             8             9            10 
      1a  0.000000D+00 -0.211989D+00  0.000000D+00 -0.755589D-01  0.774636D-01
      1b  0.318800D+00  0.000000D+00  0.218114D+00  0.000000D+00  0.000000D+00
      2a  0.000000D+00 -0.285959D-01  0.000000D+00  0.567810D+00 -0.567677D+00
      2b -0.576206D-05  0.000000D+00  0.150760D-02  0.000000D+00  0.000000D+00
      3a  0.000000D+00  0.362866D+00  0.000000D+00  0.119703D-01 -0.214647D-01
      3b -0.203997D+00  0.000000D+00 -0.351861D+00  0.000000D+00  0.000000D+00
      4a  0.000000D+00 -0.214699D+00  0.000000D+00 -0.756972D-01  0.775431D-01
      4b  0.321299D+00  0.000000D+00  0.220786D+00  0.000000D+00  0.000000D+00
      5a  0.000000D+00 -0.358809D+00  0.000000D+00  0.184453D-01  0.257480D-01
      5b -0.184845D+00  0.000000D+00  0.356417D+00  0.000000D+00  0.000000D+00
      6a  0.000000D+00  0.363545D+00  0.000000D+00  0.130481D-01 -0.222125D-01
      6b -0.200944D+00  0.000000D+00 -0.352475D+00  0.000000D+00  0.000000D+00
      7a  0.000000D+00  0.203022D+00  0.000000D+00 -0.953023D-01 -0.967442D-01
      7b  0.325656D+00  0.000000D+00 -0.230720D+00  0.000000D+00  0.000000D+00
      8a  0.000000D+00 -0.358038D+00  0.000000D+00  0.171699D-01  0.247354D-01
      8b -0.188018D+00  0.000000D+00  0.355880D+00  0.000000D+00  0.000000D+00
      9a  0.000000D+00  0.387743D-01  0.000000D+00  0.711611D+00  0.711418D+00
      9b -0.123064D-01  0.000000D+00  0.784990D-02  0.000000D+00  0.000000D+00
     10a  0.000000D+00  0.200390D+00  0.000000D+00 -0.951422D-01 -0.966314D-01
     10b  0.323223D+00  0.000000D+00 -0.227981D+00  0.000000D+00  0.000000D+00
                11            12            13            14            15 
      1a  0.000000D+00  0.000000D+00  0.633057D+00  0.000000D+00 -0.106085D+01
      1b -0.481681D-01  0.487719D-01  0.000000D+00 -0.631868D+00  0.000000D+00
      2a  0.000000D+00  0.000000D+00  0.290893D-02  0.000000D+00 -0.242928D-02
      2b  0.569090D+00 -0.569206D+00  0.000000D+00 -0.404048D-02  0.000000D+00
      3a  0.000000D+00  0.000000D+00  0.100249D+01  0.000000D+00 -0.651365D+00
      3b  0.161219D-02 -0.485028D-02  0.000000D+00 -0.100606D+01  0.000000D+00
      4a  0.000000D+00  0.000000D+00 -0.646723D+00  0.000000D+00  0.107300D+01
      4b -0.469112D-01  0.471332D-01  0.000000D+00  0.645748D+00  0.000000D+00
      5a  0.000000D+00  0.000000D+00  0.100711D+01  0.000000D+00  0.625428D+00
      5b  0.127223D-01  0.144694D-01  0.000000D+00 -0.100854D+01  0.000000D+00
      6a  0.000000D+00  0.000000D+00 -0.100603D+01  0.000000D+00  0.629794D+00
      6b  0.975329D-02 -0.119439D-01  0.000000D+00  0.100963D+01  0.000000D+00
      7a  0.000000D+00  0.000000D+00  0.649514D+00  0.000000D+00  0.107438D+01
      7b -0.588438D-01 -0.590157D-01  0.000000D+00 -0.642914D+00  0.000000D+00
      8a  0.000000D+00  0.000000D+00 -0.100361D+01  0.000000D+00 -0.647076D+00
      8b  0.275802D-02  0.534115D-02  0.000000D+00  0.100492D+01  0.000000D+00
      9a  0.000000D+00  0.000000D+00 -0.249822D-02  0.000000D+00 -0.211586D-02
      9b  0.713261D+00  0.713289D+00  0.000000D+00  0.445382D-02  0.000000D+00
     10a  0.000000D+00  0.000000D+00 -0.635887D+00  0.000000D+00 -0.106232D+01
     10b -0.605062D-01 -0.609823D-01  0.000000D+00  0.628994D+00  0.000000D+00
                16            17            18            19            20 
      1a  0.000000D+00  0.111231D+01  0.000000D+00 -0.717644D+00  0.000000D+00
      1b -0.106001D+01  0.000000D+00 -0.111306D+01  0.000000D+00 -0.718716D+00
      2a  0.000000D+00 -0.114759D-02  0.000000D+00  0.319867D-02  0.000000D+00
      2b -0.323266D-02  0.000000D+00  0.149845D-02  0.000000D+00  0.400516D-02
      3a  0.000000D+00 -0.690121D+00  0.000000D+00  0.118512D+01  0.000000D+00
      3b -0.650815D+00  0.000000D+00  0.690580D+00  0.000000D+00  0.118213D+01
      4a  0.000000D+00 -0.110674D+01  0.000000D+00  0.700674D+00  0.000000D+00
      4b  0.107228D+01  0.000000D+00  0.110742D+01  0.000000D+00  0.701662D+00
      5a  0.000000D+00 -0.721241D+00  0.000000D+00 -0.117664D+01  0.000000D+00
      5b  0.633490D+00  0.000000D+00  0.713756D+00  0.000000D+00 -0.117562D+01
      6a  0.000000D+00  0.717313D+00  0.000000D+00 -0.117763D+01  0.000000D+00
      6b  0.629129D+00  0.000000D+00 -0.717679D+00  0.000000D+00 -0.117465D+01
      7a  0.000000D+00  0.110516D+01  0.000000D+00  0.698352D+00  0.000000D+00
      7b  0.107084D+01  0.000000D+00 -0.110896D+01  0.000000D+00  0.703956D+00
      8a  0.000000D+00  0.694121D+00  0.000000D+00  0.118417D+01  0.000000D+00
      8b -0.655098D+00  0.000000D+00 -0.686586D+00  0.000000D+00  0.118306D+01
      9a  0.000000D+00  0.103416D-02  0.000000D+00  0.289259D-02  0.000000D+00
      9b -0.354199D-02  0.000000D+00 -0.161560D-02  0.000000D+00  0.430990D-02
     10a  0.000000D+00 -0.111076D+01  0.000000D+00 -0.715268D+00  0.000000D+00
     10b -0.105847D+01  0.000000D+00  0.111455D+01  0.000000D+00 -0.721064D+00
 bfr conversion (imaginary):
                 1             2             3             4             5 
      1a  0.000000D+00 -0.253058D-01  0.000000D+00 -0.641217D-01  0.000000D+00
      1b -0.617317D-01  0.000000D+00  0.861914D-01  0.000000D+00 -0.709614D-01
      2a  0.000000D+00  0.108962D-01  0.000000D+00  0.200263D-01  0.000000D+00
      2b -0.123109D-01  0.000000D+00  0.241243D-01  0.000000D+00 -0.325850D-01
      3a  0.000000D+00 -0.655725D-01  0.000000D+00 -0.763367D-01  0.000000D+00
      3b -0.753991D-01  0.000000D+00  0.176164D-01  0.000000D+00  0.853166D-01
      4a  0.000000D+00 -0.249918D-01  0.000000D+00 -0.639190D-01  0.000000D+00
      4b -0.614856D-01  0.000000D+00  0.864174D-01  0.000000D+00 -0.717352D-01
      5a  0.000000D+00 -0.789786D-01  0.000000D+00  0.223856D-01  0.000000D+00
      5b -0.641455D-01  0.000000D+00 -0.724942D-01  0.000000D+00  0.258776D-01
      6a  0.000000D+00 -0.651668D-01  0.000000D+00 -0.768509D-01  0.000000D+00
      6b -0.753681D-01  0.000000D+00  0.186593D-01  0.000000D+00  0.847105D-01
      7a  0.000000D+00 -0.610921D-01  0.000000D+00  0.894683D-01  0.000000D+00
      7b -0.314056D-01  0.000000D+00 -0.702421D-01  0.000000D+00 -0.971301D-01
      8a  0.000000D+00 -0.790277D-01  0.000000D+00  0.213098D-01  0.000000D+00
      8b -0.644749D-01  0.000000D+00 -0.719548D-01  0.000000D+00  0.269837D-01
      9a  0.000000D+00 -0.878354D-02  0.000000D+00  0.165000D-01  0.000000D+00
      9b  0.490265D-02  0.000000D+00  0.953405D-02  0.000000D+00  0.121764D-01
     10a  0.000000D+00 -0.613600D-01  0.000000D+00  0.892467D-01  0.000000D+00
     10b -0.316913D-01  0.000000D+00 -0.704016D-01  0.000000D+00 -0.965646D-01
                 6             7             8             9            10 
      1a -0.952483D-01  0.000000D+00 -0.787008D-01  0.000000D+00  0.000000D+00
      1b  0.000000D+00  0.345703D-01  0.000000D+00  0.592432D-01 -0.589438D-01
      2a  0.243383D-01  0.000000D+00  0.181047D-01  0.000000D+00  0.000000D+00
      2b  0.000000D+00  0.278965D-01  0.000000D+00 -0.438546D+00  0.438435D+00
      3a  0.237353D-01  0.000000D+00  0.103418D+00  0.000000D+00  0.000000D+00
      3b  0.000000D+00 -0.889021D-01  0.000000D+00 -0.135344D-01  0.122954D-01
      4a -0.957951D-01  0.000000D+00 -0.795579D-01  0.000000D+00  0.000000D+00
      4b  0.000000D+00  0.351496D-01  0.000000D+00  0.593239D-01 -0.590314D-01
      5a  0.820041D-01  0.000000D+00 -0.889044D-01  0.000000D+00  0.000000D+00
      5b  0.000000D+00  0.106724D+00  0.000000D+00  0.567304D-02  0.926016D-05
      6a  0.226688D-01  0.000000D+00  0.103434D+00  0.000000D+00  0.000000D+00
      6b  0.000000D+00 -0.892663D-01  0.000000D+00 -0.142178D-01  0.130222D-01
      7a -0.797380D-01  0.000000D+00  0.429457D-01  0.000000D+00  0.000000D+00
      7b  0.000000D+00 -0.781872D-01  0.000000D+00 -0.129285D-01 -0.117428D-01
      8a  0.826269D-01  0.000000D+00 -0.886076D-01  0.000000D+00  0.000000D+00
      8b  0.000000D+00  0.106695D+00  0.000000D+00  0.562816D-02 -0.239859D-03
      9a -0.209978D-01  0.000000D+00  0.163839D-01  0.000000D+00  0.000000D+00
      9b  0.000000D+00  0.961745D-02  0.000000D+00  0.914156D-01  0.913844D-01
     10a -0.789465D-01  0.000000D+00  0.423346D-01  0.000000D+00  0.000000D+00
     10b  0.000000D+00 -0.773173D-01  0.000000D+00 -0.129288D-01 -0.117074D-01
                11            12            13            14            15 
      1a  0.374755D-01 -0.373952D-01  0.000000D+00  0.165753D+00  0.000000D+00
      1b  0.000000D+00  0.000000D+00 -0.177363D+00  0.000000D+00  0.290750D+00
      2a -0.439597D+00  0.439554D+00  0.000000D+00  0.191406D-02  0.000000D+00
      2b  0.000000D+00  0.000000D+00  0.233413D-04  0.000000D+00  0.390276D-04
      3a -0.270407D-02  0.228735D-02  0.000000D+00  0.270709D+00  0.000000D+00
      3b  0.000000D+00  0.000000D+00 -0.274216D+00  0.000000D+00  0.168244D+00
      4a  0.363325D-01 -0.363018D-01  0.000000D+00 -0.169598D+00  0.000000D+00
      4b  0.000000D+00  0.000000D+00  0.180992D+00  0.000000D+00 -0.293862D+00
      5a  0.242157D-02  0.107147D-02  0.000000D+00  0.275807D+00  0.000000D+00
      5b  0.000000D+00  0.000000D+00 -0.271119D+00  0.000000D+00 -0.178330D+00
      6a -0.851952D-02  0.823817D-02  0.000000D+00 -0.271766D+00  0.000000D+00
      6b  0.000000D+00  0.000000D+00  0.275092D+00  0.000000D+00 -0.162240D+00
      7a -0.763962D-02 -0.750045D-02  0.000000D+00  0.180044D+00  0.000000D+00
      7b  0.000000D+00  0.000000D+00 -0.170706D+00  0.000000D+00 -0.288770D+00
      8a  0.151837D-02 -0.477885D-03  0.000000D+00 -0.274915D+00  0.000000D+00
      8b  0.000000D+00  0.000000D+00  0.270082D+00  0.000000D+00  0.184052D+00
      9a  0.916772D-01  0.915751D-01  0.000000D+00 -0.390631D-03  0.000000D+00
      9b  0.000000D+00  0.000000D+00  0.149042D-02  0.000000D+00  0.119417D-02
     10a -0.799060D-02 -0.761561D-02  0.000000D+00 -0.176346D+00  0.000000D+00
     10b  0.000000D+00  0.000000D+00  0.166929D+00  0.000000D+00  0.285314D+00
                16            17            18            19            20 
      1a  0.284572D+00  0.000000D+00  0.304948D+00  0.000000D+00  0.199650D+00
      1b  0.000000D+00 -0.298743D+00  0.000000D+00  0.190011D+00  0.000000D+00
      2a  0.148911D-02  0.000000D+00 -0.638350D-03  0.000000D+00 -0.168961D-02
      2b  0.000000D+00  0.869484D-04  0.000000D+00 -0.262291D-03  0.000000D+00
      3a  0.185056D+00  0.000000D+00 -0.179467D+00  0.000000D+00 -0.322579D+00
      3b  0.000000D+00  0.195159D+00  0.000000D+00 -0.319682D+00  0.000000D+00
      4a -0.288085D+00  0.000000D+00 -0.303505D+00  0.000000D+00 -0.194917D+00
      4b  0.000000D+00  0.297147D+00  0.000000D+00 -0.185514D+00  0.000000D+00
      5a -0.163252D+00  0.000000D+00 -0.201420D+00  0.000000D+00  0.317043D+00
      5b  0.000000D+00  0.187916D+00  0.000000D+00  0.321202D+00  0.000000D+00
      6a -0.179325D+00  0.000000D+00  0.186960D+00  0.000000D+00  0.320636D+00
      6b  0.000000D+00 -0.202395D+00  0.000000D+00  0.317562D+00  0.000000D+00
      7a -0.293391D+00  0.000000D+00  0.297849D+00  0.000000D+00 -0.186458D+00
      7b  0.000000D+00 -0.302991D+00  0.000000D+00 -0.194073D+00  0.000000D+00
      8a  0.169267D+00  0.000000D+00  0.194188D+00  0.000000D+00 -0.319148D+00
      8b  0.000000D+00 -0.180416D+00  0.000000D+00 -0.323157D+00  0.000000D+00
      9a  0.349002D-03  0.000000D+00  0.206561D-03  0.000000D+00 -0.566446D-03
      9b  0.000000D+00 -0.505008D-03  0.000000D+00 -0.139040D-02  0.000000D+00
     10a  0.290218D+00  0.000000D+00 -0.299452D+00  0.000000D+00  0.190994D+00
     10b  0.000000D+00  0.304425D+00  0.000000D+00  0.198769D+00  0.000000D+00
 afr conversion (alpha, real):
                 1             2             3             4             5 
      1   0.168087D+00  0.000000D+00 -0.286432D+00  0.000000D+00  0.312195D+00
      2   0.113169D-01  0.000000D+00 -0.223213D-01  0.000000D+00  0.315371D-01
      3   0.256282D+00  0.000000D+00 -0.172436D+00  0.000000D+00 -0.199037D+00
      4   0.167102D+00  0.000000D+00 -0.286502D+00  0.000000D+00  0.314635D+00
      5   0.258622D+00  0.000000D+00  0.160677D+00  0.000000D+00 -0.211776D+00
      6   0.255577D+00  0.000000D+00 -0.175284D+00  0.000000D+00 -0.195814D+00
      7   0.175263D+00  0.000000D+00  0.290891D+00  0.000000D+00  0.307745D+00
      8   0.259246D+00  0.000000D+00  0.157693D+00  0.000000D+00 -0.214864D+00
      9   0.159873D-01  0.000000D+00  0.314535D-01  0.000000D+00  0.436819D-01
     10   0.176238D+00  0.000000D+00  0.290716D+00  0.000000D+00  0.305248D+00
                 6             7             8             9            10 
      1   0.000000D+00 -0.211989D+00  0.000000D+00 -0.755589D-01  0.774636D-01
      2   0.000000D+00 -0.285959D-01  0.000000D+00  0.567810D+00 -0.567677D+00
      3   0.000000D+00  0.362866D+00  0.000000D+00  0.119703D-01 -0.214647D-01
      4   0.000000D+00 -0.214699D+00  0.000000D+00 -0.756972D-01  0.775431D-01
      5   0.000000D+00 -0.358809D+00  0.000000D+00  0.184453D-01  0.257480D-01
      6   0.000000D+00  0.363545D+00  0.000000D+00  0.130481D-01 -0.222125D-01
      7   0.000000D+00  0.203022D+00  0.000000D+00 -0.953023D-01 -0.967442D-01
      8   0.000000D+00 -0.358038D+00  0.000000D+00  0.171699D-01  0.247354D-01
      9   0.000000D+00  0.387743D-01  0.000000D+00  0.711611D+00  0.711418D+00
     10   0.000000D+00  0.200390D+00  0.000000D+00 -0.951422D-01 -0.966314D-01
                11            12            13            14            15 
      1   0.000000D+00  0.000000D+00  0.633057D+00  0.000000D+00 -0.106085D+01
      2   0.000000D+00  0.000000D+00  0.290893D-02  0.000000D+00 -0.242928D-02
      3   0.000000D+00  0.000000D+00  0.100249D+01  0.000000D+00 -0.651365D+00
      4   0.000000D+00  0.000000D+00 -0.646723D+00  0.000000D+00  0.107300D+01
      5   0.000000D+00  0.000000D+00  0.100711D+01  0.000000D+00  0.625428D+00
      6   0.000000D+00  0.000000D+00 -0.100603D+01  0.000000D+00  0.629794D+00
      7   0.000000D+00  0.000000D+00  0.649514D+00  0.000000D+00  0.107438D+01
      8   0.000000D+00  0.000000D+00 -0.100361D+01  0.000000D+00 -0.647076D+00
      9   0.000000D+00  0.000000D+00 -0.249822D-02  0.000000D+00 -0.211586D-02
     10   0.000000D+00  0.000000D+00 -0.635887D+00  0.000000D+00 -0.106232D+01
                16            17            18            19            20 
      1   0.000000D+00  0.111231D+01  0.000000D+00 -0.717644D+00  0.000000D+00
      2   0.000000D+00 -0.114759D-02  0.000000D+00  0.319867D-02  0.000000D+00
      3   0.000000D+00 -0.690121D+00  0.000000D+00  0.118512D+01  0.000000D+00
      4   0.000000D+00 -0.110674D+01  0.000000D+00  0.700674D+00  0.000000D+00
      5   0.000000D+00 -0.721241D+00  0.000000D+00 -0.117664D+01  0.000000D+00
      6   0.000000D+00  0.717313D+00  0.000000D+00 -0.117763D+01  0.000000D+00
      7   0.000000D+00  0.110516D+01  0.000000D+00  0.698352D+00  0.000000D+00
      8   0.000000D+00  0.694121D+00  0.000000D+00  0.118417D+01  0.000000D+00
      9   0.000000D+00  0.103416D-02  0.000000D+00  0.289259D-02  0.000000D+00
     10   0.000000D+00 -0.111076D+01  0.000000D+00 -0.715268D+00  0.000000D+00
 afr conversion (alpha, imaginary):
                 1             2             3             4             5 
      1   0.000000D+00 -0.253058D-01  0.000000D+00 -0.641217D-01  0.000000D+00
      2   0.000000D+00  0.108962D-01  0.000000D+00  0.200263D-01  0.000000D+00
      3   0.000000D+00 -0.655725D-01  0.000000D+00 -0.763367D-01  0.000000D+00
      4   0.000000D+00 -0.249918D-01  0.000000D+00 -0.639190D-01  0.000000D+00
      5   0.000000D+00 -0.789786D-01  0.000000D+00  0.223856D-01  0.000000D+00
      6   0.000000D+00 -0.651668D-01  0.000000D+00 -0.768509D-01  0.000000D+00
      7   0.000000D+00 -0.610921D-01  0.000000D+00  0.894683D-01  0.000000D+00
      8   0.000000D+00 -0.790277D-01  0.000000D+00  0.213098D-01  0.000000D+00
      9   0.000000D+00 -0.878354D-02  0.000000D+00  0.165000D-01  0.000000D+00
     10   0.000000D+00 -0.613600D-01  0.000000D+00  0.892467D-01  0.000000D+00
                 6             7             8             9            10 
      1  -0.952483D-01  0.000000D+00 -0.787008D-01  0.000000D+00  0.000000D+00
      2   0.243383D-01  0.000000D+00  0.181047D-01  0.000000D+00  0.000000D+00
      3   0.237353D-01  0.000000D+00  0.103418D+00  0.000000D+00  0.000000D+00
      4  -0.957951D-01  0.000000D+00 -0.795579D-01  0.000000D+00  0.000000D+00
      5   0.820041D-01  0.000000D+00 -0.889044D-01  0.000000D+00  0.000000D+00
      6   0.226688D-01  0.000000D+00  0.103434D+00  0.000000D+00  0.000000D+00
      7  -0.797380D-01  0.000000D+00  0.429457D-01  0.000000D+00  0.000000D+00
      8   0.826269D-01  0.000000D+00 -0.886076D-01  0.000000D+00  0.000000D+00
      9  -0.209978D-01  0.000000D+00  0.163839D-01  0.000000D+00  0.000000D+00
     10  -0.789465D-01  0.000000D+00  0.423346D-01  0.000000D+00  0.000000D+00
                11            12            13            14            15 
      1   0.374755D-01 -0.373952D-01  0.000000D+00  0.165753D+00  0.000000D+00
      2  -0.439597D+00  0.439554D+00  0.000000D+00  0.191406D-02  0.000000D+00
      3  -0.270407D-02  0.228735D-02  0.000000D+00  0.270709D+00  0.000000D+00
      4   0.363325D-01 -0.363018D-01  0.000000D+00 -0.169598D+00  0.000000D+00
      5   0.242157D-02  0.107147D-02  0.000000D+00  0.275807D+00  0.000000D+00
      6  -0.851952D-02  0.823817D-02  0.000000D+00 -0.271766D+00  0.000000D+00
      7  -0.763962D-02 -0.750045D-02  0.000000D+00  0.180044D+00  0.000000D+00
      8   0.151837D-02 -0.477885D-03  0.000000D+00 -0.274915D+00  0.000000D+00
      9   0.916772D-01  0.915751D-01  0.000000D+00 -0.390631D-03  0.000000D+00
     10  -0.799060D-02 -0.761561D-02  0.000000D+00 -0.176346D+00  0.000000D+00
                16            17            18            19            20 
      1   0.284572D+00  0.000000D+00  0.304948D+00  0.000000D+00  0.199650D+00
      2   0.148911D-02  0.000000D+00 -0.638350D-03  0.000000D+00 -0.168961D-02
      3   0.185056D+00  0.000000D+00 -0.179467D+00  0.000000D+00 -0.322579D+00
      4  -0.288085D+00  0.000000D+00 -0.303505D+00  0.000000D+00 -0.194917D+00
      5  -0.163252D+00  0.000000D+00 -0.201420D+00  0.000000D+00  0.317043D+00
      6  -0.179325D+00  0.000000D+00  0.186960D+00  0.000000D+00  0.320636D+00
      7  -0.293391D+00  0.000000D+00  0.297849D+00  0.000000D+00 -0.186458D+00
      8   0.169267D+00  0.000000D+00  0.194188D+00  0.000000D+00 -0.319148D+00
      9   0.349002D-03  0.000000D+00  0.206561D-03  0.000000D+00 -0.566446D-03
     10   0.290218D+00  0.000000D+00 -0.299452D+00  0.000000D+00  0.190994D+00
 afr conversion (beta, real):
                 1             2             3             4             5 
      1   0.000000D+00  0.164601D+00  0.000000D+00  0.286040D+00  0.000000D+00
      2   0.000000D+00 -0.122347D-02  0.000000D+00 -0.154312D-02  0.000000D+00
      3   0.000000D+00  0.268299D+00  0.000000D+00  0.172481D+00  0.000000D+00
      4   0.000000D+00  0.163535D+00  0.000000D+00  0.286133D+00  0.000000D+00
      5   0.000000D+00  0.263761D+00  0.000000D+00 -0.190265D+00  0.000000D+00
      6   0.000000D+00  0.267509D+00  0.000000D+00  0.175487D+00  0.000000D+00
      7   0.000000D+00  0.153741D+00  0.000000D+00 -0.279201D+00  0.000000D+00
      8   0.000000D+00  0.264648D+00  0.000000D+00 -0.187411D+00  0.000000D+00
      9   0.000000D+00 -0.656301D-02  0.000000D+00  0.114535D-01  0.000000D+00
     10   0.000000D+00  0.154819D+00  0.000000D+00 -0.279223D+00  0.000000D+00
                 6             7             8             9            10 
      1   0.318800D+00  0.000000D+00  0.218114D+00  0.000000D+00  0.000000D+00
      2  -0.576206D-05  0.000000D+00  0.150760D-02  0.000000D+00  0.000000D+00
      3  -0.203997D+00  0.000000D+00 -0.351861D+00  0.000000D+00  0.000000D+00
      4   0.321299D+00  0.000000D+00  0.220786D+00  0.000000D+00  0.000000D+00
      5  -0.184845D+00  0.000000D+00  0.356417D+00  0.000000D+00  0.000000D+00
      6  -0.200944D+00  0.000000D+00 -0.352475D+00  0.000000D+00  0.000000D+00
      7   0.325656D+00  0.000000D+00 -0.230720D+00  0.000000D+00  0.000000D+00
      8  -0.188018D+00  0.000000D+00  0.355880D+00  0.000000D+00  0.000000D+00
      9  -0.123064D-01  0.000000D+00  0.784990D-02  0.000000D+00  0.000000D+00
     10   0.323223D+00  0.000000D+00 -0.227981D+00  0.000000D+00  0.000000D+00
                11            12            13            14            15 
      1  -0.481681D-01  0.487719D-01  0.000000D+00 -0.631868D+00  0.000000D+00
      2   0.569090D+00 -0.569206D+00  0.000000D+00 -0.404048D-02  0.000000D+00
      3   0.161219D-02 -0.485028D-02  0.000000D+00 -0.100606D+01  0.000000D+00
      4  -0.469112D-01  0.471332D-01  0.000000D+00  0.645748D+00  0.000000D+00
      5   0.127223D-01  0.144694D-01  0.000000D+00 -0.100854D+01  0.000000D+00
      6   0.975329D-02 -0.119439D-01  0.000000D+00  0.100963D+01  0.000000D+00
      7  -0.588438D-01 -0.590157D-01  0.000000D+00 -0.642914D+00  0.000000D+00
      8   0.275802D-02  0.534115D-02  0.000000D+00  0.100492D+01  0.000000D+00
      9   0.713261D+00  0.713289D+00  0.000000D+00  0.445382D-02  0.000000D+00
     10  -0.605062D-01 -0.609823D-01  0.000000D+00  0.628994D+00  0.000000D+00
                16            17            18            19            20 
      1  -0.106001D+01  0.000000D+00 -0.111306D+01  0.000000D+00 -0.718716D+00
      2  -0.323266D-02  0.000000D+00  0.149845D-02  0.000000D+00  0.400516D-02
      3  -0.650815D+00  0.000000D+00  0.690580D+00  0.000000D+00  0.118213D+01
      4   0.107228D+01  0.000000D+00  0.110742D+01  0.000000D+00  0.701662D+00
      5   0.633490D+00  0.000000D+00  0.713756D+00  0.000000D+00 -0.117562D+01
      6   0.629129D+00  0.000000D+00 -0.717679D+00  0.000000D+00 -0.117465D+01
      7   0.107084D+01  0.000000D+00 -0.110896D+01  0.000000D+00  0.703956D+00
      8  -0.655098D+00  0.000000D+00 -0.686586D+00  0.000000D+00  0.118306D+01
      9  -0.354199D-02  0.000000D+00 -0.161560D-02  0.000000D+00  0.430990D-02
     10  -0.105847D+01  0.000000D+00  0.111455D+01  0.000000D+00 -0.721064D+00
 afr conversion (beta, imaginary):
                 1             2             3             4             5 
      1  -0.617317D-01  0.000000D+00  0.861914D-01  0.000000D+00 -0.709614D-01
      2  -0.123109D-01  0.000000D+00  0.241243D-01  0.000000D+00 -0.325850D-01
      3  -0.753991D-01  0.000000D+00  0.176164D-01  0.000000D+00  0.853166D-01
      4  -0.614856D-01  0.000000D+00  0.864174D-01  0.000000D+00 -0.717352D-01
      5  -0.641455D-01  0.000000D+00 -0.724942D-01  0.000000D+00  0.258776D-01
      6  -0.753681D-01  0.000000D+00  0.186593D-01  0.000000D+00  0.847105D-01
      7  -0.314056D-01  0.000000D+00 -0.702421D-01  0.000000D+00 -0.971301D-01
      8  -0.644749D-01  0.000000D+00 -0.719548D-01  0.000000D+00  0.269837D-01
      9   0.490265D-02  0.000000D+00  0.953405D-02  0.000000D+00  0.121764D-01
     10  -0.316913D-01  0.000000D+00 -0.704016D-01  0.000000D+00 -0.965646D-01
                 6             7             8             9            10 
      1   0.000000D+00  0.345703D-01  0.000000D+00  0.592432D-01 -0.589438D-01
      2   0.000000D+00  0.278965D-01  0.000000D+00 -0.438546D+00  0.438435D+00
      3   0.000000D+00 -0.889021D-01  0.000000D+00 -0.135344D-01  0.122954D-01
      4   0.000000D+00  0.351496D-01  0.000000D+00  0.593239D-01 -0.590314D-01
      5   0.000000D+00  0.106724D+00  0.000000D+00  0.567304D-02  0.926016D-05
      6   0.000000D+00 -0.892663D-01  0.000000D+00 -0.142178D-01  0.130222D-01
      7   0.000000D+00 -0.781872D-01  0.000000D+00 -0.129285D-01 -0.117428D-01
      8   0.000000D+00  0.106695D+00  0.000000D+00  0.562816D-02 -0.239859D-03
      9   0.000000D+00  0.961745D-02  0.000000D+00  0.914156D-01  0.913844D-01
     10   0.000000D+00 -0.773173D-01  0.000000D+00 -0.129288D-01 -0.117074D-01
                11            12            13            14            15 
      1   0.000000D+00  0.000000D+00 -0.177363D+00  0.000000D+00  0.290750D+00
      2   0.000000D+00  0.000000D+00  0.233413D-04  0.000000D+00  0.390276D-04
      3   0.000000D+00  0.000000D+00 -0.274216D+00  0.000000D+00  0.168244D+00
      4   0.000000D+00  0.000000D+00  0.180992D+00  0.000000D+00 -0.293862D+00
      5   0.000000D+00  0.000000D+00 -0.271119D+00  0.000000D+00 -0.178330D+00
      6   0.000000D+00  0.000000D+00  0.275092D+00  0.000000D+00 -0.162240D+00
      7   0.000000D+00  0.000000D+00 -0.170706D+00  0.000000D+00 -0.288770D+00
      8   0.000000D+00  0.000000D+00  0.270082D+00  0.000000D+00  0.184052D+00
      9   0.000000D+00  0.000000D+00  0.149042D-02  0.000000D+00  0.119417D-02
     10   0.000000D+00  0.000000D+00  0.166929D+00  0.000000D+00  0.285314D+00
                16            17            18            19            20 
      1   0.000000D+00 -0.298743D+00  0.000000D+00  0.190011D+00  0.000000D+00
      2   0.000000D+00  0.869484D-04  0.000000D+00 -0.262291D-03  0.000000D+00
      3   0.000000D+00  0.195159D+00  0.000000D+00 -0.319682D+00  0.000000D+00
      4   0.000000D+00  0.297147D+00  0.000000D+00 -0.185514D+00  0.000000D+00
      5   0.000000D+00  0.187916D+00  0.000000D+00  0.321202D+00  0.000000D+00
      6   0.000000D+00 -0.202395D+00  0.000000D+00  0.317562D+00  0.000000D+00
      7   0.000000D+00 -0.302991D+00  0.000000D+00 -0.194073D+00  0.000000D+00
      8   0.000000D+00 -0.180416D+00  0.000000D+00 -0.323157D+00  0.000000D+00
      9   0.000000D+00 -0.505008D-03  0.000000D+00 -0.139040D-02  0.000000D+00
     10   0.000000D+00  0.304425D+00  0.000000D+00  0.198769D+00  0.000000D+00
 jaja in hckghf.F, ISPECT =                     548
Spin block MO for GHF transformation
NOA =   10   NOB =   10
NVA =   10   NVB =   10
 NOAvA in Hack                     100
 jaja in tranN3.F, ISPECT =                     548
 in l802/tranN3.F, LSPECT =                      800
 NMat, NBtSiz,MDV                    8372                   16000
                133954722
 TranN3:  NGot= 134217728 NBasic=    263006 NTTT=       550 NMat=      8372.
 Defined bucket =                      51                   10000
 Defined bucket =                      52                   10000
 Defined bucket =                      53                   10000
 Defined bucket =                      55                   10000
 Defined bucket =                      57                   10000
 Defined bucket =                      58                   10000
 Defined bucket =                      60                   10000
 Defined bucket =                      72                   10000
 Defined bucket =                      73                   10000
 Defined bucket =                      74                   10000
 Defined bucket =                      75                   10000
 Defined bucket =                      76                   10000
 (IK/LS) integrals will be saved in memory.
 TrCghf made   2 passes through the AO integrals.
 jaja DoHack is true or false? F
 jaja in hckghf.F, NBasis=                      10
 jaja in hckGHF/FixOG, LC =                      800
 jaja in hckGHF/FixOG, IRwC=                      548
 bfr conversion (alpha, real):
                 1             2             3             4             5 
      1   0.168087D+00  0.000000D+00 -0.286432D+00  0.000000D+00  0.312195D+00
      2   0.113169D-01  0.000000D+00 -0.223213D-01  0.000000D+00  0.315371D-01
      3   0.256282D+00  0.000000D+00 -0.172436D+00  0.000000D+00 -0.199037D+00
      4   0.167102D+00  0.000000D+00 -0.286502D+00  0.000000D+00  0.314635D+00
      5   0.258622D+00  0.000000D+00  0.160677D+00  0.000000D+00 -0.211776D+00
      6   0.255577D+00  0.000000D+00 -0.175284D+00  0.000000D+00 -0.195814D+00
      7   0.175263D+00  0.000000D+00  0.290891D+00  0.000000D+00  0.307745D+00
      8   0.259246D+00  0.000000D+00  0.157693D+00  0.000000D+00 -0.214864D+00
      9   0.159873D-01  0.000000D+00  0.314535D-01  0.000000D+00  0.436819D-01
     10   0.176238D+00  0.000000D+00  0.290716D+00  0.000000D+00  0.305248D+00
                 6             7             8             9            10 
      1   0.000000D+00 -0.211989D+00  0.000000D+00 -0.755589D-01  0.774636D-01
      2   0.000000D+00 -0.285959D-01  0.000000D+00  0.567810D+00 -0.567677D+00
      3   0.000000D+00  0.362866D+00  0.000000D+00  0.119703D-01 -0.214647D-01
      4   0.000000D+00 -0.214699D+00  0.000000D+00 -0.756972D-01  0.775431D-01
      5   0.000000D+00 -0.358809D+00  0.000000D+00  0.184453D-01  0.257480D-01
      6   0.000000D+00  0.363545D+00  0.000000D+00  0.130481D-01 -0.222125D-01
      7   0.000000D+00  0.203022D+00  0.000000D+00 -0.953023D-01 -0.967442D-01
      8   0.000000D+00 -0.358038D+00  0.000000D+00  0.171699D-01  0.247354D-01
      9   0.000000D+00  0.387743D-01  0.000000D+00  0.711611D+00  0.711418D+00
     10   0.000000D+00  0.200390D+00  0.000000D+00 -0.951422D-01 -0.966314D-01
                11            12            13            14            15 
      1   0.000000D+00  0.000000D+00  0.633057D+00  0.000000D+00 -0.106085D+01
      2   0.000000D+00  0.000000D+00  0.290893D-02  0.000000D+00 -0.242928D-02
      3   0.000000D+00  0.000000D+00  0.100249D+01  0.000000D+00 -0.651365D+00
      4   0.000000D+00  0.000000D+00 -0.646723D+00  0.000000D+00  0.107300D+01
      5   0.000000D+00  0.000000D+00  0.100711D+01  0.000000D+00  0.625428D+00
      6   0.000000D+00  0.000000D+00 -0.100603D+01  0.000000D+00  0.629794D+00
      7   0.000000D+00  0.000000D+00  0.649514D+00  0.000000D+00  0.107438D+01
      8   0.000000D+00  0.000000D+00 -0.100361D+01  0.000000D+00 -0.647076D+00
      9   0.000000D+00  0.000000D+00 -0.249822D-02  0.000000D+00 -0.211586D-02
     10   0.000000D+00  0.000000D+00 -0.635887D+00  0.000000D+00 -0.106232D+01
                16            17            18            19            20 
      1   0.000000D+00  0.111231D+01  0.000000D+00 -0.717644D+00  0.000000D+00
      2   0.000000D+00 -0.114759D-02  0.000000D+00  0.319867D-02  0.000000D+00
      3   0.000000D+00 -0.690121D+00  0.000000D+00  0.118512D+01  0.000000D+00
      4   0.000000D+00 -0.110674D+01  0.000000D+00  0.700674D+00  0.000000D+00
      5   0.000000D+00 -0.721241D+00  0.000000D+00 -0.117664D+01  0.000000D+00
      6   0.000000D+00  0.717313D+00  0.000000D+00 -0.117763D+01  0.000000D+00
      7   0.000000D+00  0.110516D+01  0.000000D+00  0.698352D+00  0.000000D+00
      8   0.000000D+00  0.694121D+00  0.000000D+00  0.118417D+01  0.000000D+00
      9   0.000000D+00  0.103416D-02  0.000000D+00  0.289259D-02  0.000000D+00
     10   0.000000D+00 -0.111076D+01  0.000000D+00 -0.715268D+00  0.000000D+00
 bfr conversion (alpha, imaginary):
                 1             2             3             4             5 
      1   0.000000D+00 -0.253058D-01  0.000000D+00 -0.641217D-01  0.000000D+00
      2   0.000000D+00  0.108962D-01  0.000000D+00  0.200263D-01  0.000000D+00
      3   0.000000D+00 -0.655725D-01  0.000000D+00 -0.763367D-01  0.000000D+00
      4   0.000000D+00 -0.249918D-01  0.000000D+00 -0.639190D-01  0.000000D+00
      5   0.000000D+00 -0.789786D-01  0.000000D+00  0.223856D-01  0.000000D+00
      6   0.000000D+00 -0.651668D-01  0.000000D+00 -0.768509D-01  0.000000D+00
      7   0.000000D+00 -0.610921D-01  0.000000D+00  0.894683D-01  0.000000D+00
      8   0.000000D+00 -0.790277D-01  0.000000D+00  0.213098D-01  0.000000D+00
      9   0.000000D+00 -0.878354D-02  0.000000D+00  0.165000D-01  0.000000D+00
     10   0.000000D+00 -0.613600D-01  0.000000D+00  0.892467D-01  0.000000D+00
                 6             7             8             9            10 
      1  -0.952483D-01  0.000000D+00 -0.787008D-01  0.000000D+00  0.000000D+00
      2   0.243383D-01  0.000000D+00  0.181047D-01  0.000000D+00  0.000000D+00
      3   0.237353D-01  0.000000D+00  0.103418D+00  0.000000D+00  0.000000D+00
      4  -0.957951D-01  0.000000D+00 -0.795579D-01  0.000000D+00  0.000000D+00
      5   0.820041D-01  0.000000D+00 -0.889044D-01  0.000000D+00  0.000000D+00
      6   0.226688D-01  0.000000D+00  0.103434D+00  0.000000D+00  0.000000D+00
      7  -0.797380D-01  0.000000D+00  0.429457D-01  0.000000D+00  0.000000D+00
      8   0.826269D-01  0.000000D+00 -0.886076D-01  0.000000D+00  0.000000D+00
      9  -0.209978D-01  0.000000D+00  0.163839D-01  0.000000D+00  0.000000D+00
     10  -0.789465D-01  0.000000D+00  0.423346D-01  0.000000D+00  0.000000D+00
                11            12            13            14            15 
      1   0.374755D-01 -0.373952D-01  0.000000D+00  0.165753D+00  0.000000D+00
      2  -0.439597D+00  0.439554D+00  0.000000D+00  0.191406D-02  0.000000D+00
      3  -0.270407D-02  0.228735D-02  0.000000D+00  0.270709D+00  0.000000D+00
      4   0.363325D-01 -0.363018D-01  0.000000D+00 -0.169598D+00  0.000000D+00
      5   0.242157D-02  0.107147D-02  0.000000D+00  0.275807D+00  0.000000D+00
      6  -0.851952D-02  0.823817D-02  0.000000D+00 -0.271766D+00  0.000000D+00
      7  -0.763962D-02 -0.750045D-02  0.000000D+00  0.180044D+00  0.000000D+00
      8   0.151837D-02 -0.477885D-03  0.000000D+00 -0.274915D+00  0.000000D+00
      9   0.916772D-01  0.915751D-01  0.000000D+00 -0.390631D-03  0.000000D+00
     10  -0.799060D-02 -0.761561D-02  0.000000D+00 -0.176346D+00  0.000000D+00
                16            17            18            19            20 
      1   0.284572D+00  0.000000D+00  0.304948D+00  0.000000D+00  0.199650D+00
      2   0.148911D-02  0.000000D+00 -0.638350D-03  0.000000D+00 -0.168961D-02
      3   0.185056D+00  0.000000D+00 -0.179467D+00  0.000000D+00 -0.322579D+00
      4  -0.288085D+00  0.000000D+00 -0.303505D+00  0.000000D+00 -0.194917D+00
      5  -0.163252D+00  0.000000D+00 -0.201420D+00  0.000000D+00  0.317043D+00
      6  -0.179325D+00  0.000000D+00  0.186960D+00  0.000000D+00  0.320636D+00
      7  -0.293391D+00  0.000000D+00  0.297849D+00  0.000000D+00 -0.186458D+00
      8   0.169267D+00  0.000000D+00  0.194188D+00  0.000000D+00 -0.319148D+00
      9   0.349002D-03  0.000000D+00  0.206561D-03  0.000000D+00 -0.566446D-03
     10   0.290218D+00  0.000000D+00 -0.299452D+00  0.000000D+00  0.190994D+00
 bfr conversion (beta, real):
                 1             2             3             4             5 
      1   0.000000D+00  0.164601D+00  0.000000D+00  0.286040D+00  0.000000D+00
      2   0.000000D+00 -0.122347D-02  0.000000D+00 -0.154312D-02  0.000000D+00
      3   0.000000D+00  0.268299D+00  0.000000D+00  0.172481D+00  0.000000D+00
      4   0.000000D+00  0.163535D+00  0.000000D+00  0.286133D+00  0.000000D+00
      5   0.000000D+00  0.263761D+00  0.000000D+00 -0.190265D+00  0.000000D+00
      6   0.000000D+00  0.267509D+00  0.000000D+00  0.175487D+00  0.000000D+00
      7   0.000000D+00  0.153741D+00  0.000000D+00 -0.279201D+00  0.000000D+00
      8   0.000000D+00  0.264648D+00  0.000000D+00 -0.187411D+00  0.000000D+00
      9   0.000000D+00 -0.656301D-02  0.000000D+00  0.114535D-01  0.000000D+00
     10   0.000000D+00  0.154819D+00  0.000000D+00 -0.279223D+00  0.000000D+00
                 6             7             8             9            10 
      1   0.318800D+00  0.000000D+00  0.218114D+00  0.000000D+00  0.000000D+00
      2  -0.576206D-05  0.000000D+00  0.150760D-02  0.000000D+00  0.000000D+00
      3  -0.203997D+00  0.000000D+00 -0.351861D+00  0.000000D+00  0.000000D+00
      4   0.321299D+00  0.000000D+00  0.220786D+00  0.000000D+00  0.000000D+00
      5  -0.184845D+00  0.000000D+00  0.356417D+00  0.000000D+00  0.000000D+00
      6  -0.200944D+00  0.000000D+00 -0.352475D+00  0.000000D+00  0.000000D+00
      7   0.325656D+00  0.000000D+00 -0.230720D+00  0.000000D+00  0.000000D+00
      8  -0.188018D+00  0.000000D+00  0.355880D+00  0.000000D+00  0.000000D+00
      9  -0.123064D-01  0.000000D+00  0.784990D-02  0.000000D+00  0.000000D+00
     10   0.323223D+00  0.000000D+00 -0.227981D+00  0.000000D+00  0.000000D+00
                11            12            13            14            15 
      1  -0.481681D-01  0.487719D-01  0.000000D+00 -0.631868D+00  0.000000D+00
      2   0.569090D+00 -0.569206D+00  0.000000D+00 -0.404048D-02  0.000000D+00
      3   0.161219D-02 -0.485028D-02  0.000000D+00 -0.100606D+01  0.000000D+00
      4  -0.469112D-01  0.471332D-01  0.000000D+00  0.645748D+00  0.000000D+00
      5   0.127223D-01  0.144694D-01  0.000000D+00 -0.100854D+01  0.000000D+00
      6   0.975329D-02 -0.119439D-01  0.000000D+00  0.100963D+01  0.000000D+00
      7  -0.588438D-01 -0.590157D-01  0.000000D+00 -0.642914D+00  0.000000D+00
      8   0.275802D-02  0.534115D-02  0.000000D+00  0.100492D+01  0.000000D+00
      9   0.713261D+00  0.713289D+00  0.000000D+00  0.445382D-02  0.000000D+00
     10  -0.605062D-01 -0.609823D-01  0.000000D+00  0.628994D+00  0.000000D+00
                16            17            18            19            20 
      1  -0.106001D+01  0.000000D+00 -0.111306D+01  0.000000D+00 -0.718716D+00
      2  -0.323266D-02  0.000000D+00  0.149845D-02  0.000000D+00  0.400516D-02
      3  -0.650815D+00  0.000000D+00  0.690580D+00  0.000000D+00  0.118213D+01
      4   0.107228D+01  0.000000D+00  0.110742D+01  0.000000D+00  0.701662D+00
      5   0.633490D+00  0.000000D+00  0.713756D+00  0.000000D+00 -0.117562D+01
      6   0.629129D+00  0.000000D+00 -0.717679D+00  0.000000D+00 -0.117465D+01
      7   0.107084D+01  0.000000D+00 -0.110896D+01  0.000000D+00  0.703956D+00
      8  -0.655098D+00  0.000000D+00 -0.686586D+00  0.000000D+00  0.118306D+01
      9  -0.354199D-02  0.000000D+00 -0.161560D-02  0.000000D+00  0.430990D-02
[...]
      6b 0.247719D-03  0.359948D-01 -0.579824D-02  0.358957D-02 -0.661683D-04
      7a-0.167405D+00 -0.655646D-03 -0.793856D-02  0.819139D-02 -0.982163D-01
      7b 0.663642D-03 -0.162586D+00  0.574914D-02 -0.284799D-02  0.779755D-03
      8a-0.788236D-01 -0.429651D-03 -0.586213D-02  0.537235D-02 -0.117647D+00
      8b-0.467692D-03 -0.925935D-01  0.420005D-02 -0.261968D-02 -0.464194D-04
      9a-0.181137D-01 -0.576908D-03 -0.863416D-02  0.522992D-02 -0.116485D-01
      9b-0.131358D-01  0.738543D-02 -0.517641D-02  0.373660D-02 -0.845457D-02
     10a-0.167325D+00 -0.667214D-03 -0.790211D-02  0.816525D-02 -0.983144D-01
     10b 0.651734D-03 -0.162591D+00  0.572759D-02 -0.282455D-02  0.773866D-03
                3b            4a            4b            5a            5b
      3b 0.505530D+00
      4a 0.144591D-03  0.603372D+00
      4b 0.289829D-01  0.274058D-03  0.598773D+00
      5a 0.459475D-04 -0.801821D-01 -0.421046D-03  0.497544D+00
      5b-0.129174D+00 -0.482424D-03 -0.938759D-01  0.111258D-03  0.526579D+00
      6a-0.628183D-04  0.373223D-01  0.404047D-03 -0.124995D+00 -0.540910D-04
      6b 0.506385D+00  0.245047D-03  0.332161D-01  0.558034D-04 -0.132995D+00
      7a 0.119961D-03 -0.167370D+00 -0.668657D-03  0.263507D-01 -0.220023D-04
      7b-0.728664D-01  0.652816D-03 -0.162696D+00 -0.618832D-03  0.441938D-01
      8a 0.480136D-04 -0.786484D-01 -0.434206D-03  0.496668D+00  0.633063D-04
      8b-0.125625D+00 -0.473253D-03 -0.924333D-01  0.630353D-04  0.525639D+00
      9a-0.986363D-03 -0.181656D-01 -0.600013D-03  0.112351D-01  0.522554D-02
      9b 0.317776D-02 -0.131597D-01  0.737772D-02  0.697135D-02 -0.857635D-03
     10a 0.115856D-03 -0.167290D+00 -0.680223D-03  0.290965D-01 -0.242505D-04
     10b-0.731037D-01  0.640907D-03 -0.162701D+00 -0.620798D-03  0.470500D-01
                6a            6b            7a            7b            8a
      6a 0.516832D+00
      6b-0.113187D-03  0.507292D+00
      7a-0.996651D-01  0.121860D-03  0.615440D+00
      7b 0.773801D-03 -0.743937D-01 -0.270236D-03  0.586667D+00
      8a-0.121185D+00  0.576793D-04  0.220417D-01 -0.465980D-03  0.495846D+00
      8b-0.417295D-04 -0.129431D+00  0.485296D-04  0.401261D-01  0.160168D-04
      9a-0.115575D-01 -0.857090D-03 -0.251360D-01 -0.324534D-01  0.944802D-02
      9b-0.844807D-02  0.332815D-02  0.206717D-02 -0.447412D-01  0.596176D-02
     10a-0.997788D-01  0.117568D-03  0.613369D+00 -0.209170D-03  0.248004D-01
     10b 0.767779D-03 -0.746477D-01 -0.219297D-03  0.584732D+00 -0.468663D-03
                8b            9a            9b           10a           10b
      8b 0.524748D+00
      9a 0.447934D-02  0.781941D+00
      9b-0.105127D-02  0.394081D+00  0.207595D+00
     10a 0.457823D-04 -0.253512D-01  0.191041D-02  0.611322D+00
     10b 0.429937D-01 -0.324884D-01 -0.446748D-01 -0.158594D-03  0.582820D+00
 jaja lower-tri density matrix (imaginary):
                1a            1b            2a            2b            3a
      1a 0.000000D+00
      1b-0.150073D-01  0.000000D+00
      2a 0.173896D-01  0.101441D-01  0.000000D+00
      2b-0.975275D-02 -0.175840D-01 -0.284525D+00  0.000000D+00
      3a 0.274458D-03 -0.118318D-01 -0.829673D-03  0.552779D-02  0.000000D+00
      3b 0.113983D-01 -0.249468D-03 -0.483265D-02  0.495748D-03  0.192410D-01
      4a 0.517981D-05  0.150960D-01 -0.174505D-01  0.989075D-02 -0.274197D-03
      4b-0.150940D-01 -0.546196D-05 -0.102879D-01  0.176479D-01  0.117582D-01
      5a-0.352074D-03 -0.173695D-01  0.357364D-02 -0.671876D-02  0.289915D-04
      5b 0.191124D-01  0.438717D-03  0.850289D-02 -0.456348D-02 -0.279526D-02
      6a 0.314529D-03 -0.116747D-01 -0.962062D-03  0.631391D-02  0.000000D+00
      6b 0.112290D-01 -0.290429D-03 -0.563534D-02  0.635663D-03  0.192839D-01
      7a-0.394097D-03  0.498543D-03  0.648643D-02 -0.127517D-01  0.166621D-03
      7b 0.305712D-02  0.394270D-03  0.136801D-01 -0.675663D-02 -0.141456D-01
      8a-0.350315D-03 -0.174533D-01  0.351568D-02 -0.668513D-02  0.281574D-04
      8b 0.191718D-01  0.436816D-03  0.848245D-02 -0.450514D-02 -0.257896D-02
      9a-0.201913D-02  0.470677D-02  0.307499D-02 -0.709274D-02 -0.941263D-03
      9b-0.376984D-02  0.227890D-02  0.153178D-03 -0.301200D-02 -0.139762D-02
     10a-0.392634D-03  0.389686D-03  0.648527D-02 -0.127260D-01  0.165579D-03
     10b 0.316238D-02  0.393388D-03  0.136629D-01 -0.675934D-02 -0.141021D-01
                3b            4a            4b            5a            5b
      3b 0.000000D+00
      4a-0.113224D-01  0.000000D+00
      4b 0.249240D-03 -0.151825D-01  0.000000D+00
      5a 0.232270D-02 -0.353343D-03 -0.174504D-01  0.000000D+00
      5b-0.274979D-04  0.192015D-01  0.440030D-03 -0.136091D-01  0.000000D+00
      6a-0.192802D-01  0.314376D-03 -0.116001D-01 -0.327372D-04  0.257330D-02
      6b 0.132517D-05  0.111521D-01 -0.290318D-03 -0.211289D-02  0.329115D-04
      7a 0.158723D-01 -0.393380D-03  0.410540D-03 -0.896448D-04  0.713127D-02
      7b-0.252201D-03  0.314869D-02  0.394132D-03 -0.757927D-02  0.659485D-04
      8a 0.209437D-02 -0.351608D-03 -0.175332D-01  0.132426D-05  0.135920D-01
      8b-0.283145D-04  0.192599D-01  0.438161D-03 -0.135883D-01 -0.239196D-05
      9a 0.319495D-02 -0.201867D-02  0.470737D-02  0.215462D-03 -0.116533D-02
      9b 0.191869D-02 -0.377900D-02  0.227464D-02  0.184390D-02  0.106295D-03
     10a 0.158206D-01 -0.391917D-03  0.301567D-03 -0.901872D-04  0.718901D-02
     10b-0.251109D-03  0.325409D-02  0.393249D-03 -0.763466D-02  0.664527D-04
                6a            6b            7a            7b            8a
      6a 0.000000D+00
      6b 0.193194D-01  0.000000D+00
      7a 0.177325D-03  0.158103D-01  0.000000D+00
      7b-0.140592D-01 -0.263062D-03  0.542441D-02  0.000000D+00
      8a 0.317894D-04  0.188442D-02  0.815865D-04  0.769288D-02  0.000000D+00
      8b-0.235699D-02 -0.336146D-04 -0.725709D-02 -0.570098D-04 -0.135686D-01
      9a-0.948874D-03  0.318900D-02  0.451397D-02 -0.289243D-02  0.179461D-03
      9b-0.140487D-02  0.192691D-02  0.249531D-02 -0.470867D-02  0.163873D-02
     10a 0.176287D-03  0.157576D-01 -0.156813D-05 -0.536503D-02 -0.821572D-04
     10b-0.140147D-01 -0.261981D-03  0.536706D-02  0.184741D-05 -0.774764D-02
                8b            9a            9b           10a           10b
      8b 0.000000D+00
      9a-0.943588D-03  0.000000D+00
      9b 0.149681D-03  0.750016D-01  0.000000D+00
     10a 0.731414D-02 -0.449824D-02 -0.246072D-02  0.000000D+00
     10b 0.575496D-04  0.285202D-02  0.468991D-02  0.530754D-02  0.000000D+00
 jaja non-ortho density matrix               [Gau-style] (real):
                 1             2             3             4             5 
      1a  0.599426D+00  0.160900D-03 -0.327760D-01  0.110346D-01  0.360150D-01
      1b  0.160900D-03  0.594755D+00  0.199652D-01 -0.377085D-01  0.280177D-03
      2a -0.327760D-01  0.199652D-01  0.571836D+00 -0.399517D+00  0.566296D-02
      2b  0.110346D-01 -0.377085D-01 -0.399517D+00  0.423161D+00 -0.564687D-02
      3a  0.360150D-01  0.280177D-03  0.566296D-02 -0.564687D-02  0.515065D+00
      3b  0.147853D-03  0.317739D-01 -0.493847D-02  0.279629D-02 -0.167455D-04
      4a  0.601387D+00  0.218305D-03 -0.326653D-01  0.109225D-01  0.331797D-01
      4b  0.216283D-03  0.596752D+00  0.198829D-01 -0.376699D-01  0.277917D-03
      5a -0.803739D-01 -0.416336D-03 -0.575475D-02  0.532693D-02 -0.121442D+00
      5b -0.476696D-03 -0.940517D-01  0.410800D-02 -0.248396D-02 -0.585882D-04
      6a  0.401457D-01  0.405665D-03  0.686059D-02 -0.656707D-02  0.515923D+00
      6b  0.247719D-03  0.359948D-01 -0.579824D-02  0.358957D-02 -0.661683D-04
      7a -0.167405D+00 -0.655646D-03 -0.793856D-02  0.819139D-02 -0.982163D-01
      7b  0.663642D-03 -0.162586D+00  0.574914D-02 -0.284799D-02  0.779755D-03
      8a -0.788236D-01 -0.429651D-03 -0.586213D-02  0.537235D-02 -0.117647D+00
      8b -0.467692D-03 -0.925935D-01  0.420005D-02 -0.261968D-02 -0.464194D-04
      9a -0.181137D-01 -0.576908D-03 -0.863416D-02  0.522992D-02 -0.116485D-01
      9b -0.131358D-01  0.738543D-02 -0.517641D-02  0.373660D-02 -0.845457D-02
     10a -0.167325D+00 -0.667214D-03 -0.790211D-02  0.816525D-02 -0.983144D-01
     10b  0.651734D-03 -0.162591D+00  0.572759D-02 -0.282455D-02  0.773866D-03
                 6             7             8             9            10 
      1a  0.147853D-03  0.601387D+00  0.216283D-03 -0.803739D-01 -0.476696D-03
      1b  0.317739D-01  0.218305D-03  0.596752D+00 -0.416336D-03 -0.940517D-01
      2a -0.493847D-02 -0.326653D-01  0.198829D-01 -0.575475D-02  0.410800D-02
      2b  0.279629D-02  0.109225D-01 -0.376699D-01  0.532693D-02 -0.248396D-02
      3a -0.167455D-04  0.331797D-01  0.277917D-03 -0.121442D+00 -0.585882D-04
      3b  0.505530D+00  0.144591D-03  0.289829D-01  0.459475D-04 -0.129174D+00
      4a  0.144591D-03  0.603372D+00  0.274058D-03 -0.801821D-01 -0.482424D-03
      4b  0.289829D-01  0.274058D-03  0.598773D+00 -0.421046D-03 -0.938759D-01
      5a  0.459475D-04 -0.801821D-01 -0.421046D-03  0.497544D+00  0.111258D-03
      5b -0.129174D+00 -0.482424D-03 -0.938759D-01  0.111258D-03  0.526579D+00
      6a -0.628183D-04  0.373223D-01  0.404047D-03 -0.124995D+00 -0.540910D-04
      6b  0.506385D+00  0.245047D-03  0.332161D-01  0.558034D-04 -0.132995D+00
      7a  0.119961D-03 -0.167370D+00 -0.668657D-03  0.263507D-01 -0.220023D-04
      7b -0.728664D-01  0.652816D-03 -0.162696D+00 -0.618832D-03  0.441938D-01
      8a  0.480136D-04 -0.786484D-01 -0.434206D-03  0.496668D+00  0.633063D-04
      8b -0.125625D+00 -0.473253D-03 -0.924333D-01  0.630353D-04  0.525639D+00
      9a -0.986363D-03 -0.181656D-01 -0.600013D-03  0.112351D-01  0.522554D-02
      9b  0.317776D-02 -0.131597D-01  0.737772D-02  0.697135D-02 -0.857635D-03
     10a  0.115856D-03 -0.167290D+00 -0.680223D-03  0.290965D-01 -0.242505D-04
     10b -0.731037D-01  0.640907D-03 -0.162701D+00 -0.620798D-03  0.470500D-01
                11            12            13            14            15 
      1a  0.401457D-01  0.247719D-03 -0.167405D+00  0.663642D-03 -0.788236D-01
      1b  0.405665D-03  0.359948D-01 -0.655646D-03 -0.162586D+00 -0.429651D-03
      2a  0.686059D-02 -0.579824D-02 -0.793856D-02  0.574914D-02 -0.586213D-02
      2b -0.656707D-02  0.358957D-02  0.819139D-02 -0.284799D-02  0.537235D-02
      3a  0.515923D+00 -0.661683D-04 -0.982163D-01  0.779755D-03 -0.117647D+00
      3b -0.628183D-04  0.506385D+00  0.119961D-03 -0.728664D-01  0.480136D-04
      4a  0.373223D-01  0.245047D-03 -0.167370D+00  0.652816D-03 -0.786484D-01
      4b  0.404047D-03  0.332161D-01 -0.668657D-03 -0.162696D+00 -0.434206D-03
      5a -0.124995D+00  0.558034D-04  0.263507D-01 -0.618832D-03  0.496668D+00
      5b -0.540910D-04 -0.132995D+00 -0.220023D-04  0.441938D-01  0.633063D-04
      6a  0.516832D+00 -0.113187D-03 -0.996651D-01  0.773801D-03 -0.121185D+00
      6b -0.113187D-03  0.507292D+00  0.121860D-03 -0.743937D-01  0.576793D-04
      7a -0.996651D-01  0.121860D-03  0.615440D+00 -0.270236D-03  0.220417D-01
      7b  0.773801D-03 -0.743937D-01 -0.270236D-03  0.586667D+00 -0.465980D-03
      8a -0.121185D+00  0.576793D-04  0.220417D-01 -0.465980D-03  0.495846D+00
      8b -0.417295D-04 -0.129431D+00  0.485296D-04  0.401261D-01  0.160168D-04
      9a -0.115575D-01 -0.857090D-03 -0.251360D-01 -0.324534D-01  0.944802D-02
      9b -0.844807D-02  0.332815D-02  0.206717D-02 -0.447412D-01  0.596176D-02
     10a -0.997788D-01  0.117568D-03  0.613369D+00 -0.209170D-03  0.248004D-01
     10b  0.767779D-03 -0.746477D-01 -0.219297D-03  0.584732D+00 -0.468663D-03
                16            17            18            19            20 
      1a -0.467692D-03 -0.181137D-01 -0.131358D-01 -0.167325D+00  0.651734D-03
      1b -0.925935D-01 -0.576908D-03  0.738543D-02 -0.667214D-03 -0.162591D+00
      2a  0.420005D-02 -0.863416D-02 -0.517641D-02 -0.790211D-02  0.572759D-02
      2b -0.261968D-02  0.522992D-02  0.373660D-02  0.816525D-02 -0.282455D-02
      3a -0.464194D-04 -0.116485D-01 -0.845457D-02 -0.983144D-01  0.773866D-03
      3b -0.125625D+00 -0.986363D-03  0.317776D-02  0.115856D-03 -0.731037D-01
      4a -0.473253D-03 -0.181656D-01 -0.131597D-01 -0.167290D+00  0.640907D-03
      4b -0.924333D-01 -0.600013D-03  0.737772D-02 -0.680223D-03 -0.162701D+00
      5a  0.630353D-04  0.112351D-01  0.697135D-02  0.290965D-01 -0.620798D-03
      5b  0.525639D+00  0.522554D-02 -0.857635D-03 -0.242505D-04  0.470500D-01
      6a -0.417295D-04 -0.115575D-01 -0.844807D-02 -0.997788D-01  0.767779D-03
      6b -0.129431D+00 -0.857090D-03  0.332815D-02  0.117568D-03 -0.746477D-01
      7a  0.485296D-04 -0.251360D-01  0.206717D-02  0.613369D+00 -0.219297D-03
      7b  0.401261D-01 -0.324534D-01 -0.447412D-01 -0.209170D-03  0.584732D+00
      8a  0.160168D-04  0.944802D-02  0.596176D-02  0.248004D-01 -0.468663D-03
      8b  0.524748D+00  0.447934D-02 -0.105127D-02  0.457823D-04  0.429937D-01
      9a  0.447934D-02  0.781941D+00  0.394081D+00 -0.253512D-01 -0.324884D-01
      9b -0.105127D-02  0.394081D+00  0.207595D+00  0.191041D-02 -0.446748D-01
     10a  0.457823D-04 -0.253512D-01  0.191041D-02  0.611322D+00 -0.158594D-03
     10b  0.429937D-01 -0.324884D-01 -0.446748D-01 -0.158594D-03  0.582820D+00
 jaja non-ortho density matrix               [Gau-style] (imaginary):
                 1             2             3             4             5 
      1a  0.000000D+00  0.150073D-01 -0.173896D-01  0.975275D-02 -0.274458D-03
      1b -0.150073D-01  0.000000D+00 -0.101441D-01  0.175840D-01  0.118318D-01
      2a  0.173896D-01  0.101441D-01  0.000000D+00  0.284525D+00  0.829673D-03
      2b -0.975275D-02 -0.175840D-01 -0.284525D+00  0.000000D+00 -0.552779D-02
      3a  0.274458D-03 -0.118318D-01 -0.829673D-03  0.552779D-02  0.000000D+00
      3b  0.113983D-01 -0.249468D-03 -0.483265D-02  0.495748D-03  0.192410D-01
      4a  0.517981D-05  0.150960D-01 -0.174505D-01  0.989075D-02 -0.274197D-03
      4b -0.150940D-01 -0.546196D-05 -0.102879D-01  0.176479D-01  0.117582D-01
      5a -0.352074D-03 -0.173695D-01  0.357364D-02 -0.671876D-02  0.289915D-04
      5b  0.191124D-01  0.438717D-03  0.850289D-02 -0.456348D-02 -0.279526D-02
      6a  0.314529D-03 -0.116747D-01 -0.962062D-03  0.631391D-02  0.000000D+00
      6b  0.112290D-01 -0.290429D-03 -0.563534D-02  0.635663D-03  0.192839D-01
      7a -0.394097D-03  0.498543D-03  0.648643D-02 -0.127517D-01  0.166621D-03
      7b  0.305712D-02  0.394270D-03  0.136801D-01 -0.675663D-02 -0.141456D-01
      8a -0.350315D-03 -0.174533D-01  0.351568D-02 -0.668513D-02  0.281574D-04
      8b  0.191718D-01  0.436816D-03  0.848245D-02 -0.450514D-02 -0.257896D-02
      9a -0.201913D-02  0.470677D-02  0.307499D-02 -0.709274D-02 -0.941263D-03
      9b -0.376984D-02  0.227890D-02  0.153178D-03 -0.301200D-02 -0.139762D-02
     10a -0.392634D-03  0.389686D-03  0.648527D-02 -0.127260D-01  0.165579D-03
     10b  0.316238D-02  0.393388D-03  0.136629D-01 -0.675934D-02 -0.141021D-01
                 6             7             8             9            10 
      1a -0.113983D-01 -0.517981D-05  0.150940D-01  0.352074D-03 -0.191124D-01
      1b  0.249468D-03 -0.150960D-01  0.546196D-05  0.173695D-01 -0.438717D-03
      2a  0.483265D-02  0.174505D-01  0.102879D-01 -0.357364D-02 -0.850289D-02
      2b -0.495748D-03 -0.989075D-02 -0.176479D-01  0.671876D-02  0.456348D-02
      3a -0.192410D-01  0.274197D-03 -0.117582D-01 -0.289915D-04  0.279526D-02
      3b  0.000000D+00  0.113224D-01 -0.249240D-03 -0.232270D-02  0.274979D-04
      4a -0.113224D-01  0.000000D+00  0.151825D-01  0.353343D-03 -0.192015D-01
      4b  0.249240D-03 -0.151825D-01  0.000000D+00  0.174504D-01 -0.440030D-03
      5a  0.232270D-02 -0.353343D-03 -0.174504D-01  0.000000D+00  0.136091D-01
      5b -0.274979D-04  0.192015D-01  0.440030D-03 -0.136091D-01  0.000000D+00
      6a -0.192802D-01  0.314376D-03 -0.116001D-01 -0.327372D-04  0.257330D-02
      6b  0.132517D-05  0.111521D-01 -0.290318D-03 -0.211289D-02  0.329115D-04
      7a  0.158723D-01 -0.393380D-03  0.410540D-03 -0.896448D-04  0.713127D-02
      7b -0.252201D-03  0.314869D-02  0.394132D-03 -0.757927D-02  0.659485D-04
      8a  0.209437D-02 -0.351608D-03 -0.175332D-01  0.132426D-05  0.135920D-01
      8b -0.283145D-04  0.192599D-01  0.438161D-03 -0.135883D-01 -0.239196D-05
      9a  0.319495D-02 -0.201867D-02  0.470737D-02  0.215462D-03 -0.116533D-02
      9b  0.191869D-02 -0.377900D-02  0.227464D-02  0.184390D-02  0.106295D-03
     10a  0.158206D-01 -0.391917D-03  0.301567D-03 -0.901872D-04  0.718901D-02
     10b -0.251109D-03  0.325409D-02  0.393249D-03 -0.763466D-02  0.664527D-04
                11            12            13            14            15 
      1a -0.314529D-03 -0.112290D-01  0.394097D-03 -0.305712D-02  0.350315D-03
      1b  0.116747D-01  0.290429D-03 -0.498543D-03 -0.394270D-03  0.174533D-01
      2a  0.962062D-03  0.563534D-02 -0.648643D-02 -0.136801D-01 -0.351568D-02
      2b -0.631391D-02 -0.635663D-03  0.127517D-01  0.675663D-02  0.668513D-02
      3a  0.000000D+00 -0.192839D-01 -0.166621D-03  0.141456D-01 -0.281574D-04
      3b  0.192802D-01 -0.132517D-05 -0.158723D-01  0.252201D-03 -0.209437D-02
      4a -0.314376D-03 -0.111521D-01  0.393380D-03 -0.314869D-02  0.351608D-03
      4b  0.116001D-01  0.290318D-03 -0.410540D-03 -0.394132D-03  0.175332D-01
      5a  0.327372D-04  0.211289D-02  0.896448D-04  0.757927D-02 -0.132426D-05
      5b -0.257330D-02 -0.329115D-04 -0.713127D-02 -0.659485D-04 -0.135920D-01
      6a  0.000000D+00 -0.193194D-01 -0.177325D-03  0.140592D-01 -0.317894D-04
      6b  0.193194D-01  0.000000D+00 -0.158103D-01  0.263062D-03 -0.188442D-02
      7a  0.177325D-03  0.158103D-01  0.000000D+00 -0.542441D-02 -0.815865D-04
      7b -0.140592D-01 -0.263062D-03  0.542441D-02  0.000000D+00 -0.769288D-02
      8a  0.317894D-04  0.188442D-02  0.815865D-04  0.769288D-02  0.000000D+00
      8b -0.235699D-02 -0.336146D-04 -0.725709D-02 -0.570098D-04 -0.135686D-01
      9a -0.948874D-03  0.318900D-02  0.451397D-02 -0.289243D-02  0.179461D-03
      9b -0.140487D-02  0.192691D-02  0.249531D-02 -0.470867D-02  0.163873D-02
     10a  0.176287D-03  0.157576D-01 -0.156813D-05 -0.536503D-02 -0.821572D-04
     10b -0.140147D-01 -0.261981D-03  0.536706D-02  0.184741D-05 -0.774764D-02
                16            17            18            19            20 
      1a -0.191718D-01  0.201913D-02  0.376984D-02  0.392634D-03 -0.316238D-02
      1b -0.436816D-03 -0.470677D-02 -0.227890D-02 -0.389686D-03 -0.393388D-03
      2a -0.848245D-02 -0.307499D-02 -0.153178D-03 -0.648527D-02 -0.136629D-01
      2b  0.450514D-02  0.709274D-02  0.301200D-02  0.127260D-01  0.675934D-02
      3a  0.257896D-02  0.941263D-03  0.139762D-02 -0.165579D-03  0.141021D-01
      3b  0.283145D-04 -0.319495D-02 -0.191869D-02 -0.158206D-01  0.251109D-03
      4a -0.192599D-01  0.201867D-02  0.377900D-02  0.391917D-03 -0.325409D-02
      4b -0.438161D-03 -0.470737D-02 -0.227464D-02 -0.301567D-03 -0.393249D-03
      5a  0.135883D-01 -0.215462D-03 -0.184390D-02  0.901872D-04  0.763466D-02
      5b  0.239196D-05  0.116533D-02 -0.106295D-03 -0.718901D-02 -0.664527D-04
      6a  0.235699D-02  0.948874D-03  0.140487D-02 -0.176287D-03  0.140147D-01
      6b  0.336146D-04 -0.318900D-02 -0.192691D-02 -0.157576D-01  0.261981D-03
      7a  0.725709D-02 -0.451397D-02 -0.249531D-02  0.156813D-05 -0.536706D-02
      7b  0.570098D-04  0.289243D-02  0.470867D-02  0.536503D-02 -0.184741D-05
      8a  0.135686D-01 -0.179461D-03 -0.163873D-02  0.821572D-04  0.774764D-02
      8b  0.000000D+00  0.943588D-03 -0.149681D-03 -0.731414D-02 -0.575496D-04
      9a -0.943588D-03  0.000000D+00 -0.750016D-01  0.449824D-02 -0.285202D-02
      9b  0.149681D-03  0.750016D-01  0.000000D+00  0.246072D-02 -0.468991D-02
     10a  0.731414D-02 -0.449824D-02 -0.246072D-02  0.000000D+00 -0.530754D-02
     10b  0.575496D-04  0.285202D-02  0.468991D-02  0.530754D-02  0.000000D+00
FORTRAN STOP
