 Entering Gaussian System, Link 0=gdv
 AtFile(1): H.gbs
            H     0
            S   10   1.00
               1000.000000000000            0.000068713567
                316.227766000000            0.000169141320
                100.000000000000            0.000823394812
                 31.622776600000            0.003425569236
                 10.000000000000            0.013951996000
                  3.162277660000            0.056909313560
                  1.000000000000            0.198286399900
                  0.316227766000            0.496922426700
                  0.100000000000            0.369846276400
                  0.031622776600            0.003752720039
            ****
 Initial command:
 /users/lcj1/GHF_hess/exe-dir/l1.exe "/users/lcj1/GHF_hess/h10_2rows/mixrmY/Gau-20652.inp" -scrdir="/users/lcj1/GHF_hess/h10_2rows/mixrmY/"
 Entering Link 1 = /users/lcj1/GHF_hess/exe-dir/l1.exe PID=     20653.
  
 Copyright (c) 1988,1990,1992,1993,1995,1998,2003,2009,2012,
            Gaussian, Inc.  All Rights Reserved.
  
 This is the private, development version of
 the Gaussian(R) DV system of programs. It is based on
 the Gaussian(R) 09 system (copyright 2009, Gaussian, Inc.),
 the Gaussian(R) 03 system (copyright 2003, Gaussian, Inc.),
 the Gaussian(R) 98 system (copyright 1998, Gaussian, Inc.),
 the Gaussian(R) 94 system (copyright 1995, Gaussian, Inc.),
 the Gaussian 92(TM) system (copyright 1992, Gaussian, Inc.),
 the Gaussian 90(TM) system (copyright 1990, Gaussian, Inc.),
 the Gaussian 88(TM) system (copyright 1988, Gaussian, Inc.),
 the Gaussian 86(TM) system (copyright 1986, Carnegie Mellon
 University), and the Gaussian 82(TM) system (copyright 1983,
 Carnegie Mellon University). Gaussian is a federally registered
 trademark of Gaussian, Inc.
  
 This software contains proprietary and confidential information,
 including trade secrets, belonging to Gaussian, Inc.
  
 This software is provided under written license and may be
 used, copied, transmitted, or stored only in accord with that
 written license.
  
 The following legend is applicable only to US Government
 contracts under FAR:
  
                    RESTRICTED RIGHTS LEGEND
  
 Use, reproduction and disclosure by the US Government is
 subject to restrictions as set forth in subparagraphs (a)
 and (c) of the Commercial Computer Software - Restricted
 Rights clause in FAR 52.227-19.
  
 Gaussian, Inc.
 340 Quinnipiac St., Bldg. 40, Wallingford CT 06492
  
  
 ---------------------------------------------------------------
 Warning -- This program may not be used in any manner that
 competes with the business of Gaussian, Inc. or will provide
 assistance to any competitor of Gaussian, Inc.  The licensee
 of this program is prohibited from giving any competitor of
 Gaussian, Inc. access to this program.  By using this program,
 the user acknowledges that Gaussian, Inc. is engaged in the
 business of creating and licensing software in the field of
 computational chemistry and represents and warrants to the
 licensee that it is not a competitor of Gaussian, Inc. and that
 it will not use this program in any manner prohibited above.
 ---------------------------------------------------------------
  

 Cite this work as:
 Gaussian Development Version, Revision H.21,
 M. J. Frisch, G. W. Trucks, H. B. Schlegel, G. E. Scuseria, 
 M. A. Robb, J. R. Cheeseman, G. Scalmani, V. Barone, B. Mennucci, 
 G. A. Petersson, H. Nakatsuji, M. Caricato, X. Li, H. P. Hratchian, 
 A. F. Izmaylov, J. Bloino, G. Zheng, J. L. Sonnenberg, W. Liang, 
 M. Hada, M. Ehara, K. Toyota, R. Fukuda, J. Hasegawa, M. Ishida, 
 T. Nakajima, Y. Honda, O. Kitao, H. Nakai, T. Vreven, 
 J. A. Montgomery, Jr., J. E. Peralta, F. Ogliaro, M. Bearpark, 
 J. J. Heyd, E. Brothers, K. N. Kudin, V. N. Staroverov, T. Keith, 
 R. Kobayashi, J. Normand, K. Raghavachari, A. Rendell, J. C. Burant, 
 S. S. Iyengar, J. Tomasi, M. Cossi, N. Rega, J. M. Millam, M. Klene, 
 J. E. Knox, J. B. Cross, V. Bakken, C. Adamo, J. Jaramillo, 
 R. Gomperts, R. E. Stratmann, O. Yazyev, A. J. Austin, R. Cammi, 
 C. Pomelli, J. W. Ochterski, R. L. Martin, K. Morokuma, 
 V. G. Zakrzewski, G. A. Voth, P. Salvador, J. J. Dannenberg, 
 S. Dapprich, P. V. Parandekar, N. J. Mayhall, A. D. Daniels, 
 O. Farkas, J. B. Foresman, J. V. Ortiz, J. Cioslowski, 
 and D. J. Fox, Gaussian, Inc., Wallingford CT, 2010.
 
 ******************************************
 Gaussian DV:  EM64L-GDVRevH.21 13-May-2012
                28-Feb-2017 
 ******************************************
 %chk=h10.chk
 ----------------------------------------------------------------------
 #ghf/gen scf(tight,novaracc,noincfock,fulldiag) stable guess=mix geom=
 nocrowd use=l802 use=l902 test
 ----------------------------------------------------------------------
 ********************************************
   THE COMPLEX ERI TRANSFORMATION WITH L802  
        COMPLEX STABILITY WITH L902          
 ********************************************
 1/38=1/1;
 2/12=1,17=6,18=5,40=1/2;
 3/5=7,16=1,25=20,28=1,116=7/1,2,3,20;
 4/13=-1/1;
 5/5=100001,16=1,32=2,38=1/2;
 8/6=1,10=90,11=11/1,2;
 9/8=4,13=1/1,2;
 6/7=2,8=2,9=2,10=2,28=1/1;
 99/5=1,9=1/99;
 ----------------------------------------------------------------------
 hf stability analysis of h10 triangular lattice, y= 1.9654877006520655
  alpha= 81.500000000000000
 ----------------------------------------------------------------------
 Symbolic Z-Matrix:
 Charge =  0 Multiplicity = 1
 H
 H                    1     1.98732 
 H                    1     1.98732  2     17. 
 H                    2     1.98732  1     163.     3     0.       0
 H                    3     1.98732  1     180.     2     0.       0
 H                    4     1.98732  2     180.     1     0.       0
 H                    5     1.98732  3     180.     2     0.       0
 H                    6     1.98732  4     180.     1     0.       0
 H                    7     1.98732  5     180.     2     0.       0
 H                    8     1.98732  6     180.     1     0.       0
 
                          Input orientation:                          
 ---------------------------------------------------------------------
 Center     Atomic      Atomic             Coordinates (Angstroms)
 Number     Number       Type             X           Y           Z
 ---------------------------------------------------------------------
      1          1           0        0.000000    0.000000    0.000000
      2          1           0        0.000000    0.000000    1.987317
      3          1           0        0.581035    0.000000    1.900480
      4          1           0        0.581035    0.000000    3.887797
      5          1           0        1.162070    0.000000    3.800961
      6          1           0        1.162070    0.000000    5.788277
      7          1           0        1.743105    0.000000    5.701441
      8          1           0        1.743105    0.000000    7.688758
      9          1           0        2.324141    0.000000    7.601921
     10          1           0        2.324141    0.000000    9.589238
 ---------------------------------------------------------------------
                    Distance matrix (angstroms):
                    1          2          3          4          5
     1  H    0.000000
     2  H    1.987317   0.000000
     3  H    1.987317   0.587488   0.000000
     4  H    3.930975   1.987317   1.987317   0.000000
     5  H    3.974633   2.153999   1.987317   0.587488   0.000000
     6  H    5.903775   3.974633   3.930975   1.987317   1.987317
     7  H    5.961950   4.102821   3.974633   2.153999   1.987317
     8  H    7.883870   5.961950   5.903775   3.974633   3.930975
     9  H    7.949267   6.076629   5.961950   4.102821   3.974633
    10  H    9.866870   7.949267   7.883870   5.961950   5.903775
                    6          7          8          9         10
     6  H    0.000000
     7  H    0.587488   0.000000
     8  H    1.987317   1.987317   0.000000
     9  H    2.153999   1.987317   0.587488   0.000000
    10  H    3.974633   3.930975   1.987317   1.987317   0.000000
 Stoichiometry    H10
 Framework group  C2H[SGH(H10)]
 Deg. of freedom     9
 Full point group                 C2H     NOp   4
 Largest Abelian subgroup         C2H     NOp   4
 Largest concise Abelian subgroup C2      NOp   2
                         Standard orientation:                         
 ---------------------------------------------------------------------
 Center     Atomic      Atomic             Coordinates (Angstroms)
 Number     Number       Type             X           Y           Z
 ---------------------------------------------------------------------
      1          1           0        1.162070    4.794619    0.000000
      2          1           0        1.162070    2.807302    0.000000
      3          1           0        0.581035    2.894139    0.000000
      4          1           0        0.581035    0.906822    0.000000
      5          1           0        0.000000    0.993658    0.000000
      6          1           0        0.000000   -0.993658    0.000000
      7          1           0       -0.581035   -0.906822    0.000000
      8          1           0       -0.581035   -2.894139    0.000000
      9          1           0       -1.162070   -2.807302    0.000000
     10          1           0       -1.162070   -4.794619    0.000000
 ---------------------------------------------------------------------
 Rotational constants (GHZ):    662.7135582      5.6915334      5.6430695
 General basis read from cards:  (5D, 7F)
 There are     5 symmetry adapted cartesian basis functions of AG  symmetry.
 There are     0 symmetry adapted cartesian basis functions of BG  symmetry.
 There are     0 symmetry adapted cartesian basis functions of AU  symmetry.
 There are     5 symmetry adapted cartesian basis functions of BU  symmetry.
 There are     5 symmetry adapted basis functions of AG  symmetry.
 There are     0 symmetry adapted basis functions of BG  symmetry.
 There are     0 symmetry adapted basis functions of AU  symmetry.
 There are     5 symmetry adapted basis functions of BU  symmetry.
    10 basis functions,   100 primitive gaussians,    10 cartesian basis functions
     5 alpha electrons        5 beta electrons
       nuclear repulsion energy        10.4288945722 Hartrees.
 NAtoms=   10 NActive=   10 NUniq=    5 SFac= 4.00D+00 NAtFMM=   60 NAOKFM=F Big=F
 Integral buffers will be    131072 words long.
 Regular integral format.
 Two-electron integral symmetry is turned off.
 One-electron integrals computed using PRISM.
 NBasis=    10 RedAO= T EigKep=  1.37D-01  NBF=     5     0     0     5
 NBsUse=    10 1.00D-06 EigRej= -1.00D+00 NBFU=     5     0     0     5
 IOp(28)                       1
                        1                       0
                        2                       1
                        3                       1
                        4                      20
                        5                       0
                        6                       0
                        7                      10
                        8                       1
                        9                       4
                       10                       0
                       11              1073741824
                       12                      20
                       13                       2
                       14                  131070
                       15                       1
                       16                       1
                       17                  131073
                       18                       0
                       19                       0
                       20                       0
                       21                       2
                       22                  131070
                       23                       0
                       24                       0
                       25                       0
                       26                       0
                       27                   65535
                       28                       2
                       29                  131072
                       30                       0
 IHMeth                       1
 ib3: ISMode =                        0                       4
 Enter DskPsm, NBasis=  10 NBas6D=  10 NShell=  10 IDoSP=4.
 Out2e will use a cutoff of  1.00D-10
 FoFCou: FMM=F IPFlag=           0 FMFlag=           0 FMFlg1=           0
         NFxFlg=           0 DoJE=F BraDBF=F KetDBF=F FulRan=T
         wScrn=  0.000000 ICntrl=     600 IOpCl=  9 I1Cent=           0 NGrid=           0
         NMat0=    0 NMatS0=      0 NMatT0=    0 NMatD0=    0 NMtDS0=    0 NMtDT0=    0
 Symmetry not used in FoFCou.
 Entering PrmDigJobTyp =                      20
 LenSav and NKeep                       0                       0
 Entered Stor2E with KNTT1,2                       2                  131070
 Leave Stor2X
 Entering PrmDigJobTyp =                      20
 LenSav and NKeep                       0                       0
 Entered Stor2E with KNTT1,2                       2                  131056
 Leave Stor2X
 Entering PrmDigJobTyp =                      20
 LenSav and NKeep                       0                       0
 Entered Stor2E with KNTT1,2                       2                  131042
 Leave Stor2X
 Entering PrmDigJobTyp =                      20
 LenSav and NKeep                       0                       0
 Entered Stor2E with KNTT1,2                       2                  131028
 Leave Stor2X
 Entering PrmDigJobTyp =                      20
 LenSav and NKeep                       0                       0
 Entered Stor2E with KNTT1,2                       2                  131014
 Leave Stor2X
 Entering PrmDigJobTyp =                      20
 LenSav and NKeep                       0                       0
 Entered Stor2E with KNTT1,2                       2                  131000
 Leave Stor2X
 Entering PrmDigJobTyp =                      20
 LenSav and NKeep                       0                       0
 Entered Stor2E with KNTT1,2                       2                  130986
 Leave Stor2X
 Entering PrmDigJobTyp =                      20
 LenSav and NKeep                       0                       0
 Entered Stor2E with KNTT1,2                       2                  130972
 Leave Stor2X
 Entering PrmDigJobTyp =                      20
 LenSav and NKeep                       0                       0
 Entered Stor2E with KNTT1,2                       2                  130960
 Leave Stor2X
 Entering PrmDigJobTyp =                      20
 LenSav and NKeep                       0                       0
 Entered Stor2E with KNTT1,2                       2                  130944
 Leave Stor2X
 Entering PrmDigJobTyp =                      20
 LenSav and NKeep                       0                       0
 Entered Stor2E with KNTT1,2                       2                  130928
 Leave Stor2X
 Entering PrmDigJobTyp =                      20
 LenSav and NKeep                       0                       0
 Entered Stor2E with KNTT1,2                       2                  130912
 Leave Stor2X
 Entering PrmDigJobTyp =                      20
 LenSav and NKeep                       0                       0
 Entered Stor2E with KNTT1,2                       2                  130896
 Leave Stor2X
 Entering PrmDigJobTyp =                      20
 LenSav and NKeep                       0                       0
 Entered Stor2E with KNTT1,2                       2                  130880
 Leave Stor2X
 Entering PrmDigJobTyp =                      20
 LenSav and NKeep                       0                       0
 Entered Stor2E with KNTT1,2                       2                  130864
 Leave Stor2X
 Entering PrmDigJobTyp =                      20
 LenSav and NKeep                       0                       0
 Entered Stor2E with KNTT1,2                       2                  130848
 Leave Stor2X
 Entering PrmDigJobTyp =                      20
 LenSav and NKeep                       0                       0
 Entered Stor2E with KNTT1,2                       2                  130832
 Leave Stor2X
 Entering PrmDigJobTyp =                      20
 LenSav and NKeep                       0                       0
 Entered Stor2E with KNTT1,2                       2                  130816
 Leave Stor2X
 Entering PrmDigJobTyp =                      20
 LenSav and NKeep                       0                       0
 Entered Stor2E with KNTT1,2                       2                  130800
 Leave Stor2X
 Entering PrmDigJobTyp =                      20
 LenSav and NKeep                       0                       0
 Entered Stor2E with KNTT1,2                       2                  130784
 Leave Stor2X
 Entering PrmDigJobTyp =                      20
 LenSav and NKeep                       0                       0
 Entered Stor2E with KNTT1,2                       2                  130768
 Leave Stor2X
 Entering PrmDigJobTyp =                      20
 LenSav and NKeep                       0                       0
 Entered Stor2E with KNTT1,2                       2                  130752
 Leave Stor2X
 Entering PrmDigJobTyp =                      20
 LenSav and NKeep                       0                       0
 Entered Stor2E with KNTT1,2                       2                  130736
 Leave Stor2X
 Entering PrmDigJobTyp =                      20
 LenSav and NKeep                       0                       0
 Entered Stor2E with KNTT1,2                       2                  130720
 Leave Stor2X
 Entering PrmDigJobTyp =                      20
 LenSav and NKeep                       0                       0
 Entered Stor2E with KNTT1,2                       2                  130704
 Leave Stor2X
 Entering PrmDigJobTyp =                      20
 LenSav and NKeep                       0                       0
 Entered Stor2E with KNTT1,2                       2                  130700
 Leave Stor2X
 Entering PrmDigJobTyp =                      20
 LenSav and NKeep                       0                       0
 Entered Stor2E with KNTT1,2                      10                  130682
 Leave Stor2X
 Entering PrmDigJobTyp =                      20
 LenSav and NKeep                       0                       0
 Entered Stor2E with KNTT1,2                      24                  130670
 Leave Stor2X
 Entering PrmDigJobTyp =                      20
 LenSav and NKeep                       0                       0
 Entered Stor2E with KNTT1,2                      40                  130660
 Leave Stor2X
 Entering PrmDigJobTyp =                      20
 LenSav and NKeep                       0                       0
 Entered Stor2E with KNTT1,2                      60                  130654
 Leave Stor2X
 Entering PrmDigJobTyp =                      20
 LenSav and NKeep                       0                       0
 Entered Stor2E with KNTT1,2                      76                  130644
 Leave Stor2X
 Entering PrmDigJobTyp =                      20
 LenSav and NKeep                       0                       0
 Entered Stor2E with KNTT1,2                      94                  130636
 Leave Stor2X
 Entering PrmDigJobTyp =                      20
 LenSav and NKeep                       0                       0
 Entered Stor2E with KNTT1,2                     114                  130630
 Leave Stor2X
 Entering PrmDigJobTyp =                      20
 LenSav and NKeep                       0                       0
 Entered Stor2E with KNTT1,2                     114                  130616
 Leave Stor2X
 Entering PrmDigJobTyp =                      20
 LenSav and NKeep                       0                       0
 Entered Stor2E with KNTT1,2                     114                  130602
 Leave Stor2X
 Entering PrmDigJobTyp =                      20
 LenSav and NKeep                       0                       0
 Entered Stor2E with KNTT1,2                     114                  130588
 Leave Stor2X
 Entering PrmDigJobTyp =                      20
 LenSav and NKeep                       0                       0
 Entered Stor2E with KNTT1,2                     114                  130574
 Leave Stor2X
 Entering PrmDigJobTyp =                      20
 LenSav and NKeep                       0                       0
 Entered Stor2E with KNTT1,2                     114                  130560
 Leave Stor2X
 Entering PrmDigJobTyp =                      20
 LenSav and NKeep                       0                       0
 Entered Stor2E with KNTT1,2                     114                  130550
 Leave Stor2X
 Entering PrmDigJobTyp =                      20
 LenSav and NKeep                       0                       0
 Entered Stor2E with KNTT1,2                     124                  130540
 Leave Stor2X
 Entering PrmDigJobTyp =                      20
 LenSav and NKeep                       0                       0
 Entered Stor2E with KNTT1,2                     134                  130530
 Leave Stor2X
 Entering PrmDigJobTyp =                      20
 LenSav and NKeep                       0                       0
 Entered Stor2E with KNTT1,2                     152                  130528
 Leave Stor2X
 Entering PrmDigJobTyp =                      20
 LenSav and NKeep                       0                       0
 Entered Stor2E with KNTT1,2                     160                  130516
 Leave Stor2X
 Entering PrmDigJobTyp =                      20
 LenSav and NKeep                       0                       0
 Entered Stor2E with KNTT1,2                     174                  130510
 Leave Stor2X
 Entering PrmDigJobTyp =                      20
 LenSav and NKeep                       0                       0
 Entered Stor2E with KNTT1,2                     174                  130506
 Leave Stor2X
 Entering PrmDigJobTyp =                      20
 LenSav and NKeep                       0                       0
 Entered Stor2E with KNTT1,2                     184                  130500
 Leave Stor2X
 Entering PrmDigJobTyp =                      20
 LenSav and NKeep                       0                       0
 Entered Stor2E with KNTT1,2                     186                  130498
 Leave Stor2X
 Entering PrmDigJobTyp =                      20
 LenSav and NKeep                       0                       0
 Entered Stor2E with KNTT1,2                     186                  130476
 Leave Stor2X
 Entering PrmDigJobTyp =                      20
 LenSav and NKeep                       0                       0
 Entered Stor2E with KNTT1,2                     186                  130454
 Leave Stor2X
 Entering PrmDigJobTyp =                      20
 LenSav and NKeep                       0                       0
 Entered Stor2E with KNTT1,2                     186                  130432
 Leave Stor2X
 Entering PrmDigJobTyp =                      20
 LenSav and NKeep                       0                       0
 Entered Stor2E with KNTT1,2                     186                  130418
 Leave Stor2X
 Entering PrmDigJobTyp =                      20
 LenSav and NKeep                       0                       0
 Entered Stor2E with KNTT1,2                     206                  130404
 Leave Stor2X
 Entering PrmDigJobTyp =                      20
 LenSav and NKeep                       0                       0
 Entered Stor2E with KNTT1,2                     226                  130390
 Leave Stor2X
 Entering PrmDigJobTyp =                      20
 LenSav and NKeep                       0                       0
 Entered Stor2E with KNTT1,2                     246                  130376
 Leave Stor2X
 Entering PrmDigJobTyp =                      20
 LenSav and NKeep                       0                       0
 Entered Stor2E with KNTT1,2                     246                  130374
 Leave Stor2X
 Entering PrmDigJobTyp =                      20
 LenSav and NKeep                       0                       0
 Entered Stor2E with KNTT1,2                     262                  130364
 Leave Stor2X
 Entering PrmDigJobTyp =                      20
 LenSav and NKeep                       0                       0
 Entered Stor2E with KNTT1,2                     266                  130362
 Leave Stor2X
 Entering PrmDigJobTyp =                      20
 LenSav and NKeep                       0                       0
 Entered Stor2E with KNTT1,2                     278                  130354
 Leave Stor2X
 Entering PrmDigJobTyp =                      20
 LenSav and NKeep                       0                       0
 Entered Stor2E with KNTT1,2                     278                  130332
 Leave Stor2X
 Entering PrmDigJobTyp =                      20
 LenSav and NKeep                       0                       0
 Entered Stor2E with KNTT1,2                     278                  130310
 Leave Stor2X
 Entering PrmDigJobTyp =                      20
 LenSav and NKeep                       0                       0
 Entered Stor2E with KNTT1,2                     278                  130288
 Leave Stor2X
 Entering PrmDigJobTyp =                      20
 LenSav and NKeep                       0                       0
 Entered Stor2E with KNTT1,2                     278                  130266
 Leave Stor2X
 Entering PrmDigJobTyp =                      20
 LenSav and NKeep                       0                       0
 Entered Stor2E with KNTT1,2                     278                  130244
 Leave Stor2X
 Entering PrmDigJobTyp =                      20
 LenSav and NKeep                       0                       0
 Entered Stor2E with KNTT1,2                     278                  130234
 Leave Stor2X
 Entering PrmDigJobTyp =                      20
 LenSav and NKeep                       0                       0
 Entered Stor2E with KNTT1,2                     298                  130220
 Leave Stor2X
 Entering PrmDigJobTyp =                      20
 LenSav and NKeep                       0                       0
 Entered Stor2E with KNTT1,2                     318                  130206
 Leave Stor2X
 Entering PrmDigJobTyp =                      20
 LenSav and NKeep                       0                       0
 Entered Stor2E with KNTT1,2                     336                  130190
 Leave Stor2X
 Entering PrmDigJobTyp =                      20
 LenSav and NKeep                       0                       0
 Entered Stor2E with KNTT1,2                     360                  130180
 Leave Stor2X
 Entering PrmDigJobTyp =                      20
 LenSav and NKeep                       0                       0
 Entered Stor2E with KNTT1,2                     370                  130170
 Leave Stor2X
 Entering PrmDigJobTyp =                      20
 LenSav and NKeep                       0                       0
 Entered Stor2E with KNTT1,2                     386                  130160
 Leave Stor2X
 Entering PrmDigJobTyp =                      20
 LenSav and NKeep                       0                       0
 Entered Stor2E with KNTT1,2                     398                  130150
 Leave Stor2X
 Entering PrmDigJobTyp =                      20
 LenSav and NKeep                       0                       0
 Entered Stor2E with KNTT1,2                     424                  130134
 Leave Stor2X
 Entering PrmDigJobTyp =                      20
 LenSav and NKeep                       0                       0
 Entered Stor2E with KNTT1,2                     426                  130130
 Leave Stor2X
 Entering PrmDigJobTyp =                      20
 LenSav and NKeep                       0                       0
 Entered Stor2E with KNTT1,2                     452                  130114
 Leave Stor2X
 Entering PrmDigJobTyp =                      20
 LenSav and NKeep                       0                       0
 Entered Stor2E with KNTT1,2                     452                  130096
 Leave Stor2X
 Entering PrmDigJobTyp =                      20
 LenSav and NKeep                       0                       0
 Entered Stor2E with KNTT1,2                     452                  130078
 Leave Stor2X
 Entering PrmDigJobTyp =                      20
 LenSav and NKeep                       0                       0
 Entered Stor2E with KNTT1,2                     452                  130060
 Leave Stor2X
 Entering PrmDigJobTyp =                      20
 LenSav and NKeep                       0                       0
 Entered Stor2E with KNTT1,2                     452                  130054
 Leave Stor2X
 Entering PrmDigJobTyp =                      20
 LenSav and NKeep                       0                       0
 Entered Stor2E with KNTT1,2                     468                  130044
 Leave Stor2X
 Entering PrmDigJobTyp =                      20
 LenSav and NKeep                       0                       0
 Entered Stor2E with KNTT1,2                     482                  130032
 Leave Stor2X
 Entering PrmDigJobTyp =                      20
 LenSav and NKeep                       0                       0
 Entered Stor2E with KNTT1,2                     498                  130022
 Leave Stor2X
 Entering PrmDigJobTyp =                      20
 LenSav and NKeep                       0                       0
 Entered Stor2E with KNTT1,2                     510                  130014
 Leave Stor2X
 Entering PrmDigJobTyp =                      20
 LenSav and NKeep                       0                       0
 Entered Stor2E with KNTT1,2                     510                  130010
 Leave Stor2X
 Entering PrmDigJobTyp =                      20
 LenSav and NKeep                       0                       0
 Entered Stor2E with KNTT1,2                     526                  130002
 Leave Stor2X
 Entering PrmDigJobTyp =                      20
 LenSav and NKeep                       0                       0
 Entered Stor2E with KNTT1,2                     546                  129988
 Leave Stor2X
 Entering PrmDigJobTyp =                      20
 LenSav and NKeep                       0                       0
 Entered Stor2E with KNTT1,2                     546                  129986
 Leave Stor2X
 Entering PrmDigJobTyp =                      20
 LenSav and NKeep                       0                       0
 Entered Stor2E with KNTT1,2                     552                  129980
 Leave Stor2X
 Entering PrmDigJobTyp =                      20
 LenSav and NKeep                       0                       0
 Entered Stor2E with KNTT1,2                     552                  129950
 Leave Stor2X
 Entering PrmDigJobTyp =                      20
 LenSav and NKeep                       0                       0
 Entered Stor2E with KNTT1,2                     552                  129920
 Leave Stor2X
 Entering PrmDigJobTyp =                      20
 LenSav and NKeep                       0                       0
 Entered Stor2E with KNTT1,2                     552                  129890
 Leave Stor2X
 Entering PrmDigJobTyp =                      20
 LenSav and NKeep                       0                       0
 Entered Stor2E with KNTT1,2                     552                  129860
 Leave Stor2X
 Entering PrmDigJobTyp =                      20
 LenSav and NKeep                       0                       0
 Entered Stor2E with KNTT1,2                     552                  129830
 Leave Stor2X
 Entering PrmDigJobTyp =                      20
 LenSav and NKeep                       0                       0
 Entered Stor2E with KNTT1,2                     552                  129820
 Leave Stor2X
 Entering PrmDigJobTyp =                      20
 LenSav and NKeep                       0                       0
 Entered Stor2E with KNTT1,2                     580                  129800
 Leave Stor2X
 Entering PrmDigJobTyp =                      20
 LenSav and NKeep                       0                       0
 Entered Stor2E with KNTT1,2                     610                  129782
 Leave Stor2X
 Entering PrmDigJobTyp =                      20
 LenSav and NKeep                       0                       0
 Entered Stor2E with KNTT1,2                     640                  129764
 Leave Stor2X
 Entering PrmDigJobTyp =                      20
 LenSav and NKeep                       0                       0
 Entered Stor2E with KNTT1,2                     672                  129748
 Leave Stor2X
 Entering PrmDigJobTyp =                      20
 LenSav and NKeep                       0                       0
 Entered Stor2E with KNTT1,2                     680                  129740
 Leave Stor2X
 Entering PrmDigJobTyp =                      20
 LenSav and NKeep                       0                       0
 Entered Stor2E with KNTT1,2                     702                  129726
 Leave Stor2X
 Entering PrmDigJobTyp =                      20
 LenSav and NKeep                       0                       0
 Entered Stor2E with KNTT1,2                     720                  129716
 Leave Stor2X
 Entering PrmDigJobTyp =                      20
 LenSav and NKeep                       0                       0
 Entered Stor2E with KNTT1,2                     760                  129696
 Leave Stor2X
 Entering PrmDigJobTyp =                      20
 LenSav and NKeep                       0                       0
 Entered Stor2E with KNTT1,2                     760                  129692
 Leave Stor2X
 Entering PrmDigJobTyp =                      20
 LenSav and NKeep                       0                       0
 Entered Stor2E with KNTT1,2                     798                  129670
 Leave Stor2X
 Entering PrmDigJobTyp =                      20
 LenSav and NKeep                       0                       0
 Entered Stor2E with KNTT1,2                     820                  129656
 Leave Stor2X
 Entering PrmDigJobTyp =                      20
 LenSav and NKeep                       0                       0
 Entered Stor2E with KNTT1,2                     852                  129640
 Leave Stor2X
 Entering PrmDigJobTyp =                      20
 LenSav and NKeep                       0                       0
 Entered Stor2E with KNTT1,2                     896                  129612
 Leave Stor2X
 Entering PrmDigJobTyp =                      20
 LenSav and NKeep                       0                       0
 Entered Stor2E with KNTT1,2                     896                  129590
 Leave Stor2X
 Entering PrmDigJobTyp =                      20
 LenSav and NKeep                       0                       0
 Entered Stor2E with KNTT1,2                     896                  129572
 Leave Stor2X
 Entering PrmDigJobTyp =                      20
 LenSav and NKeep                       0                       0
 Entered Stor2E with KNTT1,2                     918                  129558
 Leave Stor2X
 Entering PrmDigJobTyp =                      20
 LenSav and NKeep                       0                       0
 Entered Stor2E with KNTT1,2                     928                  129552
 Leave Stor2X
 Entering PrmDigJobTyp =                      20
 LenSav and NKeep                       0                       0
 Entered Stor2E with KNTT1,2                     936                  129544
 Leave Stor2X
 Entering PrmDigJobTyp =                      20
 LenSav and NKeep                       0                       0
 Entered Stor2E with KNTT1,2                     948                  129540
 Leave Stor2X
 Entering PrmDigJobTyp =                      20
 LenSav and NKeep                       0                       0
 Entered Stor2E with KNTT1,2                     964                  129532
 Leave Stor2X
 Entering PrmDigJobTyp =                      20
 LenSav and NKeep                       0                       0
 Entered Stor2E with KNTT1,2                     968                  129524
 Leave Stor2X
 Entering PrmDigJobTyp =                      20
 LenSav and NKeep                       0                       0
 Entered Stor2E with KNTT1,2                     988                  129512
 Leave Stor2X
 Entering PrmDigJobTyp =                      20
 LenSav and NKeep                       0                       0
 Entered Stor2E with KNTT1,2                     990                  129508
 Leave Stor2X
 Entering PrmDigJobTyp =                      20
 LenSav and NKeep                       0                       0
 Entered Stor2E with KNTT1,2                     990                  129470
 Leave Stor2X
 Entering PrmDigJobTyp =                      20
 LenSav and NKeep                       0                       0
 Entered Stor2E with KNTT1,2                     990                  129468
 Leave Stor2X
 Entering PrmDigJobTyp =                      20
 LenSav and NKeep                       0                       0
 Entered Stor2E with KNTT1,2                    1022                  129448
 Leave Stor2X
 Entering PrmDigJobTyp =                      20
 LenSav and NKeep                       0                       0
 Entered Stor2E with KNTT1,2                    1034                  129444
 Leave Stor2X
 Entering PrmDigJobTyp =                      20
 LenSav and NKeep                       0                       0
 Entered Stor2E with KNTT1,2                    1042                  129436
 Leave Stor2X
 Entering PrmDigJobTyp =                      20
 LenSav and NKeep                       0                       0
 Entered Stor2E with KNTT1,2                    1058                  129428
 Leave Stor2X
 Entering PrmDigJobTyp =                      20
 LenSav and NKeep                       0                       0
 Entered Stor2E with KNTT1,2                    1070                  129428
 Leave Stor2X
 Entering PrmDigJobTyp =                      20
 LenSav and NKeep                       0                       0
 Entered Stor2E with KNTT1,2                    1086                  129412
 Leave Stor2X
 Entering PrmDigJobTyp =                      20
 LenSav and NKeep                       0                       0
 Entered Stor2E with KNTT1,2                    1094                  129412
 Leave Stor2X
 Entering PrmDigJobTyp =                      20
 LenSav and NKeep                       0                       0
 Entered Stor2E with KNTT1,2                    1094                  129412
 Leave Stor2X
 Entering PrmDigJobTyp =                      20
 LenSav and NKeep                       0                       0
 Entered Stor2E with KNTT1,2                    1094                  129372
 Leave Stor2X
 Entering PrmDigJobTyp =                      20
 LenSav and NKeep                       0                       0
 Entered Stor2E with KNTT1,2                    1130                  129356
 Leave Stor2X
 Entering PrmDigJobTyp =                      20
 LenSav and NKeep                       0                       0
 Entered Stor2E with KNTT1,2                    1142                  129352
 Leave Stor2X
 Entering PrmDigJobTyp =                      20
 LenSav and NKeep                       0                       0
 Entered Stor2E with KNTT1,2                    1154                  129348
 Leave Stor2X
 Entering PrmDigJobTyp =                      20
 LenSav and NKeep                       0                       0
 Entered Stor2E with KNTT1,2                    1170                  129340
 Leave Stor2X
 Entering PrmDigJobTyp =                      20
 LenSav and NKeep                       0                       0
 Entered Stor2E with KNTT1,2                    1178                  129336
 Leave Stor2X
 Entering PrmDigJobTyp =                      20
 LenSav and NKeep                       0                       0
 Entered Stor2E with KNTT1,2                    1184                  129328
 Leave Stor2X
 Entering PrmDigJobTyp =                      20
 LenSav and NKeep                       0                       0
 Entered Stor2E with KNTT1,2                    1194                  129324
 Leave Stor2X
 Entering PrmDigJobTyp =                      20
 LenSav and NKeep                       0                       0
 Entered Stor2E with KNTT1,2                    1194                  129320
 Leave Stor2X
 Entering PrmDigJobTyp =                      20
 LenSav and NKeep                       0                       0
 Entered Stor2E with KNTT1,2                    1198                  129316
 Leave Stor2X
 Entering PrmDigJobTyp =                      20
 LenSav and NKeep                       0                       0
 Entered Stor2E with KNTT1,2                    1198                  129316
 Leave Stor2X
 Entering PrmDigJobTyp =                      20
 LenSav and NKeep                       0                       0
 Entered Stor2E with KNTT1,2                    1198                  129316
 Leave Stor2X
 Entering PrmDigJobTyp =                      20
 LenSav and NKeep                       0                       0
 Entered Stor2E with KNTT1,2                    1198                  129296
 Leave Stor2X
 Entering PrmDigJobTyp =                      20
 LenSav and NKeep                       0                       0
 Entered Stor2E with KNTT1,2                    1216                  129288
 Leave Stor2X
 Entering PrmDigJobTyp =                      20
 LenSav and NKeep                       0                       0
 Entered Stor2E with KNTT1,2                    1224                  129288
 Leave Stor2X
 Entering PrmDigJobTyp =                      20
 LenSav and NKeep                       0                       0
 Entered Stor2E with KNTT1,2                    1228                  129284
 Leave Stor2X
 Entering PrmDigJobTyp =                      20
 LenSav and NKeep                       0                       0
 Entered Stor2E with KNTT1,2                    1236                  129280
 Leave Stor2X
 Entering PrmDigJobTyp =                      20
 LenSav and NKeep                       0                       0
 Entered Stor2E with KNTT1,2                    1242                  129280
 Leave Stor2X
 Entering PrmDigJobTyp =                      20
 LenSav and NKeep                       0                       0
 Entered Stor2E with KNTT1,2                    1242                  129280
 Leave Stor2X
 Entering PrmDigJobTyp =                      20
 LenSav and NKeep                       0                       0
 Entered Stor2E with KNTT1,2                    1246                  129280
 Leave Stor2X
 Entering PrmDigJobTyp =                      20
 LenSav and NKeep                       0                       0
 Entered Stor2E with KNTT1,2                    1246                  129280
 Leave Stor2X
 In PrSumR
 Called IWRITE
         1517 integrals produced for a total of         1517.
 ExpMin= 3.16D-02 ExpMax= 1.00D+03 ExpMxC= 1.00D+01 IAcc=3 IRadAn=         5 AccDes= 0.00D+00
 Harris functional with IExCor=  205 and IRadAn=       5 diagonalized for initial guess.
 HarFok:  IExCor=  205 AccDes= 0.00D+00 IRadAn=         5 IDoV= 1 UseB2=F ITyADJ=14
 ICtDFT=  3500011 ScaDFX=  1.000000  1.000000  1.000000  1.000000
 FoFCou: FMM=F IPFlag=           0 FMFlag=      100000 FMFlg1=           0
         NFxFlg=           0 DoJE=T BraDBF=F KetDBF=T FulRan=T
         wScrn=  0.000000 ICntrl=     500 IOpCl=  0 I1Cent=   200000004 NGrid=           0
         NMat0=    1 NMatS0=      1 NMatT0=    0 NMatD0=    1 NMtDS0=    0 NMtDT0=    0
 Petite list used in FoFCou.
 Mixing orbitals, IMix= 3 IMixAn=  0 NRI=2 NE=   10 Coef=  7.07106781D-01  7.07106781D-01
 Also mixing orbitals    10 and    12 Coef=  3.82683432D-01  9.23879533D-01
 Initial guess <Sx>= 0.0000 <Sy>= 0.2500 <Sz>= 0.1464 <S**2>= 0.7197 S= 0.4847
 Two-electron integrals will be kept in memory, NGetB=      152788.
 Requested convergence on RMS density matrix=1.00D-08 within 128 cycles.
 Requested convergence on MAX density matrix=1.00D-06.
 Requested convergence on             energy=1.00D-06.
 No special actions if energy rises.
 ************************************************
 *READING THE YAODEN.PDM FILE TO GET NEW DENSITY*
 ************************************************
 EnCoef did    48 forward-backward iterations
 EnCoef did    43 forward-backward iterations
 EnCoef did   100 forward-backward iterations
 EnCoef did   100 forward-backward iterations
 EnCoef did   100 forward-backward iterations
 EnCoef did   100 forward-backward iterations
 EnCoef did   100 forward-backward iterations
 EnCoef did   100 forward-backward iterations
 Rare condition: small coef for last iteration: -0.444D-15
 EnCoef did    39 forward-backward iterations
 EnCoef did   100 forward-backward iterations
 EnCoef did   100 forward-backward iterations
 Rare condition: small coef for last iteration: -0.888D-15
 EnCoef did    39 forward-backward iterations
 EnCoef did   100 forward-backward iterations
 EnCoef did   100 forward-backward iterations
 Rare condition: small coef for last iteration: -0.666D-15
 EnCoef did    39 forward-backward iterations
 Rare condition: small coef for last iteration:  0.888D-15
 EnCoef did    39 forward-backward iterations
 Matrix for removal  3 Erem= -2.42175977493792     Crem= 0.000D+00
 SCF Done:  E(GHF) =  -5.10950348446     A.U. after   31 cycles
            NFock= 31  Conv=0.30D-08     -V/T= 2.0572
 <Sx>=-0.8734 <Sy>=-0.4388 <Sz>=-0.2016 <S**2>= 1.9960 S= 0.9987
 <L.S>= 0.000000000000E+00
 Range of M.O.s used for correlation:     1    10
 NBasis=    10 NAE=    10 NBE=     0 NFC=     0 NFV=     0
 NROrb=     20 NOA=    10 NOB=     0 NVA=    10 NVB=     0
 jaja DoHack is true or false? T
 jaja in hckghf.F, NBasis=                      10
 jaja in hckGHF/FixOG, LC =                      800
 jaja in hckGHF/FixOG, IRwC=                      548
 bfr conversion (real):
                 1             2             3             4             5 
      1a -0.164244D-01 -0.554319D-02  0.348048D-01 -0.892941D-02 -0.553671D-01
      1b  0.208361D-01 -0.564713D-02 -0.442041D-01 -0.965688D-02  0.706764D-01
      2a -0.100938D+00  0.122344D+00  0.167924D+00  0.225227D+00 -0.176939D+00
      2b  0.136266D+00  0.865687D-01 -0.229698D+00  0.161942D+00  0.246213D+00
      3a -0.101365D+00  0.122888D+00  0.169104D+00  0.226992D+00 -0.178231D+00
      3b  0.136841D+00  0.869520D-01 -0.231314D+00  0.163215D+00  0.248030D+00
      4a -0.145415D+00  0.211717D+00  0.909200D-01  0.147820D+00  0.128393D+00
      4b  0.198920D+00  0.153094D+00 -0.129832D+00  0.111158D+00 -0.171019D+00
      5a -0.145183D+00  0.211222D+00  0.913797D-01  0.148316D+00  0.128482D+00
      5b  0.198585D+00  0.152720D+00 -0.130446D+00  0.111509D+00 -0.171135D+00
      6a -0.144288D+00  0.210344D+00 -0.961144D-01 -0.151661D+00  0.123082D+00
      6b  0.199198D+00  0.154002D+00  0.127205D+00 -0.106626D+00 -0.174835D+00
      7a -0.144535D+00  0.210852D+00 -0.956713D-01 -0.151174D+00  0.122999D+00
      7b  0.199522D+00  0.154358D+00  0.126580D+00 -0.106262D+00 -0.174713D+00
      8a -0.989821D-01  0.120641D+00 -0.168068D+00 -0.225302D+00 -0.181060D+00
      8b  0.138472D+00  0.902347D-01  0.232023D+00 -0.165682D+00  0.246093D+00
      9a -0.985670D-01  0.120108D+00 -0.166893D+00 -0.223547D+00 -0.179728D+00
      9b  0.137889D+00  0.898345D-01  0.230404D+00 -0.164394D+00  0.244302D+00
     10a -0.147399D-01 -0.701833D-02 -0.312839D-01  0.118225D-01 -0.500588D-01
     10b  0.219891D-01 -0.349237D-02  0.466140D-01  0.543337D-02  0.743129D-01
                 6             7             8             9            10 
      1a -0.785028D-02  0.616272D-01 -0.320479D-02 -0.421518D+00  0.419653D+00
      1b -0.100652D-01 -0.790141D-01 -0.605063D-02  0.546425D+00 -0.543988D+00
      2a  0.267472D+00  0.115137D+00  0.192447D+00  0.823861D-01 -0.867537D-01
      2b  0.195619D+00 -0.163277D+00  0.142807D+00 -0.106319D+00  0.112928D+00
      3a  0.269514D+00  0.115073D+00  0.192601D+00  0.824086D-01 -0.864683D-01
      3b  0.197127D+00 -0.163229D+00  0.142941D+00 -0.106375D+00  0.112531D+00
      4a -0.161615D+00 -0.223572D+00 -0.302229D+00 -0.187926D-01  0.358130D-01
      4b -0.113366D+00  0.309409D+00 -0.221032D+00  0.227604D-01 -0.479959D-01
      5a -0.161874D+00 -0.223140D+00 -0.301517D+00 -0.212256D-01  0.372957D-01
      5b -0.113551D+00  0.308827D+00 -0.220520D+00  0.260019D-01 -0.498307D-01
      6a -0.158001D+00  0.225195D+00  0.302536D+00 -0.179851D-01 -0.355992D-01
      6b -0.119209D+00 -0.307420D+00  0.219031D+00  0.282355D-01  0.510001D-01
      7a -0.157745D+00  0.225616D+00  0.303242D+00 -0.156717D-01 -0.343251D-01
      7b -0.119019D+00 -0.308010D+00  0.219551D+00  0.249116D-01  0.490215D-01
      8a  0.270440D+00 -0.119986D+00 -0.195152D+00  0.750603D-01  0.796406D-01
      8b  0.195774D+00  0.159865D+00 -0.139214D+00 -0.111440D+00 -0.117237D+00
      9a  0.268378D+00 -0.120012D+00 -0.194978D+00  0.750133D-01  0.799282D-01
      9b  0.194297D+00  0.159940D+00 -0.139110D+00 -0.111401D+00 -0.117632D+00
     10a -0.118281D-01 -0.560970D-01  0.660297D-02 -0.386169D+00 -0.384439D+00
     10b -0.425397D-02  0.828003D-01  0.108617D-02  0.570790D+00  0.568260D+00
                11            12            13            14            15 
      1a  0.551227D+00 -0.551362D+00 -0.262752D-02 -0.813991D-02  0.237843D-02
      1b  0.425248D+00 -0.425315D+00  0.389013D-02 -0.613332D-02 -0.347740D-02
      2a -0.652156D-01  0.667787D-01 -0.335340D+00 -0.453965D+00  0.566878D+00
      2b -0.503846D-01  0.514390D-01  0.459560D+00 -0.329706D+00 -0.778131D+00
      3a -0.616176D-01  0.619860D-01  0.347778D+00  0.471995D+00 -0.578670D+00
      3b -0.475520D-01  0.477987D-01 -0.476684D+00  0.342863D+00  0.794396D+00
      4a  0.152236D-02 -0.732044D-02 -0.525428D+00 -0.725208D+00  0.345666D+00
      4b  0.145000D-02 -0.537179D-02  0.721286D+00 -0.527650D+00 -0.476353D+00
      5a  0.178670D-01 -0.222941D-01  0.527955D+00  0.728818D+00 -0.326251D+00
      5b  0.139932D-01 -0.169880D-01 -0.724782D+00  0.530297D+00  0.449730D+00
      6a  0.188574D-01  0.230950D-01 -0.527565D+00 -0.728541D+00 -0.327806D+00
      6b  0.125563D-01  0.158260D-01  0.725049D+00 -0.530701D+00  0.448666D+00
      7a  0.184386D-02  0.739358D-02  0.525014D+00  0.724914D+00  0.347178D+00
      7b  0.983582D-03  0.526568D-02 -0.721570D+00  0.528080D+00 -0.475319D+00
      8a -0.643835D-01 -0.647334D-01 -0.346793D+00 -0.471298D+00 -0.578233D+00
      8b -0.435393D-01 -0.438129D-01  0.477358D+00 -0.343881D+00  0.794695D+00
      9a -0.681944D-01 -0.696874D-01  0.334316D+00  0.453241D+00  0.566375D+00
      9b -0.460630D-01 -0.472191D-01 -0.460261D+00  0.330765D+00 -0.778475D+00
     10a  0.575833D+00  0.575936D+00  0.290069D-02  0.832919D-02  0.258298D-02
     10b  0.389550D+00  0.389663D+00 -0.370325D-02  0.585664D-02 -0.333746D-02
                16            17            18            19            20 
      1a -0.641497D-02  0.915074D-03  0.224773D-02 -0.318500D-02  0.704512D-02
      1b -0.481928D-02 -0.130904D-02  0.167766D-02  0.454819D-02  0.525431D-02
      2a -0.774847D+00 -0.602930D+00 -0.831713D+00  0.395160D+00 -0.548114D+00
      2b -0.563699D+00  0.828715D+00 -0.605874D+00 -0.543631D+00 -0.399662D+00
      3a  0.791785D+00  0.598885D+00  0.826042D+00 -0.379118D+00  0.525600D+00
      3b  0.576079D+00 -0.823185D+00  0.601763D+00  0.521556D+00  0.383242D+00
      4a -0.480866D+00  0.375301D+00  0.509928D+00 -0.659324D+00  0.902796D+00
      4b -0.351209D+00 -0.514063D+00  0.370191D+00  0.905960D+00  0.657522D+00
      5a  0.454094D+00 -0.401144D+00 -0.545397D+00  0.651955D+00 -0.892805D+00
      5b  0.331752D+00  0.549603D+00 -0.396044D+00 -0.895868D+00 -0.650269D+00
      6a  0.455155D+00  0.399781D+00  0.544466D+00  0.652322D+00 -0.893050D+00
      6b  0.330203D+00 -0.550536D+00  0.397404D+00 -0.895617D+00 -0.649911D+00
      7a -0.481895D+00 -0.373896D+00 -0.508969D+00 -0.659663D+00  0.903022D+00
      7b -0.349704D+00  0.515024D+00 -0.371592D+00  0.905728D+00  0.657191D+00
      8a  0.791457D+00 -0.599434D+00 -0.826392D+00 -0.379916D+00  0.526132D+00
      8b  0.576559D+00  0.822809D+00 -0.601250D+00  0.521011D+00  0.382464D+00
      9a -0.774475D+00  0.603453D+00  0.832048D+00  0.395996D+00 -0.548672D+00
      9b -0.564244D+00 -0.828356D+00  0.605386D+00 -0.543059D+00 -0.398846D+00
     10a -0.655109D-02 -0.965723D-03 -0.228541D-02 -0.335358D-02  0.715943D-02
     10b -0.462032D-02  0.127439D-02 -0.162258D-02  0.443286D-02  0.508722D-02
 bfr conversion (imaginary):
                 1             2             3             4             5 
      1a  0.774807D-02 -0.495856D-03 -0.164346D-01 -0.979085D-03  0.263433D-01
      1b -0.402615D-03 -0.217567D-02  0.842753D-03 -0.356558D-02 -0.138554D-02
      2a  0.501025D-01 -0.574600D-03 -0.842626D-01 -0.101338D-05  0.903425D-01
      2b -0.673615D-03  0.446590D-01  0.466221D-03  0.826293D-01 -0.399715D-05
      3a  0.503138D-01 -0.577675D-03 -0.848551D-01  0.000000D+00  0.910081D-01
      3b -0.676820D-03  0.448575D-01  0.469125D-03  0.832773D-01  0.000000D+00
      4a  0.729692D-01  0.000000D+00 -0.472763D-01  0.147373D-02 -0.632438D-01
      4b -0.398293D-03  0.775728D-01 -0.945424D-03  0.546670D-01  0.166408D-02
      5a  0.728475D-01 -0.487812D-05 -0.475027D-01  0.147187D-02 -0.632871D-01
      5b -0.401363D-03  0.773900D-01 -0.941049D-03  0.548484D-01  0.166589D-02
      6a  0.729542D-01  0.575388D-03  0.469383D-01  0.732963D-03 -0.639223D-01
      6b  0.372934D-05  0.772375D-01 -0.120192D-02 -0.554233D-01 -0.771908D-03
      7a  0.730742D-01  0.571867D-03  0.467099D-01  0.737248D-03 -0.638782D-01
      7b  0.000000D+00  0.774226D-01 -0.120504D-02 -0.552435D-01 -0.770709D-03
      8a  0.505979D-01  0.907246D-03  0.849786D-01 -0.111410D-02  0.906755D-01
      8b  0.401611D-03  0.444673D-01  0.000000D+00 -0.829868D-01 -0.127681D-02
      9a  0.503852D-01  0.902713D-03  0.843855D-01 -0.110644D-02  0.900144D-01
      9b  0.399563D-03  0.442708D-01  0.000000D+00 -0.823405D-01 -0.126349D-02
     10a  0.794891D-02  0.478857D-03  0.168543D-01 -0.927969D-03  0.269677D-01
     10b  0.359805D-03 -0.243181D-02  0.750801D-03  0.406286D-02  0.101088D-02
                 6             7             8             9            10 
      1a -0.132599D-02 -0.293564D-01 -0.112872D-02  0.208170D+00 -0.207247D+00
      1b -0.326135D-02  0.137168D-02 -0.150215D-02 -0.156600D-01  0.155998D-01
      2a  0.603015D-03 -0.595832D-01  0.105087D-02 -0.405418D-01  0.429857D-01
      2b  0.981515D-01 -0.860189D-03  0.707973D-01  0.315901D-02 -0.312875D-02
      3a  0.612168D-03 -0.595628D-01  0.105773D-02 -0.405611D-01  0.428365D-01
      3b  0.989019D-01 -0.869134D-03  0.708557D-01  0.315427D-02 -0.312368D-02
      4a  0.109819D-02  0.113386D+00 -0.669866D-03  0.879717D-02 -0.181613D-01
      4b -0.588806D-01  0.000000D+00 -0.110899D+00 -0.102541D-02  0.100993D-02
      5a  0.109880D-02  0.113172D+00 -0.671188D-03  0.100252D-01 -0.188672D-01
      5b -0.589752D-01  0.325028D-05 -0.110638D+00 -0.109791D-02  0.108288D-02
      6a -0.146145D-02 -0.112928D+00 -0.289188D-05  0.103688D-01  0.190471D-01
      6b -0.583014D-01  0.926068D-03  0.110816D+00  0.337663D-03 -0.331326D-03
      7a -0.146027D-02 -0.113144D+00  0.000000D+00  0.912813D-02  0.183191D-01
      7b -0.582073D-01  0.924574D-03  0.111075D+00  0.357197D-03 -0.350787D-03
      8a  0.000000D+00  0.589795D-01  0.628740D-03 -0.413404D-01 -0.435605D-01
      8b  0.990630D-01 -0.135296D-02 -0.712996D-01 -0.101157D-03  0.989256D-04
      9a  0.450072D-05  0.590045D-01  0.622236D-03 -0.413236D-01 -0.437094D-01
      9b  0.983090D-01 -0.134420D-02 -0.712377D-01 -0.107247D-03  0.104973D-03
     10a  0.130368D-02  0.300130D-01 -0.111787D-02  0.211918D+00  0.210980D+00
     10b -0.395341D-02  0.112937D-02  0.209351D-02  0.000000D+00  0.000000D+00
                11            12            13            14            15 
      1a  0.158143D-01 -0.157946D-01  0.140560D-02 -0.637377D-04 -0.125906D-02
      1b  0.210008D+00 -0.210047D+00  0.614463D-04 -0.299640D-02 -0.459321D-04
      2a -0.189321D-02  0.189077D-02  0.168218D+00  0.182852D-03 -0.284750D+00
      2b -0.248536D-01  0.254325D-01 -0.288286D-03 -0.166037D+00  0.211010D-03
      3a -0.177282D-02  0.177064D-02 -0.174481D+00 -0.171519D-03  0.290697D+00
      3b -0.234770D-01  0.236125D-01  0.281340D-03  0.172636D+00 -0.198146D-03
      4a  0.126928D-03 -0.126584D-03  0.263943D+00  0.625503D-05 -0.174198D+00
      4b  0.608162D-03 -0.276067D-02 -0.181891D-03 -0.265325D+00 -0.283233D-03
      5a  0.575930D-03 -0.575375D-03 -0.265221D+00  0.000000D+00  0.164454D+00
      5b  0.682845D-02 -0.847174D-02  0.176736D-03  0.266648D+00  0.296427D-03
      6a -0.606337D-04  0.605722D-04  0.265268D+00 -0.183279D-03  0.164267D+00
      6b  0.698080D-02  0.859497D-02  0.000000D+00 -0.266599D+00 -0.408449D-03
      7a -0.796956D-04  0.795743D-04 -0.263993D+00  0.188624D-03 -0.174017D+00
      7b  0.657616D-03  0.277193D-02 -0.600617D-05  0.265274D+00  0.401898D-03
      8a  0.484329D-05 -0.482307D-05  0.174600D+00 -0.290148D-03  0.290750D+00
      8b -0.239024D-01 -0.240352D-01  0.165042D-03 -0.172514D+00  0.000000D+00
      9a  0.212810D-04 -0.212632D-04 -0.168341D+00  0.296943D-03 -0.284810D+00
      9b -0.253118D-01 -0.258800D-01 -0.176159D-03  0.165910D+00 -0.169143D-04
     10a  0.000000D+00  0.000000D+00 -0.137279D-02 -0.616666D-04 -0.123449D-02
     10b  0.213793D+00  0.213827D+00  0.623719D-04  0.302963D-02  0.467818D-04
                16            17            18            19            20 
      1a -0.459798D-04 -0.475697D-03  0.127826D-04  0.165308D-02  0.384609D-04
      1b -0.236025D-02 -0.112930D-04  0.826042D-03  0.378262D-04  0.258846D-02
      2a  0.168746D-04  0.303203D+00 -0.221329D-03 -0.198844D+00 -0.230583D-03
      2b -0.283487D+00  0.000000D+00 -0.304360D+00 -0.143319D-03 -0.200591D+00
      3a  0.000000D+00 -0.301178D+00  0.226134D-03  0.190770D+00  0.220088D-03
      3b  0.289689D+00 -0.660867D-05  0.302286D+00  0.136480D-03  0.192351D+00
      4a -0.407254D-03 -0.188193D+00 -0.249901D-03  0.331441D+00  0.149928D-03
      4b -0.176051D+00  0.392227D-03  0.186494D+00  0.000000D+00  0.330326D+00
      5a  0.413719D-03  0.201195D+00  0.235751D-03 -0.327747D+00 -0.155104D-03
      5b  0.166258D+00 -0.387687D-03 -0.199475D+00 -0.702628D-05 -0.326673D+00
      6a -0.288730D-03 -0.201359D+00  0.380735D-03 -0.327703D+00  0.683383D-05
      6b  0.166444D+00 -0.230035D-03  0.199311D+00  0.159209D-03 -0.326715D+00
      7a  0.274910D-03  0.188362D+00 -0.385445D-03  0.331401D+00  0.000000D+00
      7b -0.176231D+00  0.244757D-03 -0.186326D+00 -0.153899D-03  0.330366D+00
      8a  0.217638D-03  0.301112D+00  0.631186D-05  0.190674D+00 -0.132768D-03
      8b  0.289632D+00 -0.242483D-03 -0.302348D+00 -0.225044D-03  0.192444D+00
      9a -0.229850D-03 -0.303140D+00  0.000000D+00 -0.198743D+00  0.139522D-03
      9b -0.283422D+00  0.237462D-03  0.304418D+00  0.235631D-03 -0.200689D+00
     10a  0.441974D-04  0.469614D-03  0.121795D-04  0.163282D-02 -0.372816D-04
     10b -0.238414D-02 -0.116633D-04 -0.832657D-03 -0.385891D-04  0.260854D-02
 afr conversion (alpha, real):
                 1             2             3             4             5 
      1  -0.164244D-01 -0.554319D-02  0.348048D-01 -0.892941D-02 -0.553671D-01
      2  -0.100938D+00  0.122344D+00  0.167924D+00  0.225227D+00 -0.176939D+00
      3  -0.101365D+00  0.122888D+00  0.169104D+00  0.226992D+00 -0.178231D+00
      4  -0.145415D+00  0.211717D+00  0.909200D-01  0.147820D+00  0.128393D+00
      5  -0.145183D+00  0.211222D+00  0.913797D-01  0.148316D+00  0.128482D+00
      6  -0.144288D+00  0.210344D+00 -0.961144D-01 -0.151661D+00  0.123082D+00
      7  -0.144535D+00  0.210852D+00 -0.956713D-01 -0.151174D+00  0.122999D+00
      8  -0.989821D-01  0.120641D+00 -0.168068D+00 -0.225302D+00 -0.181060D+00
      9  -0.985670D-01  0.120108D+00 -0.166893D+00 -0.223547D+00 -0.179728D+00
     10  -0.147399D-01 -0.701833D-02 -0.312839D-01  0.118225D-01 -0.500588D-01
                 6             7             8             9            10 
      1  -0.785028D-02  0.616272D-01 -0.320479D-02 -0.421518D+00  0.419653D+00
      2   0.267472D+00  0.115137D+00  0.192447D+00  0.823861D-01 -0.867537D-01
      3   0.269514D+00  0.115073D+00  0.192601D+00  0.824086D-01 -0.864683D-01
      4  -0.161615D+00 -0.223572D+00 -0.302229D+00 -0.187926D-01  0.358130D-01
      5  -0.161874D+00 -0.223140D+00 -0.301517D+00 -0.212256D-01  0.372957D-01
      6  -0.158001D+00  0.225195D+00  0.302536D+00 -0.179851D-01 -0.355992D-01
      7  -0.157745D+00  0.225616D+00  0.303242D+00 -0.156717D-01 -0.343251D-01
      8   0.270440D+00 -0.119986D+00 -0.195152D+00  0.750603D-01  0.796406D-01
      9   0.268378D+00 -0.120012D+00 -0.194978D+00  0.750133D-01  0.799282D-01
     10  -0.118281D-01 -0.560970D-01  0.660297D-02 -0.386169D+00 -0.384439D+00
                11            12            13            14            15 
      1   0.551227D+00 -0.551362D+00 -0.262752D-02 -0.813991D-02  0.237843D-02
      2  -0.652156D-01  0.667787D-01 -0.335340D+00 -0.453965D+00  0.566878D+00
      3  -0.616176D-01  0.619860D-01  0.347778D+00  0.471995D+00 -0.578670D+00
      4   0.152236D-02 -0.732044D-02 -0.525428D+00 -0.725208D+00  0.345666D+00
      5   0.178670D-01 -0.222941D-01  0.527955D+00  0.728818D+00 -0.326251D+00
      6   0.188574D-01  0.230950D-01 -0.527565D+00 -0.728541D+00 -0.327806D+00
      7   0.184386D-02  0.739358D-02  0.525014D+00  0.724914D+00  0.347178D+00
      8  -0.643835D-01 -0.647334D-01 -0.346793D+00 -0.471298D+00 -0.578233D+00
      9  -0.681944D-01 -0.696874D-01  0.334316D+00  0.453241D+00  0.566375D+00
     10   0.575833D+00  0.575936D+00  0.290069D-02  0.832919D-02  0.258298D-02
                16            17            18            19            20 
      1  -0.641497D-02  0.915074D-03  0.224773D-02 -0.318500D-02  0.704512D-02
      2  -0.774847D+00 -0.602930D+00 -0.831713D+00  0.395160D+00 -0.548114D+00
      3   0.791785D+00  0.598885D+00  0.826042D+00 -0.379118D+00  0.525600D+00
      4  -0.480866D+00  0.375301D+00  0.509928D+00 -0.659324D+00  0.902796D+00
      5   0.454094D+00 -0.401144D+00 -0.545397D+00  0.651955D+00 -0.892805D+00
      6   0.455155D+00  0.399781D+00  0.544466D+00  0.652322D+00 -0.893050D+00
      7  -0.481895D+00 -0.373896D+00 -0.508969D+00 -0.659663D+00  0.903022D+00
      8   0.791457D+00 -0.599434D+00 -0.826392D+00 -0.379916D+00  0.526132D+00
      9  -0.774475D+00  0.603453D+00  0.832048D+00  0.395996D+00 -0.548672D+00
     10  -0.655109D-02 -0.965723D-03 -0.228541D-02 -0.335358D-02  0.715943D-02
 afr conversion (alpha, imaginary):
                 1             2             3             4             5 
      1   0.774807D-02 -0.495856D-03 -0.164346D-01 -0.979085D-03  0.263433D-01
      2   0.501025D-01 -0.574600D-03 -0.842626D-01 -0.101338D-05  0.903425D-01
      3   0.503138D-01 -0.577675D-03 -0.848551D-01  0.000000D+00  0.910081D-01
      4   0.729692D-01  0.000000D+00 -0.472763D-01  0.147373D-02 -0.632438D-01
      5   0.728475D-01 -0.487812D-05 -0.475027D-01  0.147187D-02 -0.632871D-01
      6   0.729542D-01  0.575388D-03  0.469383D-01  0.732963D-03 -0.639223D-01
      7   0.730742D-01  0.571867D-03  0.467099D-01  0.737248D-03 -0.638782D-01
      8   0.505979D-01  0.907246D-03  0.849786D-01 -0.111410D-02  0.906755D-01
      9   0.503852D-01  0.902713D-03  0.843855D-01 -0.110644D-02  0.900144D-01
     10   0.794891D-02  0.478857D-03  0.168543D-01 -0.927969D-03  0.269677D-01
                 6             7             8             9            10 
      1  -0.132599D-02 -0.293564D-01 -0.112872D-02  0.208170D+00 -0.207247D+00
      2   0.603015D-03 -0.595832D-01  0.105087D-02 -0.405418D-01  0.429857D-01
      3   0.612168D-03 -0.595628D-01  0.105773D-02 -0.405611D-01  0.428365D-01
      4   0.109819D-02  0.113386D+00 -0.669866D-03  0.879717D-02 -0.181613D-01
      5   0.109880D-02  0.113172D+00 -0.671188D-03  0.100252D-01 -0.188672D-01
      6  -0.146145D-02 -0.112928D+00 -0.289188D-05  0.103688D-01  0.190471D-01
      7  -0.146027D-02 -0.113144D+00  0.000000D+00  0.912813D-02  0.183191D-01
      8   0.000000D+00  0.589795D-01  0.628740D-03 -0.413404D-01 -0.435605D-01
      9   0.450072D-05  0.590045D-01  0.622236D-03 -0.413236D-01 -0.437094D-01
     10   0.130368D-02  0.300130D-01 -0.111787D-02  0.211918D+00  0.210980D+00
                11            12            13            14            15 
      1   0.158143D-01 -0.157946D-01  0.140560D-02 -0.637377D-04 -0.125906D-02
      2  -0.189321D-02  0.189077D-02  0.168218D+00  0.182852D-03 -0.284750D+00
      3  -0.177282D-02  0.177064D-02 -0.174481D+00 -0.171519D-03  0.290697D+00
      4   0.126928D-03 -0.126584D-03  0.263943D+00  0.625503D-05 -0.174198D+00
      5   0.575930D-03 -0.575375D-03 -0.265221D+00  0.000000D+00  0.164454D+00
      6  -0.606337D-04  0.605722D-04  0.265268D+00 -0.183279D-03  0.164267D+00
      7  -0.796956D-04  0.795743D-04 -0.263993D+00  0.188624D-03 -0.174017D+00
      8   0.484329D-05 -0.482307D-05  0.174600D+00 -0.290148D-03  0.290750D+00
      9   0.212810D-04 -0.212632D-04 -0.168341D+00  0.296943D-03 -0.284810D+00
     10   0.000000D+00  0.000000D+00 -0.137279D-02 -0.616666D-04 -0.123449D-02
                16            17            18            19            20 
      1  -0.459798D-04 -0.475697D-03  0.127826D-04  0.165308D-02  0.384609D-04
      2   0.168746D-04  0.303203D+00 -0.221329D-03 -0.198844D+00 -0.230583D-03
      3   0.000000D+00 -0.301178D+00  0.226134D-03  0.190770D+00  0.220088D-03
      4  -0.407254D-03 -0.188193D+00 -0.249901D-03  0.331441D+00  0.149928D-03
      5   0.413719D-03  0.201195D+00  0.235751D-03 -0.327747D+00 -0.155104D-03
      6  -0.288730D-03 -0.201359D+00  0.380735D-03 -0.327703D+00  0.683383D-05
      7   0.274910D-03  0.188362D+00 -0.385445D-03  0.331401D+00  0.000000D+00
      8   0.217638D-03  0.301112D+00  0.631186D-05  0.190674D+00 -0.132768D-03
      9  -0.229850D-03 -0.303140D+00  0.000000D+00 -0.198743D+00  0.139522D-03
     10   0.441974D-04  0.469614D-03  0.121795D-04  0.163282D-02 -0.372816D-04
 afr conversion (beta, real):
                 1             2             3             4             5 
      1   0.208361D-01 -0.564713D-02 -0.442041D-01 -0.965688D-02  0.706764D-01
      2   0.136266D+00  0.865687D-01 -0.229698D+00  0.161942D+00  0.246213D+00
      3   0.136841D+00  0.869520D-01 -0.231314D+00  0.163215D+00  0.248030D+00
      4   0.198920D+00  0.153094D+00 -0.129832D+00  0.111158D+00 -0.171019D+00
      5   0.198585D+00  0.152720D+00 -0.130446D+00  0.111509D+00 -0.171135D+00
      6   0.199198D+00  0.154002D+00  0.127205D+00 -0.106626D+00 -0.174835D+00
      7   0.199522D+00  0.154358D+00  0.126580D+00 -0.106262D+00 -0.174713D+00
      8   0.138472D+00  0.902347D-01  0.232023D+00 -0.165682D+00  0.246093D+00
      9   0.137889D+00  0.898345D-01  0.230404D+00 -0.164394D+00  0.244302D+00
     10   0.219891D-01 -0.349237D-02  0.466140D-01  0.543337D-02  0.743129D-01
                 6             7             8             9            10 
      1  -0.100652D-01 -0.790141D-01 -0.605063D-02  0.546425D+00 -0.543988D+00
      2   0.195619D+00 -0.163277D+00  0.142807D+00 -0.106319D+00  0.112928D+00
      3   0.197127D+00 -0.163229D+00  0.142941D+00 -0.106375D+00  0.112531D+00
      4  -0.113366D+00  0.309409D+00 -0.221032D+00  0.227604D-01 -0.479959D-01
      5  -0.113551D+00  0.308827D+00 -0.220520D+00  0.260019D-01 -0.498307D-01
      6  -0.119209D+00 -0.307420D+00  0.219031D+00  0.282355D-01  0.510001D-01
      7  -0.119019D+00 -0.308010D+00  0.219551D+00  0.249116D-01  0.490215D-01
      8   0.195774D+00  0.159865D+00 -0.139214D+00 -0.111440D+00 -0.117237D+00
      9   0.194297D+00  0.159940D+00 -0.139110D+00 -0.111401D+00 -0.117632D+00
     10  -0.425397D-02  0.828003D-01  0.108617D-02  0.570790D+00  0.568260D+00
                11            12            13            14            15 
      1   0.425248D+00 -0.425315D+00  0.389013D-02 -0.613332D-02 -0.347740D-02
      2  -0.503846D-01  0.514390D-01  0.459560D+00 -0.329706D+00 -0.778131D+00
      3  -0.475520D-01  0.477987D-01 -0.476684D+00  0.342863D+00  0.794396D+00
      4   0.145000D-02 -0.537179D-02  0.721286D+00 -0.527650D+00 -0.476353D+00
      5   0.139932D-01 -0.169880D-01 -0.724782D+00  0.530297D+00  0.449730D+00
      6   0.125563D-01  0.158260D-01  0.725049D+00 -0.530701D+00  0.448666D+00
      7   0.983582D-03  0.526568D-02 -0.721570D+00  0.528080D+00 -0.475319D+00
      8  -0.435393D-01 -0.438129D-01  0.477358D+00 -0.343881D+00  0.794695D+00
      9  -0.460630D-01 -0.472191D-01 -0.460261D+00  0.330765D+00 -0.778475D+00
     10   0.389550D+00  0.389663D+00 -0.370325D-02  0.585664D-02 -0.333746D-02
                16            17            18            19            20 
      1  -0.481928D-02 -0.130904D-02  0.167766D-02  0.454819D-02  0.525431D-02
      2  -0.563699D+00  0.828715D+00 -0.605874D+00 -0.543631D+00 -0.399662D+00
      3   0.576079D+00 -0.823185D+00  0.601763D+00  0.521556D+00  0.383242D+00
      4  -0.351209D+00 -0.514063D+00  0.370191D+00  0.905960D+00  0.657522D+00
      5   0.331752D+00  0.549603D+00 -0.396044D+00 -0.895868D+00 -0.650269D+00
      6   0.330203D+00 -0.550536D+00  0.397404D+00 -0.895617D+00 -0.649911D+00
      7  -0.349704D+00  0.515024D+00 -0.371592D+00  0.905728D+00  0.657191D+00
      8   0.576559D+00  0.822809D+00 -0.601250D+00  0.521011D+00  0.382464D+00
      9  -0.564244D+00 -0.828356D+00  0.605386D+00 -0.543059D+00 -0.398846D+00
     10  -0.462032D-02  0.127439D-02 -0.162258D-02  0.443286D-02  0.508722D-02
 afr conversion (beta, imaginary):
                 1             2             3             4             5 
      1  -0.402615D-03 -0.217567D-02  0.842753D-03 -0.356558D-02 -0.138554D-02
      2  -0.673615D-03  0.446590D-01  0.466221D-03  0.826293D-01 -0.399715D-05
      3  -0.676820D-03  0.448575D-01  0.469125D-03  0.832773D-01  0.000000D+00
      4  -0.398293D-03  0.775728D-01 -0.945424D-03  0.546670D-01  0.166408D-02
      5  -0.401363D-03  0.773900D-01 -0.941049D-03  0.548484D-01  0.166589D-02
      6   0.372934D-05  0.772375D-01 -0.120192D-02 -0.554233D-01 -0.771908D-03
      7   0.000000D+00  0.774226D-01 -0.120504D-02 -0.552435D-01 -0.770709D-03
      8   0.401611D-03  0.444673D-01  0.000000D+00 -0.829868D-01 -0.127681D-02
      9   0.399563D-03  0.442708D-01  0.000000D+00 -0.823405D-01 -0.126349D-02
     10   0.359805D-03 -0.243181D-02  0.750801D-03  0.406286D-02  0.101088D-02
                 6             7             8             9            10 
      1  -0.326135D-02  0.137168D-02 -0.150215D-02 -0.156600D-01  0.155998D-01
      2   0.981515D-01 -0.860189D-03  0.707973D-01  0.315901D-02 -0.312875D-02
      3   0.989019D-01 -0.869134D-03  0.708557D-01  0.315427D-02 -0.312368D-02
      4  -0.588806D-01  0.000000D+00 -0.110899D+00 -0.102541D-02  0.100993D-02
      5  -0.589752D-01  0.325028D-05 -0.110638D+00 -0.109791D-02  0.108288D-02
      6  -0.583014D-01  0.926068D-03  0.110816D+00  0.337663D-03 -0.331326D-03
      7  -0.582073D-01  0.924574D-03  0.111075D+00  0.357197D-03 -0.350787D-03
      8   0.990630D-01 -0.135296D-02 -0.712996D-01 -0.101157D-03  0.989256D-04
      9   0.983090D-01 -0.134420D-02 -0.712377D-01 -0.107247D-03  0.104973D-03
     10  -0.395341D-02  0.112937D-02  0.209351D-02  0.000000D+00  0.000000D+00
                11            12            13            14            15 
      1   0.210008D+00 -0.210047D+00  0.614463D-04 -0.299640D-02 -0.459321D-04
      2  -0.248536D-01  0.254325D-01 -0.288286D-03 -0.166037D+00  0.211010D-03
      3  -0.234770D-01  0.236125D-01  0.281340D-03  0.172636D+00 -0.198146D-03
      4   0.608162D-03 -0.276067D-02 -0.181891D-03 -0.265325D+00 -0.283233D-03
      5   0.682845D-02 -0.847174D-02  0.176736D-03  0.266648D+00  0.296427D-03
      6   0.698080D-02  0.859497D-02  0.000000D+00 -0.266599D+00 -0.408449D-03
      7   0.657616D-03  0.277193D-02 -0.600617D-05  0.265274D+00  0.401898D-03
      8  -0.239024D-01 -0.240352D-01  0.165042D-03 -0.172514D+00  0.000000D+00
      9  -0.253118D-01 -0.258800D-01 -0.176159D-03  0.165910D+00 -0.169143D-04
     10   0.213793D+00  0.213827D+00  0.623719D-04  0.302963D-02  0.467818D-04
                16            17            18            19            20 
      1  -0.236025D-02 -0.112930D-04  0.826042D-03  0.378262D-04  0.258846D-02
      2  -0.283487D+00  0.000000D+00 -0.304360D+00 -0.143319D-03 -0.200591D+00
      3   0.289689D+00 -0.660867D-05  0.302286D+00  0.136480D-03  0.192351D+00
      4  -0.176051D+00  0.392227D-03  0.186494D+00  0.000000D+00  0.330326D+00
      5   0.166258D+00 -0.387687D-03 -0.199475D+00 -0.702628D-05 -0.326673D+00
      6   0.166444D+00 -0.230035D-03  0.199311D+00  0.159209D-03 -0.326715D+00
      7  -0.176231D+00  0.244757D-03 -0.186326D+00 -0.153899D-03  0.330366D+00
      8   0.289632D+00 -0.242483D-03 -0.302348D+00 -0.225044D-03  0.192444D+00
      9  -0.283422D+00  0.237462D-03  0.304418D+00  0.235631D-03 -0.200689D+00
     10  -0.238414D-02 -0.116633D-04 -0.832657D-03 -0.385891D-04  0.260854D-02
 jaja in hckghf.F, ISPECT =                     548
Spin block MO for GHF transformation
NOA =   10   NOB =   10
NVA =   10   NVB =   10
 NOAvA in Hack                     100
 jaja in tranN3.F, ISPECT =                     548
 in l802/tranN3.F, LSPECT =                      800
 NMat, NBtSiz,MDV                    8372                   16000
                133954722
 TranN3:  NGot= 134217728 NBasic=    263006 NTTT=       550 NMat=      8372.
 Defined bucket =                      51                   10000
 Defined bucket =                      52                   10000
 Defined bucket =                      53                   10000
 Defined bucket =                      55                   10000
 Defined bucket =                      57                   10000
 Defined bucket =                      58                   10000
 Defined bucket =                      60                   10000
 Defined bucket =                      72                   10000
 Defined bucket =                      73                   10000
 Defined bucket =                      74                   10000
 Defined bucket =                      75                   10000
 Defined bucket =                      76                   10000
 (IK/LS) integrals will be saved in memory.
 TrCghf made   2 passes through the AO integrals.
 jaja DoHack is true or false? F
 jaja in hckghf.F, NBasis=                      10
 jaja in hckGHF/FixOG, LC =                      800
 jaja in hckGHF/FixOG, IRwC=                      548
 bfr conversion (alpha, real):
                 1             2             3             4             5 
      1  -0.164244D-01 -0.554319D-02  0.348048D-01 -0.892941D-02 -0.553671D-01
      2  -0.100938D+00  0.122344D+00  0.167924D+00  0.225227D+00 -0.176939D+00
      3  -0.101365D+00  0.122888D+00  0.169104D+00  0.226992D+00 -0.178231D+00
      4  -0.145415D+00  0.211717D+00  0.909200D-01  0.147820D+00  0.128393D+00
      5  -0.145183D+00  0.211222D+00  0.913797D-01  0.148316D+00  0.128482D+00
      6  -0.144288D+00  0.210344D+00 -0.961144D-01 -0.151661D+00  0.123082D+00
      7  -0.144535D+00  0.210852D+00 -0.956713D-01 -0.151174D+00  0.122999D+00
      8  -0.989821D-01  0.120641D+00 -0.168068D+00 -0.225302D+00 -0.181060D+00
      9  -0.985670D-01  0.120108D+00 -0.166893D+00 -0.223547D+00 -0.179728D+00
     10  -0.147399D-01 -0.701833D-02 -0.312839D-01  0.118225D-01 -0.500588D-01
                 6             7             8             9            10 
      1  -0.785028D-02  0.616272D-01 -0.320479D-02 -0.421518D+00  0.419653D+00
      2   0.267472D+00  0.115137D+00  0.192447D+00  0.823861D-01 -0.867537D-01
      3   0.269514D+00  0.115073D+00  0.192601D+00  0.824086D-01 -0.864683D-01
      4  -0.161615D+00 -0.223572D+00 -0.302229D+00 -0.187926D-01  0.358130D-01
      5  -0.161874D+00 -0.223140D+00 -0.301517D+00 -0.212256D-01  0.372957D-01
      6  -0.158001D+00  0.225195D+00  0.302536D+00 -0.179851D-01 -0.355992D-01
      7  -0.157745D+00  0.225616D+00  0.303242D+00 -0.156717D-01 -0.343251D-01
      8   0.270440D+00 -0.119986D+00 -0.195152D+00  0.750603D-01  0.796406D-01
      9   0.268378D+00 -0.120012D+00 -0.194978D+00  0.750133D-01  0.799282D-01
     10  -0.118281D-01 -0.560970D-01  0.660297D-02 -0.386169D+00 -0.384439D+00
                11            12            13            14            15 
      1   0.551227D+00 -0.551362D+00 -0.262752D-02 -0.813991D-02  0.237843D-02
      2  -0.652156D-01  0.667787D-01 -0.335340D+00 -0.453965D+00  0.566878D+00
      3  -0.616176D-01  0.619860D-01  0.347778D+00  0.471995D+00 -0.578670D+00
      4   0.152236D-02 -0.732044D-02 -0.525428D+00 -0.725208D+00  0.345666D+00
      5   0.178670D-01 -0.222941D-01  0.527955D+00  0.728818D+00 -0.326251D+00
      6   0.188574D-01  0.230950D-01 -0.527565D+00 -0.728541D+00 -0.327806D+00
      7   0.184386D-02  0.739358D-02  0.525014D+00  0.724914D+00  0.347178D+00
      8  -0.643835D-01 -0.647334D-01 -0.346793D+00 -0.471298D+00 -0.578233D+00
      9  -0.681944D-01 -0.696874D-01  0.334316D+00  0.453241D+00  0.566375D+00
     10   0.575833D+00  0.575936D+00  0.290069D-02  0.832919D-02  0.258298D-02
                16            17            18            19            20 
      1  -0.641497D-02  0.915074D-03  0.224773D-02 -0.318500D-02  0.704512D-02
      2  -0.774847D+00 -0.602930D+00 -0.831713D+00  0.395160D+00 -0.548114D+00
      3   0.791785D+00  0.598885D+00  0.826042D+00 -0.379118D+00  0.525600D+00
      4  -0.480866D+00  0.375301D+00  0.509928D+00 -0.659324D+00  0.902796D+00
      5   0.454094D+00 -0.401144D+00 -0.545397D+00  0.651955D+00 -0.892805D+00
      6   0.455155D+00  0.399781D+00  0.544466D+00  0.652322D+00 -0.893050D+00
      7  -0.481895D+00 -0.373896D+00 -0.508969D+00 -0.659663D+00  0.903022D+00
      8   0.791457D+00 -0.599434D+00 -0.826392D+00 -0.379916D+00  0.526132D+00
      9  -0.774475D+00  0.603453D+00  0.832048D+00  0.395996D+00 -0.548672D+00
     10  -0.655109D-02 -0.965723D-03 -0.228541D-02 -0.335358D-02  0.715943D-02
 bfr conversion (alpha, imaginary):
                 1             2             3             4             5 
      1   0.774807D-02 -0.495856D-03 -0.164346D-01 -0.979085D-03  0.263433D-01
      2   0.501025D-01 -0.574600D-03 -0.842626D-01 -0.101338D-05  0.903425D-01
      3   0.503138D-01 -0.577675D-03 -0.848551D-01  0.000000D+00  0.910081D-01
      4   0.729692D-01  0.000000D+00 -0.472763D-01  0.147373D-02 -0.632438D-01
      5   0.728475D-01 -0.487812D-05 -0.475027D-01  0.147187D-02 -0.632871D-01
      6   0.729542D-01  0.575388D-03  0.469383D-01  0.732963D-03 -0.639223D-01
      7   0.730742D-01  0.571867D-03  0.467099D-01  0.737248D-03 -0.638782D-01
      8   0.505979D-01  0.907246D-03  0.849786D-01 -0.111410D-02  0.906755D-01
      9   0.503852D-01  0.902713D-03  0.843855D-01 -0.110644D-02  0.900144D-01
     10   0.794891D-02  0.478857D-03  0.168543D-01 -0.927969D-03  0.269677D-01
                 6             7             8             9            10 
      1  -0.132599D-02 -0.293564D-01 -0.112872D-02  0.208170D+00 -0.207247D+00
      2   0.603015D-03 -0.595832D-01  0.105087D-02 -0.405418D-01  0.429857D-01
      3   0.612168D-03 -0.595628D-01  0.105773D-02 -0.405611D-01  0.428365D-01
      4   0.109819D-02  0.113386D+00 -0.669866D-03  0.879717D-02 -0.181613D-01
      5   0.109880D-02  0.113172D+00 -0.671188D-03  0.100252D-01 -0.188672D-01
      6  -0.146145D-02 -0.112928D+00 -0.289188D-05  0.103688D-01  0.190471D-01
[...]
      6b-0.222388D+00  0.113076D+00 -0.202159D-01  0.112140D+00 -0.154927D-01
      7a 0.185811D+00 -0.953577D-01  0.797100D-01 -0.519552D-01  0.744421D-01
      7b-0.223218D+00  0.113323D+00 -0.232756D-01  0.117466D+00 -0.185637D-01
      8a-0.596695D-01  0.298126D-01 -0.296292D-01  0.238477D-01 -0.270451D-01
      8b 0.611145D-01 -0.304413D-01  0.128462D-01 -0.378496D-01  0.108483D-01
      9a-0.603297D-01  0.301283D-01 -0.319710D-01  0.257725D-01 -0.294030D-01
      9b 0.623954D-01 -0.309914D-01  0.147351D-01 -0.413205D-01  0.127476D-01
     10a-0.207263D-01  0.109093D-01 -0.142773D-01  0.101368D-01 -0.140520D-01
     10b 0.962772D-01 -0.454660D-01  0.421696D-01 -0.770438D-01  0.410795D-01
                3b            4a            4b            5a            5b
      3b 0.256416D+01
      4a 0.601456D+00  0.207594D+01
      4b-0.103229D+01 -0.179070D+01  0.292210D+01
      5a 0.600362D+00  0.207443D+01 -0.178978D+01  0.207297D+01
      5b-0.103034D+01 -0.178919D+01  0.291960D+01 -0.178830D+01  0.291711D+01
      6a-0.448157D-01 -0.835050D+00  0.694886D+00 -0.833320D+00  0.693850D+00
      6b 0.104886D+00  0.649416D+00 -0.114491D+01  0.648107D+00 -0.114306D+01
      7a-0.474258D-01 -0.836397D+00  0.695747D+00 -0.834672D+00  0.694713D+00
      7b 0.110238D+00  0.650552D+00 -0.114714D+01  0.649241D+00 -0.114529D+01
      8a 0.218106D-01  0.931068D-01 -0.556272D-01  0.891277D-01 -0.527520D-01
      8b-0.345830D-01 -0.268241D-01  0.915729D-01 -0.234880D-01  0.868213D-01
      9a 0.237490D-01  0.982179D-01 -0.600893D-01  0.942588D-01 -0.572274D-01
      9b-0.380757D-01 -0.314695D-01  0.989583D-01 -0.281487D-01  0.942228D-01
     10a 0.100091D-01  0.531407D-01 -0.378211D-01  0.530744D-01 -0.378671D-01
     10b-0.760588D-01 -0.165088D+00  0.245993D+00 -0.163854D+00  0.246681D+00
                6a            6b            7a            7b            8a
      6a 0.208987D+01
      6b-0.179581D+01  0.290021D+01
      7a 0.209176D+01 -0.179746D+01  0.209367D+01
      7b-0.179686D+01  0.290226D+01 -0.179853D+01  0.290437D+01
      8a-0.764005D+00  0.624154D+00 -0.765431D+00  0.625475D+00  0.186286D+01
      8b 0.553624D+00 -0.976005D+00  0.554796D+00 -0.977368D+00 -0.154475D+01
      9a-0.763052D+00  0.623304D+00 -0.764475D+00  0.624620D+00  0.185250D+01
      9b 0.553545D+00 -0.975371D+00  0.554714D+00 -0.976723D+00 -0.153693D+01
     10a-0.114153D+00  0.748487D-01 -0.115270D+00  0.758882D-01  0.946431D-01
     10b 0.431049D+00 -0.594608D+00  0.432639D+00 -0.605899D+00 -0.562480D+00
                8b            9a            9b           10a           10b
      8b 0.244882D+01
      9a-0.153586D+01  0.184222D+01
      9b 0.243634D+01 -0.152810D+01  0.242396D+01
     10a-0.444885D-01  0.940318D-01 -0.440937D-01  0.231970D+00
     10b 0.557773D+00 -0.559491D+00  0.552848D+00 -0.215480D+00  0.255758D+01
 jaja lower-tri density matrix (imaginary):
                1a            1b            2a            2b            3a
      1a 0.000000D+00
      1b 0.792419D-01  0.000000D+00
      2a-0.147244D+00  0.293241D-01  0.000000D+00
      2b-0.219796D+00  0.145250D+00 -0.778969D+00  0.000000D+00
      3a-0.147985D+00  0.293970D-01 -0.320757D-03  0.783082D+00  0.000000D+00
      3b-0.220830D+00  0.145981D+00 -0.783471D+00  0.323240D-03 -0.787615D+00
      4a 0.101296D+00 -0.300417D-01 -0.220763D-01 -0.313951D+00 -0.223216D-01
      4b 0.161694D+00 -0.100392D+00  0.289105D+00  0.220108D-01  0.289243D+00
      5a 0.101142D+00 -0.302892D-01 -0.220527D-01 -0.313259D+00 -0.222976D-01
      5b 0.161736D+00 -0.100238D+00  0.288473D+00  0.219946D-01  0.288610D+00
      6a-0.355759D-01  0.148116D-01  0.911392D-02  0.283911D-01  0.917273D-02
      6b-0.612642D-01  0.353732D-01 -0.180321D-01 -0.909777D-02 -0.157168D-01
      7a-0.359402D-01  0.149593D-01  0.898622D-02  0.299170D-01  0.904445D-02
      7b-0.618858D-01  0.357340D-01 -0.197298D-01 -0.897078D-02 -0.174229D-01
      8a 0.870587D-02 -0.278682D-02 -0.327839D-02 -0.111542D-01 -0.326306D-02
      8b 0.142002D-01 -0.868101D-02  0.714013D-02  0.327801D-02  0.620368D-02
      9a 0.898042D-02 -0.287417D-02 -0.329232D-02 -0.121890D-01 -0.327804D-02
      9b 0.146428D-01 -0.895218D-02  0.816329D-02  0.329232D-02  0.723231D-02
     10a 0.240892D-01 -0.110412D-01  0.900599D-02 -0.215078D-01  0.873415D-02
     10b 0.428127D-01 -0.240892D-01  0.337426D-01 -0.903423D-02  0.331201D-01
                3b            4a            4b            5a            5b
      3b 0.000000D+00
      4a-0.314364D+00  0.000000D+00
      4b 0.222588D-01 -0.905389D+00  0.000000D+00
      5a-0.313671D+00  0.192248D-03  0.904791D+00  0.000000D+00
      5b 0.222423D-01 -0.904574D+00 -0.198372D-03 -0.903978D+00  0.000000D+00
      6a 0.261421D-01 -0.153137D-01 -0.345469D+00 -0.153847D-01 -0.345062D+00
      6b-0.915769D-02  0.329691D+00  0.153165D-01  0.329181D+00  0.153847D-01
      7a 0.276757D-01 -0.152446D-01 -0.346047D+00 -0.153161D-01 -0.345641D+00
      7b-0.903014D-02  0.330377D+00  0.152446D-01  0.329866D+00  0.153133D-01
      8a-0.102052D-01  0.904369D-02  0.199265D-01  0.917124D-02  0.186451D-01
      8b 0.326306D-02 -0.955634D-02 -0.905800D-02 -0.810234D-02 -0.918629D-02
      9a-0.112467D-01  0.898451D-02  0.222300D-01  0.911150D-02  0.209525D-01
      9b 0.327842D-02 -0.119238D-01 -0.899995D-02 -0.104744D-01 -0.912766D-02
     10a-0.212462D-01 -0.358704D-01  0.685286D-01 -0.355091D-01  0.687591D-01
     10b-0.875901D-02 -0.116637D+00  0.360766D-01 -0.116389D+00  0.357118D-01
                6a            6b            7a            7b            8a
      6a 0.000000D+00
      6b-0.896791D+00  0.000000D+00
      7a 0.197056D-03  0.897469D+00  0.000000D+00
      7b-0.897263D+00 -0.190933D-03 -0.897958D+00  0.000000D+00
      8a-0.222698D-01 -0.291279D+00 -0.222878D-01 -0.291789D+00  0.000000D+00
      8b 0.265980D+00  0.223251D-01  0.266417D+00  0.223506D-01 -0.739001D+00
      9a-0.220224D-01 -0.291054D+00 -0.220401D-01 -0.291560D+00 -0.322754D-03
      9b 0.266027D+00  0.220805D-01  0.266460D+00  0.221056D-01 -0.735475D+00
     10a 0.100537D+00 -0.163402D+00  0.100692D+00 -0.166659D+00 -0.146261D+00
     10b 0.297445D+00 -0.101441D+00  0.300907D+00 -0.101596D+00 -0.340810D+00
                8b            9a            9b           10a           10b
      8b 0.000000D+00
      9a 0.735089D+00  0.000000D+00
      9b 0.320271D-03 -0.731590D+00  0.000000D+00
     10a 0.146947D+00 -0.145529D+00  0.145586D+00  0.000000D+00
     10b 0.148266D+00 -0.338480D+00  0.147524D+00 -0.736341D+00  0.000000D+00
 jaja non-ortho density matrix               [Gau-style] (real):
                 1             2             3             4             5 
      1a  0.225571D+01 -0.109236D+01  0.384441D+00 -0.686151D+00  0.388264D+00
      1b -0.109236D+01  0.533831D+00 -0.169536D+00  0.262439D+00 -0.171320D+00
      2a  0.384441D+00 -0.169536D+00  0.173003D+01 -0.147840D+01  0.173874D+01
      2b -0.686151D+00  0.262439D+00 -0.147840D+01  0.253615D+01 -0.148549D+01
      3a  0.388264D+00 -0.171320D+00  0.173874D+01 -0.148549D+01  0.174751D+01
      3b -0.690533D+00  0.264152D+00 -0.148655D+01  0.255010D+01 -0.149370D+01
      4a -0.454462D+00  0.222818D+00 -0.710033D+00  0.600805D+00 -0.710509D+00
      4b  0.580873D+00 -0.266706D+00  0.530771D+00 -0.103116D+01  0.530651D+00
      5a -0.444649D+00  0.218011D+00 -0.709201D+00  0.599718D+00 -0.709667D+00
      5b  0.575515D+00 -0.264113D+00  0.529838D+00 -0.102922D+01  0.529712D+00
      6a  0.186680D+00 -0.958097D-01  0.763413D-01 -0.493544D-01  0.710629D-01
      6b -0.222388D+00  0.113076D+00 -0.202159D-01  0.112140D+00 -0.154927D-01
      7a  0.185811D+00 -0.953577D-01  0.797100D-01 -0.519552D-01  0.744421D-01
      7b -0.223218D+00  0.113323D+00 -0.232756D-01  0.117466D+00 -0.185637D-01
      8a -0.596695D-01  0.298126D-01 -0.296292D-01  0.238477D-01 -0.270451D-01
      8b  0.611145D-01 -0.304413D-01  0.128462D-01 -0.378496D-01  0.108483D-01
      9a -0.603297D-01  0.301283D-01 -0.319710D-01  0.257725D-01 -0.294030D-01
      9b  0.623954D-01 -0.309914D-01  0.147351D-01 -0.413205D-01  0.127476D-01
     10a -0.207263D-01  0.109093D-01 -0.142773D-01  0.101368D-01 -0.140520D-01
     10b  0.962772D-01 -0.454660D-01  0.421696D-01 -0.770438D-01  0.410795D-01
                 6             7             8             9            10 
      1a -0.690533D+00 -0.454462D+00  0.580873D+00 -0.444649D+00  0.575515D+00
      1b  0.264152D+00  0.222818D+00 -0.266706D+00  0.218011D+00 -0.264113D+00
      2a -0.148655D+01 -0.710033D+00  0.530771D+00 -0.709201D+00  0.529838D+00
      2b  0.255010D+01  0.600805D+00 -0.103116D+01  0.599718D+00 -0.102922D+01
      3a -0.149370D+01 -0.710509D+00  0.530651D+00 -0.709667D+00  0.529712D+00
      3b  0.256416D+01  0.601456D+00 -0.103229D+01  0.600362D+00 -0.103034D+01
      4a  0.601456D+00  0.207594D+01 -0.179070D+01  0.207443D+01 -0.178919D+01
      4b -0.103229D+01 -0.179070D+01  0.292210D+01 -0.178978D+01  0.291960D+01
      5a  0.600362D+00  0.207443D+01 -0.178978D+01  0.207297D+01 -0.178830D+01
      5b -0.103034D+01 -0.178919D+01  0.291960D+01 -0.178830D+01  0.291711D+01
      6a -0.448157D-01 -0.835050D+00  0.694886D+00 -0.833320D+00  0.693850D+00
      6b  0.104886D+00  0.649416D+00 -0.114491D+01  0.648107D+00 -0.114306D+01
      7a -0.474258D-01 -0.836397D+00  0.695747D+00 -0.834672D+00  0.694713D+00
      7b  0.110238D+00  0.650552D+00 -0.114714D+01  0.649241D+00 -0.114529D+01
      8a  0.218106D-01  0.931068D-01 -0.556272D-01  0.891277D-01 -0.527520D-01
      8b -0.345830D-01 -0.268241D-01  0.915729D-01 -0.234880D-01  0.868213D-01
      9a  0.237490D-01  0.982179D-01 -0.600893D-01  0.942588D-01 -0.572274D-01
      9b -0.380757D-01 -0.314695D-01  0.989583D-01 -0.281487D-01  0.942228D-01
     10a  0.100091D-01  0.531407D-01 -0.378211D-01  0.530744D-01 -0.378671D-01
     10b -0.760588D-01 -0.165088D+00  0.245993D+00 -0.163854D+00  0.246681D+00
                11            12            13            14            15 
      1a  0.186680D+00 -0.222388D+00  0.185811D+00 -0.223218D+00 -0.596695D-01
      1b -0.958097D-01  0.113076D+00 -0.953577D-01  0.113323D+00  0.298126D-01
      2a  0.763413D-01 -0.202159D-01  0.797100D-01 -0.232756D-01 -0.296292D-01
      2b -0.493544D-01  0.112140D+00 -0.519552D-01  0.117466D+00  0.238477D-01
      3a  0.710629D-01 -0.154927D-01  0.744421D-01 -0.185637D-01 -0.270451D-01
      3b -0.448157D-01  0.104886D+00 -0.474258D-01  0.110238D+00  0.218106D-01
      4a -0.835050D+00  0.649416D+00 -0.836397D+00  0.650552D+00  0.931068D-01
      4b  0.694886D+00 -0.114491D+01  0.695747D+00 -0.114714D+01 -0.556272D-01
      5a -0.833320D+00  0.648107D+00 -0.834672D+00  0.649241D+00  0.891277D-01
      5b  0.693850D+00 -0.114306D+01  0.694713D+00 -0.114529D+01 -0.527520D-01
      6a  0.208987D+01 -0.179581D+01  0.209176D+01 -0.179686D+01 -0.764005D+00
      6b -0.179581D+01  0.290021D+01 -0.179746D+01  0.290226D+01  0.624154D+00
      7a  0.209176D+01 -0.179746D+01  0.209367D+01 -0.179853D+01 -0.765431D+00
      7b -0.179686D+01  0.290226D+01 -0.179853D+01  0.290437D+01  0.625475D+00
      8a -0.764005D+00  0.624154D+00 -0.765431D+00  0.625475D+00  0.186286D+01
      8b  0.553624D+00 -0.976005D+00  0.554796D+00 -0.977368D+00 -0.154475D+01
      9a -0.763052D+00  0.623304D+00 -0.764475D+00  0.624620D+00  0.185250D+01
      9b  0.553545D+00 -0.975371D+00  0.554714D+00 -0.976723D+00 -0.153693D+01
     10a -0.114153D+00  0.748487D-01 -0.115270D+00  0.758882D-01  0.946431D-01
     10b  0.431049D+00 -0.594608D+00  0.432639D+00 -0.605899D+00 -0.562480D+00
                16            17            18            19            20 
      1a  0.611145D-01 -0.603297D-01  0.623954D-01 -0.207263D-01  0.962772D-01
      1b -0.304413D-01  0.301283D-01 -0.309914D-01  0.109093D-01 -0.454660D-01
      2a  0.128462D-01 -0.319710D-01  0.147351D-01 -0.142773D-01  0.421696D-01
      2b -0.378496D-01  0.257725D-01 -0.413205D-01  0.101368D-01 -0.770438D-01
      3a  0.108483D-01 -0.294030D-01  0.127476D-01 -0.140520D-01  0.410795D-01
      3b -0.345830D-01  0.237490D-01 -0.380757D-01  0.100091D-01 -0.760588D-01
      4a -0.268241D-01  0.982179D-01 -0.314695D-01  0.531407D-01 -0.165088D+00
      4b  0.915729D-01 -0.600893D-01  0.989583D-01 -0.378211D-01  0.245993D+00
      5a -0.234880D-01  0.942588D-01 -0.281487D-01  0.530744D-01 -0.163854D+00
      5b  0.868213D-01 -0.572274D-01  0.942228D-01 -0.378671D-01  0.246681D+00
      6a  0.553624D+00 -0.763052D+00  0.553545D+00 -0.114153D+00  0.431049D+00
      6b -0.976005D+00  0.623304D+00 -0.975371D+00  0.748487D-01 -0.594608D+00
      7a  0.554796D+00 -0.764475D+00  0.554714D+00 -0.115270D+00  0.432639D+00
      7b -0.977368D+00  0.624620D+00 -0.976723D+00  0.758882D-01 -0.605899D+00
      8a -0.154475D+01  0.185250D+01 -0.153693D+01  0.946431D-01 -0.562480D+00
      8b  0.244882D+01 -0.153586D+01  0.243634D+01 -0.444885D-01  0.557773D+00
      9a -0.153586D+01  0.184222D+01 -0.152810D+01  0.940318D-01 -0.559491D+00
      9b  0.243634D+01 -0.152810D+01  0.242396D+01 -0.440937D-01  0.552848D+00
     10a -0.444885D-01  0.940318D-01 -0.440937D-01  0.231970D+00 -0.215480D+00
     10b  0.557773D+00 -0.559491D+00  0.552848D+00 -0.215480D+00  0.255758D+01
 jaja non-ortho density matrix               [Gau-style] (imaginary):
                 1             2             3             4             5 
      1a  0.000000D+00 -0.792419D-01  0.147244D+00  0.219796D+00  0.147985D+00
      1b  0.792419D-01  0.000000D+00 -0.293241D-01 -0.145250D+00 -0.293970D-01
      2a -0.147244D+00  0.293241D-01  0.000000D+00  0.778969D+00  0.320757D-03
      2b -0.219796D+00  0.145250D+00 -0.778969D+00  0.000000D+00 -0.783082D+00
      3a -0.147985D+00  0.293970D-01 -0.320757D-03  0.783082D+00  0.000000D+00
      3b -0.220830D+00  0.145981D+00 -0.783471D+00  0.323240D-03 -0.787615D+00
      4a  0.101296D+00 -0.300417D-01 -0.220763D-01 -0.313951D+00 -0.223216D-01
      4b  0.161694D+00 -0.100392D+00  0.289105D+00  0.220108D-01  0.289243D+00
      5a  0.101142D+00 -0.302892D-01 -0.220527D-01 -0.313259D+00 -0.222976D-01
      5b  0.161736D+00 -0.100238D+00  0.288473D+00  0.219946D-01  0.288610D+00
      6a -0.355759D-01  0.148116D-01  0.911392D-02  0.283911D-01  0.917273D-02
      6b -0.612642D-01  0.353732D-01 -0.180321D-01 -0.909777D-02 -0.157168D-01
      7a -0.359402D-01  0.149593D-01  0.898622D-02  0.299170D-01  0.904445D-02
      7b -0.618858D-01  0.357340D-01 -0.197298D-01 -0.897078D-02 -0.174229D-01
      8a  0.870587D-02 -0.278682D-02 -0.327839D-02 -0.111542D-01 -0.326306D-02
      8b  0.142002D-01 -0.868101D-02  0.714013D-02  0.327801D-02  0.620368D-02
      9a  0.898042D-02 -0.287417D-02 -0.329232D-02 -0.121890D-01 -0.327804D-02
      9b  0.146428D-01 -0.895218D-02  0.816329D-02  0.329232D-02  0.723231D-02
     10a  0.240892D-01 -0.110412D-01  0.900599D-02 -0.215078D-01  0.873415D-02
     10b  0.428127D-01 -0.240892D-01  0.337426D-01 -0.903423D-02  0.331201D-01
                 6             7             8             9            10 
      1a  0.220830D+00 -0.101296D+00 -0.161694D+00 -0.101142D+00 -0.161736D+00
      1b -0.145981D+00  0.300417D-01  0.100392D+00  0.302892D-01  0.100238D+00
      2a  0.783471D+00  0.220763D-01 -0.289105D+00  0.220527D-01 -0.288473D+00
      2b -0.323240D-03  0.313951D+00 -0.220108D-01  0.313259D+00 -0.219946D-01
      3a  0.787615D+00  0.223216D-01 -0.289243D+00  0.222976D-01 -0.288610D+00
      3b  0.000000D+00  0.314364D+00 -0.222588D-01  0.313671D+00 -0.222423D-01
      4a -0.314364D+00  0.000000D+00  0.905389D+00 -0.192248D-03  0.904574D+00
      4b  0.222588D-01 -0.905389D+00  0.000000D+00 -0.904791D+00  0.198372D-03
      5a -0.313671D+00  0.192248D-03  0.904791D+00  0.000000D+00  0.903978D+00
      5b  0.222423D-01 -0.904574D+00 -0.198372D-03 -0.903978D+00  0.000000D+00
      6a  0.261421D-01 -0.153137D-01 -0.345469D+00 -0.153847D-01 -0.345062D+00
      6b -0.915769D-02  0.329691D+00  0.153165D-01  0.329181D+00  0.153847D-01
      7a  0.276757D-01 -0.152446D-01 -0.346047D+00 -0.153161D-01 -0.345641D+00
      7b -0.903014D-02  0.330377D+00  0.152446D-01  0.329866D+00  0.153133D-01
      8a -0.102052D-01  0.904369D-02  0.199265D-01  0.917124D-02  0.186451D-01
      8b  0.326306D-02 -0.955634D-02 -0.905800D-02 -0.810234D-02 -0.918629D-02
      9a -0.112467D-01  0.898451D-02  0.222300D-01  0.911150D-02  0.209525D-01
      9b  0.327842D-02 -0.119238D-01 -0.899995D-02 -0.104744D-01 -0.912766D-02
     10a -0.212462D-01 -0.358704D-01  0.685286D-01 -0.355091D-01  0.687591D-01
     10b -0.875901D-02 -0.116637D+00  0.360766D-01 -0.116389D+00  0.357118D-01
                11            12            13            14            15 
      1a  0.355759D-01  0.612642D-01  0.359402D-01  0.618858D-01 -0.870587D-02
      1b -0.148116D-01 -0.353732D-01 -0.149593D-01 -0.357340D-01  0.278682D-02
      2a -0.911392D-02  0.180321D-01 -0.898622D-02  0.197298D-01  0.327839D-02
      2b -0.283911D-01  0.909777D-02 -0.299170D-01  0.897078D-02  0.111542D-01
      3a -0.917273D-02  0.157168D-01 -0.904445D-02  0.174229D-01  0.326306D-02
      3b -0.261421D-01  0.915769D-02 -0.276757D-01  0.903014D-02  0.102052D-01
      4a  0.153137D-01 -0.329691D+00  0.152446D-01 -0.330377D+00 -0.904369D-02
      4b  0.345469D+00 -0.153165D-01  0.346047D+00 -0.152446D-01 -0.199265D-01
      5a  0.153847D-01 -0.329181D+00  0.153161D-01 -0.329866D+00 -0.917124D-02
      5b  0.345062D+00 -0.153847D-01  0.345641D+00 -0.153133D-01 -0.186451D-01
      6a  0.000000D+00  0.896791D+00 -0.197056D-03  0.897263D+00  0.222698D-01
      6b -0.896791D+00  0.000000D+00 -0.897469D+00  0.190933D-03  0.291279D+00
      7a  0.197056D-03  0.897469D+00  0.000000D+00  0.897958D+00  0.222878D-01
      7b -0.897263D+00 -0.190933D-03 -0.897958D+00  0.000000D+00  0.291789D+00
      8a -0.222698D-01 -0.291279D+00 -0.222878D-01 -0.291789D+00  0.000000D+00
      8b  0.265980D+00  0.223251D-01  0.266417D+00  0.223506D-01 -0.739001D+00
      9a -0.220224D-01 -0.291054D+00 -0.220401D-01 -0.291560D+00 -0.322754D-03
      9b  0.266027D+00  0.220805D-01  0.266460D+00  0.221056D-01 -0.735475D+00
     10a  0.100537D+00 -0.163402D+00  0.100692D+00 -0.166659D+00 -0.146261D+00
     10b  0.297445D+00 -0.101441D+00  0.300907D+00 -0.101596D+00 -0.340810D+00
                16            17            18            19            20 
      1a -0.142002D-01 -0.898042D-02 -0.146428D-01 -0.240892D-01 -0.428127D-01
      1b  0.868101D-02  0.287417D-02  0.895218D-02  0.110412D-01  0.240892D-01
      2a -0.714013D-02  0.329232D-02 -0.816329D-02 -0.900599D-02 -0.337426D-01
      2b -0.327801D-02  0.121890D-01 -0.329232D-02  0.215078D-01  0.903423D-02
      3a -0.620368D-02  0.327804D-02 -0.723231D-02 -0.873415D-02 -0.331201D-01
      3b -0.326306D-02  0.112467D-01 -0.327842D-02  0.212462D-01  0.875901D-02
      4a  0.955634D-02 -0.898451D-02  0.119238D-01  0.358704D-01  0.116637D+00
      4b  0.905800D-02 -0.222300D-01  0.899995D-02 -0.685286D-01 -0.360766D-01
      5a  0.810234D-02 -0.911150D-02  0.104744D-01  0.355091D-01  0.116389D+00
      5b  0.918629D-02 -0.209525D-01  0.912766D-02 -0.687591D-01 -0.357118D-01
      6a -0.265980D+00  0.220224D-01 -0.266027D+00 -0.100537D+00 -0.297445D+00
      6b -0.223251D-01  0.291054D+00 -0.220805D-01  0.163402D+00  0.101441D+00
      7a -0.266417D+00  0.220401D-01 -0.266460D+00 -0.100692D+00 -0.300907D+00
      7b -0.223506D-01  0.291560D+00 -0.221056D-01  0.166659D+00  0.101596D+00
      8a  0.739001D+00  0.322754D-03  0.735475D+00  0.146261D+00  0.340810D+00
      8b  0.000000D+00 -0.735089D+00 -0.320271D-03 -0.146947D+00 -0.148266D+00
      9a  0.735089D+00  0.000000D+00  0.731590D+00  0.145529D+00  0.338480D+00
      9b  0.320271D-03 -0.731590D+00  0.000000D+00 -0.145586D+00 -0.147524D+00
     10a  0.146947D+00 -0.145529D+00  0.145586D+00  0.000000D+00  0.736341D+00
     10b  0.148266D+00 -0.338480D+00  0.147524D+00 -0.736341D+00  0.000000D+00
FORTRAN STOP
