 Entering Gaussian System, Link 0=gdv
 AtFile(1): H.gbs
            H     0
            S   10   1.00
               1000.000000000000            0.000068713567
                316.227766000000            0.000169141320
                100.000000000000            0.000823394812
                 31.622776600000            0.003425569236
                 10.000000000000            0.013951996000
                  3.162277660000            0.056909313560
                  1.000000000000            0.198286399900
                  0.316227766000            0.496922426700
                  0.100000000000            0.369846276400
                  0.031622776600            0.003752720039
            ****
 Initial command:
 /users/lcj1/GHF_hess/exe-dir/l1.exe "/users/lcj1/GHF_hess/h10_2rows/mixrmY/Gau-11491.inp" -scrdir="/users/lcj1/GHF_hess/h10_2rows/mixrmY/"
 Entering Link 1 = /users/lcj1/GHF_hess/exe-dir/l1.exe PID=     11492.
  
 Copyright (c) 1988,1990,1992,1993,1995,1998,2003,2009,2012,
            Gaussian, Inc.  All Rights Reserved.
  
 This is the private, development version of
 the Gaussian(R) DV system of programs. It is based on
 the Gaussian(R) 09 system (copyright 2009, Gaussian, Inc.),
 the Gaussian(R) 03 system (copyright 2003, Gaussian, Inc.),
 the Gaussian(R) 98 system (copyright 1998, Gaussian, Inc.),
 the Gaussian(R) 94 system (copyright 1995, Gaussian, Inc.),
 the Gaussian 92(TM) system (copyright 1992, Gaussian, Inc.),
 the Gaussian 90(TM) system (copyright 1990, Gaussian, Inc.),
 the Gaussian 88(TM) system (copyright 1988, Gaussian, Inc.),
 the Gaussian 86(TM) system (copyright 1986, Carnegie Mellon
 University), and the Gaussian 82(TM) system (copyright 1983,
 Carnegie Mellon University). Gaussian is a federally registered
 trademark of Gaussian, Inc.
  
 This software contains proprietary and confidential information,
 including trade secrets, belonging to Gaussian, Inc.
  
 This software is provided under written license and may be
 used, copied, transmitted, or stored only in accord with that
 written license.
  
 The following legend is applicable only to US Government
 contracts under FAR:
  
                    RESTRICTED RIGHTS LEGEND
  
 Use, reproduction and disclosure by the US Government is
 subject to restrictions as set forth in subparagraphs (a)
 and (c) of the Commercial Computer Software - Restricted
 Rights clause in FAR 52.227-19.
  
 Gaussian, Inc.
 340 Quinnipiac St., Bldg. 40, Wallingford CT 06492
  
  
 ---------------------------------------------------------------
 Warning -- This program may not be used in any manner that
 competes with the business of Gaussian, Inc. or will provide
 assistance to any competitor of Gaussian, Inc.  The licensee
 of this program is prohibited from giving any competitor of
 Gaussian, Inc. access to this program.  By using this program,
 the user acknowledges that Gaussian, Inc. is engaged in the
 business of creating and licensing software in the field of
 computational chemistry and represents and warrants to the
 licensee that it is not a competitor of Gaussian, Inc. and that
 it will not use this program in any manner prohibited above.
 ---------------------------------------------------------------
  

 Cite this work as:
 Gaussian Development Version, Revision H.21,
 M. J. Frisch, G. W. Trucks, H. B. Schlegel, G. E. Scuseria, 
 M. A. Robb, J. R. Cheeseman, G. Scalmani, V. Barone, B. Mennucci, 
 G. A. Petersson, H. Nakatsuji, M. Caricato, X. Li, H. P. Hratchian, 
 A. F. Izmaylov, J. Bloino, G. Zheng, J. L. Sonnenberg, W. Liang, 
 M. Hada, M. Ehara, K. Toyota, R. Fukuda, J. Hasegawa, M. Ishida, 
 T. Nakajima, Y. Honda, O. Kitao, H. Nakai, T. Vreven, 
 J. A. Montgomery, Jr., J. E. Peralta, F. Ogliaro, M. Bearpark, 
 J. J. Heyd, E. Brothers, K. N. Kudin, V. N. Staroverov, T. Keith, 
 R. Kobayashi, J. Normand, K. Raghavachari, A. Rendell, J. C. Burant, 
 S. S. Iyengar, J. Tomasi, M. Cossi, N. Rega, J. M. Millam, M. Klene, 
 J. E. Knox, J. B. Cross, V. Bakken, C. Adamo, J. Jaramillo, 
 R. Gomperts, R. E. Stratmann, O. Yazyev, A. J. Austin, R. Cammi, 
 C. Pomelli, J. W. Ochterski, R. L. Martin, K. Morokuma, 
 V. G. Zakrzewski, G. A. Voth, P. Salvador, J. J. Dannenberg, 
 S. Dapprich, P. V. Parandekar, N. J. Mayhall, A. D. Daniels, 
 O. Farkas, J. B. Foresman, J. V. Ortiz, J. Cioslowski, 
 and D. J. Fox, Gaussian, Inc., Wallingford CT, 2010.
 
 ******************************************
 Gaussian DV:  EM64L-GDVRevH.21 13-May-2012
                28-Feb-2017 
 ******************************************
 %chk=h10.chk
 ----------------------------------------------------------------------
 #ghf/gen scf(tight,novaracc,noincfock,fulldiag) stable guess=mix geom=
 nocrowd use=l802 use=l902 test
 ----------------------------------------------------------------------
 ********************************************
   THE COMPLEX ERI TRANSFORMATION WITH L802  
        COMPLEX STABILITY WITH L902          
 ********************************************
 1/38=1/1;
 2/12=1,17=6,18=5,40=1/2;
 3/5=7,16=1,25=20,28=1,116=7/1,2,3,20;
 4/13=-1/1;
 5/5=100001,16=1,32=2,38=1/2;
 8/6=1,10=90,11=11/1,2;
 9/8=4,13=1/1,2;
 6/7=2,8=2,9=2,10=2,28=1/1;
 99/5=1,9=1/99;
 ----------------------------------------------------------------------
 hf stability analysis of h10 triangular lattice, y= 0.3864103211392155
 8 alpha= 14.500000000000000
 ----------------------------------------------------------------------
 Symbolic Z-Matrix:
 Charge =  0 Multiplicity = 1
 H
 H                    1     1.5433 
 H                    1     1.5433   2     151. 
 H                    2     1.5433   1     29.      3     0.       0
 H                    3     1.5433   1     180.     2     0.       0
 H                    4     1.5433   2     180.     1     0.       0
 H                    5     1.5433   3     180.     2     0.       0
 H                    6     1.5433   4     180.     1     0.       0
 H                    7     1.5433   5     180.     2     0.       0
 H                    8     1.5433   6     180.     1     0.       0
 
                          Input orientation:                          
 ---------------------------------------------------------------------
 Center     Atomic      Atomic             Coordinates (Angstroms)
 Number     Number       Type             X           Y           Z
 ---------------------------------------------------------------------
      1          1           0        0.000000    0.000000    0.000000
      2          1           0        0.000000    0.000000    1.543295
      3          1           0        0.748204    0.000000   -1.349797
      4          1           0        0.748204    0.000000    0.193499
      5          1           0        1.496409    0.000000   -2.699593
      6          1           0        1.496409    0.000000   -1.156298
      7          1           0        2.244613    0.000000   -4.049390
      8          1           0        2.244613    0.000000   -2.506094
      9          1           0        2.992818    0.000000   -5.399186
     10          1           0        2.992818    0.000000   -3.855891
 ---------------------------------------------------------------------
                    Distance matrix (angstroms):
                    1          2          3          4          5
     1  H    0.000000
     2  H    1.543295   0.000000
     3  H    1.543295   2.988276   0.000000
     4  H    0.772821   1.543295   1.543295   0.000000
     5  H    3.086591   4.499038   1.543295   2.988276   0.000000
     6  H    1.891101   3.086591   0.772821   1.543295   1.543295
     7  H    4.629886   6.026310   3.086591   4.499038   1.543295
     8  H    3.364342   4.629886   1.891101   3.086591   0.772821
     9  H    6.173182   7.560093   4.629886   6.026310   3.086591
    10  H    4.881071   6.173182   3.364342   4.629886   1.891101
                    6          7          8          9         10
     6  H    0.000000
     7  H    2.988276   0.000000
     8  H    1.543295   1.543295   0.000000
     9  H    4.499038   1.543295   2.988276   0.000000
    10  H    3.086591   0.772821   1.543295   1.543295   0.000000
 Stoichiometry    H10
 Framework group  C2H[SGH(H10)]
 Deg. of freedom     9
 Full point group                 C2H     NOp   4
 Largest Abelian subgroup         C2H     NOp   4
 Largest concise Abelian subgroup C2      NOp   2
                         Standard orientation:                         
 ---------------------------------------------------------------------
 Center     Atomic      Atomic             Coordinates (Angstroms)
 Number     Number       Type             X           Y           Z
 ---------------------------------------------------------------------
      1          1           0        1.496409   -1.927945    0.000000
      2          1           0        1.496409   -3.471241    0.000000
      3          1           0        0.748204   -0.578149    0.000000
      4          1           0        0.748204   -2.121444    0.000000
      5          1           0        0.000000    0.771648    0.000000
      6          1           0        0.000000   -0.771648    0.000000
      7          1           0       -0.748204    2.121444    0.000000
      8          1           0       -0.748204    0.578149    0.000000
      9          1           0       -1.496409    3.471241    0.000000
     10          1           0       -1.496409    1.927945    0.000000
 ---------------------------------------------------------------------
 Rotational constants (GHZ):    393.5065698      9.5852492      9.3573185
 General basis read from cards:  (5D, 7F)
 There are     5 symmetry adapted cartesian basis functions of AG  symmetry.
 There are     0 symmetry adapted cartesian basis functions of BG  symmetry.
 There are     0 symmetry adapted cartesian basis functions of AU  symmetry.
 There are     5 symmetry adapted cartesian basis functions of BU  symmetry.
 There are     5 symmetry adapted basis functions of AG  symmetry.
 There are     0 symmetry adapted basis functions of BG  symmetry.
 There are     0 symmetry adapted basis functions of AU  symmetry.
 There are     5 symmetry adapted basis functions of BU  symmetry.
    10 basis functions,   100 primitive gaussians,    10 cartesian basis functions
     5 alpha electrons        5 beta electrons
       nuclear repulsion energy        11.4230576002 Hartrees.
 NAtoms=   10 NActive=   10 NUniq=    5 SFac= 4.00D+00 NAtFMM=   60 NAOKFM=F Big=F
 Integral buffers will be    131072 words long.
 Regular integral format.
 Two-electron integral symmetry is turned off.
 One-electron integrals computed using PRISM.
 NBasis=    10 RedAO= T EigKep=  1.71D-01  NBF=     5     0     0     5
 NBsUse=    10 1.00D-06 EigRej= -1.00D+00 NBFU=     5     0     0     5
 IOp(28)                       1
                        1                       0
                        2                       1
                        3                       1
                        4                      20
                        5                       0
                        6                       0
                        7                      10
                        8                       1
                        9                       4
                       10                       0
                       11              1073741824
                       12                      20
                       13                       2
                       14                  131070
                       15                       1
                       16                       1
                       17                  131073
                       18                       0
                       19                       0
                       20                       0
                       21                       2
                       22                  131070
                       23                       0
                       24                       0
                       25                       0
                       26                       0
                       27                   65535
                       28                       2
                       29                  131072
                       30                       0
 IHMeth                       1
 ib3: ISMode =                        0                       4
 Enter DskPsm, NBasis=  10 NBas6D=  10 NShell=  10 IDoSP=4.
 Out2e will use a cutoff of  1.00D-10
 FoFCou: FMM=F IPFlag=           0 FMFlag=           0 FMFlg1=           0
         NFxFlg=           0 DoJE=F BraDBF=F KetDBF=F FulRan=T
         wScrn=  0.000000 ICntrl=     600 IOpCl=  9 I1Cent=           0 NGrid=           0
         NMat0=    0 NMatS0=      0 NMatT0=    0 NMatD0=    0 NMtDS0=    0 NMtDT0=    0
 Symmetry not used in FoFCou.
 Entering PrmDigJobTyp =                      20
 LenSav and NKeep                       0                       0
 Entered Stor2E with KNTT1,2                       2                  131070
 Leave Stor2X
 Entering PrmDigJobTyp =                      20
 LenSav and NKeep                       0                       0
 Entered Stor2E with KNTT1,2                       2                  131056
 Leave Stor2X
 Entering PrmDigJobTyp =                      20
 LenSav and NKeep                       0                       0
 Entered Stor2E with KNTT1,2                       2                  131042
 Leave Stor2X
 Entering PrmDigJobTyp =                      20
 LenSav and NKeep                       0                       0
 Entered Stor2E with KNTT1,2                       2                  131028
 Leave Stor2X
 Entering PrmDigJobTyp =                      20
 LenSav and NKeep                       0                       0
 Entered Stor2E with KNTT1,2                       2                  131014
 Leave Stor2X
 Entering PrmDigJobTyp =                      20
 LenSav and NKeep                       0                       0
 Entered Stor2E with KNTT1,2                       2                  131000
 Leave Stor2X
 Entering PrmDigJobTyp =                      20
 LenSav and NKeep                       0                       0
 Entered Stor2E with KNTT1,2                       2                  130986
 Leave Stor2X
 Entering PrmDigJobTyp =                      20
 LenSav and NKeep                       0                       0
 Entered Stor2E with KNTT1,2                       2                  130972
 Leave Stor2X
 Entering PrmDigJobTyp =                      20
 LenSav and NKeep                       0                       0
 Entered Stor2E with KNTT1,2                       2                  130960
 Leave Stor2X
 Entering PrmDigJobTyp =                      20
 LenSav and NKeep                       0                       0
 Entered Stor2E with KNTT1,2                       2                  130944
 Leave Stor2X
 Entering PrmDigJobTyp =                      20
 LenSav and NKeep                       0                       0
 Entered Stor2E with KNTT1,2                       2                  130928
 Leave Stor2X
 Entering PrmDigJobTyp =                      20
 LenSav and NKeep                       0                       0
 Entered Stor2E with KNTT1,2                       2                  130912
 Leave Stor2X
 Entering PrmDigJobTyp =                      20
 LenSav and NKeep                       0                       0
 Entered Stor2E with KNTT1,2                       2                  130896
 Leave Stor2X
 Entering PrmDigJobTyp =                      20
 LenSav and NKeep                       0                       0
 Entered Stor2E with KNTT1,2                       2                  130880
 Leave Stor2X
 Entering PrmDigJobTyp =                      20
 LenSav and NKeep                       0                       0
 Entered Stor2E with KNTT1,2                       2                  130864
 Leave Stor2X
 Entering PrmDigJobTyp =                      20
 LenSav and NKeep                       0                       0
 Entered Stor2E with KNTT1,2                       2                  130848
 Leave Stor2X
 Entering PrmDigJobTyp =                      20
 LenSav and NKeep                       0                       0
 Entered Stor2E with KNTT1,2                       2                  130832
 Leave Stor2X
 Entering PrmDigJobTyp =                      20
 LenSav and NKeep                       0                       0
 Entered Stor2E with KNTT1,2                       2                  130816
 Leave Stor2X
 Entering PrmDigJobTyp =                      20
 LenSav and NKeep                       0                       0
 Entered Stor2E with KNTT1,2                       2                  130800
 Leave Stor2X
 Entering PrmDigJobTyp =                      20
 LenSav and NKeep                       0                       0
 Entered Stor2E with KNTT1,2                       2                  130784
 Leave Stor2X
 Entering PrmDigJobTyp =                      20
 LenSav and NKeep                       0                       0
 Entered Stor2E with KNTT1,2                       2                  130768
 Leave Stor2X
 Entering PrmDigJobTyp =                      20
 LenSav and NKeep                       0                       0
 Entered Stor2E with KNTT1,2                       2                  130752
 Leave Stor2X
 Entering PrmDigJobTyp =                      20
 LenSav and NKeep                       0                       0
 Entered Stor2E with KNTT1,2                       2                  130736
 Leave Stor2X
 Entering PrmDigJobTyp =                      20
 LenSav and NKeep                       0                       0
 Entered Stor2E with KNTT1,2                       2                  130720
 Leave Stor2X
 Entering PrmDigJobTyp =                      20
 LenSav and NKeep                       0                       0
 Entered Stor2E with KNTT1,2                       2                  130704
 Leave Stor2X
 Entering PrmDigJobTyp =                      20
 LenSav and NKeep                       0                       0
 Entered Stor2E with KNTT1,2                       2                  130700
 Leave Stor2X
 Entering PrmDigJobTyp =                      20
 LenSav and NKeep                       0                       0
 Entered Stor2E with KNTT1,2                       8                  130682
 Leave Stor2X
 Entering PrmDigJobTyp =                      20
 LenSav and NKeep                       0                       0
 Entered Stor2E with KNTT1,2                      22                  130672
 Leave Stor2X
 Entering PrmDigJobTyp =                      20
 LenSav and NKeep                       0                       0
 Entered Stor2E with KNTT1,2                      34                  130660
 Leave Stor2X
 Entering PrmDigJobTyp =                      20
 LenSav and NKeep                       0                       0
 Entered Stor2E with KNTT1,2                      52                  130654
 Leave Stor2X
 Entering PrmDigJobTyp =                      20
 LenSav and NKeep                       0                       0
 Entered Stor2E with KNTT1,2                      70                  130648
 Leave Stor2X
 Entering PrmDigJobTyp =                      20
 LenSav and NKeep                       0                       0
 Entered Stor2E with KNTT1,2                      88                  130642
 Leave Stor2X
 Entering PrmDigJobTyp =                      20
 LenSav and NKeep                       0                       0
 Entered Stor2E with KNTT1,2                     106                  130636
 Leave Stor2X
 Entering PrmDigJobTyp =                      20
 LenSav and NKeep                       0                       0
 Entered Stor2E with KNTT1,2                     114                  130630
 Leave Stor2X
 Entering PrmDigJobTyp =                      20
 LenSav and NKeep                       0                       0
 Entered Stor2E with KNTT1,2                     114                  130610
 Leave Stor2X
 Entering PrmDigJobTyp =                      20
 LenSav and NKeep                       0                       0
 Entered Stor2E with KNTT1,2                     114                  130590
 Leave Stor2X
 Entering PrmDigJobTyp =                      20
 LenSav and NKeep                       0                       0
 Entered Stor2E with KNTT1,2                     114                  130570
 Leave Stor2X
 Entering PrmDigJobTyp =                      20
 LenSav and NKeep                       0                       0
 Entered Stor2E with KNTT1,2                     114                  130550
 Leave Stor2X
 Entering PrmDigJobTyp =                      20
 LenSav and NKeep                       0                       0
 Entered Stor2E with KNTT1,2                     114                  130530
 Leave Stor2X
 Entering PrmDigJobTyp =                      20
 LenSav and NKeep                       0                       0
 Entered Stor2E with KNTT1,2                     114                  130510
 Leave Stor2X
 Entering PrmDigJobTyp =                      20
 LenSav and NKeep                       0                       0
 Entered Stor2E with KNTT1,2                     114                  130490
 Leave Stor2X
 Entering PrmDigJobTyp =                      20
 LenSav and NKeep                       0                       0
 Entered Stor2E with KNTT1,2                     114                  130470
 Leave Stor2X
 Entering PrmDigJobTyp =                      20
 LenSav and NKeep                       0                       0
 Entered Stor2E with KNTT1,2                     114                  130450
 Leave Stor2X
 Entering PrmDigJobTyp =                      20
 LenSav and NKeep                       0                       0
 Entered Stor2E with KNTT1,2                     114                  130430
 Leave Stor2X
 Entering PrmDigJobTyp =                      20
 LenSav and NKeep                       0                       0
 Entered Stor2E with KNTT1,2                     132                  130416
 Leave Stor2X
 Entering PrmDigJobTyp =                      20
 LenSav and NKeep                       0                       0
 Entered Stor2E with KNTT1,2                     150                  130402
 Leave Stor2X
 Entering PrmDigJobTyp =                      20
 LenSav and NKeep                       0                       0
 Entered Stor2E with KNTT1,2                     168                  130388
 Leave Stor2X
 Entering PrmDigJobTyp =                      20
 LenSav and NKeep                       0                       0
 Entered Stor2E with KNTT1,2                     188                  130376
 Leave Stor2X
 Entering PrmDigJobTyp =                      20
 LenSav and NKeep                       0                       0
 Entered Stor2E with KNTT1,2                     208                  130364
 Leave Stor2X
 Entering PrmDigJobTyp =                      20
 LenSav and NKeep                       0                       0
 Entered Stor2E with KNTT1,2                     226                  130350
 Leave Stor2X
 Entering PrmDigJobTyp =                      20
 LenSav and NKeep                       0                       0
 Entered Stor2E with KNTT1,2                     250                  130342
 Leave Stor2X
 Entering PrmDigJobTyp =                      20
 LenSav and NKeep                       0                       0
 Entered Stor2E with KNTT1,2                     266                  130326
 Leave Stor2X
 Entering PrmDigJobTyp =                      20
 LenSav and NKeep                       0                       0
 Entered Stor2E with KNTT1,2                     266                  130322
 Leave Stor2X
 Entering PrmDigJobTyp =                      20
 LenSav and NKeep                       0                       0
 Entered Stor2E with KNTT1,2                     286                  130304
 Leave Stor2X
 Entering PrmDigJobTyp =                      20
 LenSav and NKeep                       0                       0
 Entered Stor2E with KNTT1,2                     310                  130290
 Leave Stor2X
 Entering PrmDigJobTyp =                      20
 LenSav and NKeep                       0                       0
 Entered Stor2E with KNTT1,2                     332                  130278
 Leave Stor2X
 Entering PrmDigJobTyp =                      20
 LenSav and NKeep                       0                       0
 Entered Stor2E with KNTT1,2                     332                  130264
 Leave Stor2X
 Entering PrmDigJobTyp =                      20
 LenSav and NKeep                       0                       0
 Entered Stor2E with KNTT1,2                     332                  130250
 Leave Stor2X
 Entering PrmDigJobTyp =                      20
 LenSav and NKeep                       0                       0
 Entered Stor2E with KNTT1,2                     332                  130236
 Leave Stor2X
 Entering PrmDigJobTyp =                      20
 LenSav and NKeep                       0                       0
 Entered Stor2E with KNTT1,2                     332                  130222
 Leave Stor2X
 Entering PrmDigJobTyp =                      20
 LenSav and NKeep                       0                       0
 Entered Stor2E with KNTT1,2                     332                  130208
 Leave Stor2X
 Entering PrmDigJobTyp =                      20
 LenSav and NKeep                       0                       0
 Entered Stor2E with KNTT1,2                     332                  130198
 Leave Stor2X
 Entering PrmDigJobTyp =                      20
 LenSav and NKeep                       0                       0
 Entered Stor2E with KNTT1,2                     342                  130188
 Leave Stor2X
 Entering PrmDigJobTyp =                      20
 LenSav and NKeep                       0                       0
 Entered Stor2E with KNTT1,2                     352                  130178
 Leave Stor2X
 Entering PrmDigJobTyp =                      20
 LenSav and NKeep                       0                       0
 Entered Stor2E with KNTT1,2                     370                  130176
 Leave Stor2X
 Entering PrmDigJobTyp =                      20
 LenSav and NKeep                       0                       0
 Entered Stor2E with KNTT1,2                     378                  130164
 Leave Stor2X
 Entering PrmDigJobTyp =                      20
 LenSav and NKeep                       0                       0
 Entered Stor2E with KNTT1,2                     392                  130158
 Leave Stor2X
 Entering PrmDigJobTyp =                      20
 LenSav and NKeep                       0                       0
 Entered Stor2E with KNTT1,2                     392                  130154
 Leave Stor2X
 Entering PrmDigJobTyp =                      20
 LenSav and NKeep                       0                       0
 Entered Stor2E with KNTT1,2                     410                  130146
 Leave Stor2X
 Entering PrmDigJobTyp =                      20
 LenSav and NKeep                       0                       0
 Entered Stor2E with KNTT1,2                     424                  130134
 Leave Stor2X
 Entering PrmDigJobTyp =                      20
 LenSav and NKeep                       0                       0
 Entered Stor2E with KNTT1,2                     440                  130124
 Leave Stor2X
 Entering PrmDigJobTyp =                      20
 LenSav and NKeep                       0                       0
 Entered Stor2E with KNTT1,2                     440                  130122
 Leave Stor2X
 Entering PrmDigJobTyp =                      20
 LenSav and NKeep                       0                       0
 Entered Stor2E with KNTT1,2                     452                  130116
 Leave Stor2X
 Entering PrmDigJobTyp =                      20
 LenSav and NKeep                       0                       0
 Entered Stor2E with KNTT1,2                     452                  130114
 Leave Stor2X
 Entering PrmDigJobTyp =                      20
 LenSav and NKeep                       0                       0
 Entered Stor2E with KNTT1,2                     452                  130090
 Leave Stor2X
 Entering PrmDigJobTyp =                      20
 LenSav and NKeep                       0                       0
 Entered Stor2E with KNTT1,2                     452                  130066
 Leave Stor2X
 Entering PrmDigJobTyp =                      20
 LenSav and NKeep                       0                       0
 Entered Stor2E with KNTT1,2                     452                  130054
 Leave Stor2X
 Entering PrmDigJobTyp =                      20
 LenSav and NKeep                       0                       0
 Entered Stor2E with KNTT1,2                     474                  130038
 Leave Stor2X
 Entering PrmDigJobTyp =                      20
 LenSav and NKeep                       0                       0
 Entered Stor2E with KNTT1,2                     498                  130024
 Leave Stor2X
 Entering PrmDigJobTyp =                      20
 LenSav and NKeep                       0                       0
 Entered Stor2E with KNTT1,2                     498                  130022
 Leave Stor2X
 Entering PrmDigJobTyp =                      20
 LenSav and NKeep                       0                       0
 Entered Stor2E with KNTT1,2                     526                  130004
 Leave Stor2X
 Entering PrmDigJobTyp =                      20
 LenSav and NKeep                       0                       0
 Entered Stor2E with KNTT1,2                     530                  129994
 Leave Stor2X
 Entering PrmDigJobTyp =                      20
 LenSav and NKeep                       0                       0
 Entered Stor2E with KNTT1,2                     546                  129986
 Leave Stor2X
 Entering PrmDigJobTyp =                      20
 LenSav and NKeep                       0                       0
 Entered Stor2E with KNTT1,2                     552                  129980
 Leave Stor2X
 Entering PrmDigJobTyp =                      20
 LenSav and NKeep                       0                       0
 Entered Stor2E with KNTT1,2                     552                  129964
 Leave Stor2X
 Entering PrmDigJobTyp =                      20
 LenSav and NKeep                       0                       0
 Entered Stor2E with KNTT1,2                     552                  129948
 Leave Stor2X
 Entering PrmDigJobTyp =                      20
 LenSav and NKeep                       0                       0
 Entered Stor2E with KNTT1,2                     552                  129932
 Leave Stor2X
 Entering PrmDigJobTyp =                      20
 LenSav and NKeep                       0                       0
 Entered Stor2E with KNTT1,2                     552                  129920
 Leave Stor2X
 Entering PrmDigJobTyp =                      20
 LenSav and NKeep                       0                       0
 Entered Stor2E with KNTT1,2                     568                  129910
 Leave Stor2X
 Entering PrmDigJobTyp =                      20
 LenSav and NKeep                       0                       0
 Entered Stor2E with KNTT1,2                     582                  129898
 Leave Stor2X
 Entering PrmDigJobTyp =                      20
 LenSav and NKeep                       0                       0
 Entered Stor2E with KNTT1,2                     598                  129888
 Leave Stor2X
 Entering PrmDigJobTyp =                      20
 LenSav and NKeep                       0                       0
 Entered Stor2E with KNTT1,2                     618                  129876
 Leave Stor2X
 Entering PrmDigJobTyp =                      20
 LenSav and NKeep                       0                       0
 Entered Stor2E with KNTT1,2                     634                  129864
 Leave Stor2X
 Entering PrmDigJobTyp =                      20
 LenSav and NKeep                       0                       0
 Entered Stor2E with KNTT1,2                     646                  129854
 Leave Stor2X
 Entering PrmDigJobTyp =                      20
 LenSav and NKeep                       0                       0
 Entered Stor2E with KNTT1,2                     646                  129852
 Leave Stor2X
 Entering PrmDigJobTyp =                      20
 LenSav and NKeep                       0                       0
 Entered Stor2E with KNTT1,2                     660                  129848
 Leave Stor2X
 Entering PrmDigJobTyp =                      20
 LenSav and NKeep                       0                       0
 Entered Stor2E with KNTT1,2                     666                  129842
 Leave Stor2X
 Entering PrmDigJobTyp =                      20
 LenSav and NKeep                       0                       0
 Entered Stor2E with KNTT1,2                     666                  129816
 Leave Stor2X
 Entering PrmDigJobTyp =                      20
 LenSav and NKeep                       0                       0
 Entered Stor2E with KNTT1,2                     666                  129790
 Leave Stor2X
 Entering PrmDigJobTyp =                      20
 LenSav and NKeep                       0                       0
 Entered Stor2E with KNTT1,2                     666                  129764
 Leave Stor2X
 Entering PrmDigJobTyp =                      20
 LenSav and NKeep                       0                       0
 Entered Stor2E with KNTT1,2                     666                  129762
 Leave Stor2X
 Entering PrmDigJobTyp =                      20
 LenSav and NKeep                       0                       0
 Entered Stor2E with KNTT1,2                     692                  129748
 Leave Stor2X
 Entering PrmDigJobTyp =                      20
 LenSav and NKeep                       0                       0
 Entered Stor2E with KNTT1,2                     716                  129732
 Leave Stor2X
 Entering PrmDigJobTyp =                      20
 LenSav and NKeep                       0                       0
 Entered Stor2E with KNTT1,2                     730                  129722
 Leave Stor2X
 Entering PrmDigJobTyp =                      20
 LenSav and NKeep                       0                       0
 Entered Stor2E with KNTT1,2                     762                  129704
 Leave Stor2X
 Entering PrmDigJobTyp =                      20
 LenSav and NKeep                       0                       0
 Entered Stor2E with KNTT1,2                     782                  129694
 Leave Stor2X
 Entering PrmDigJobTyp =                      20
 LenSav and NKeep                       0                       0
 Entered Stor2E with KNTT1,2                     802                  129682
 Leave Stor2X
 Entering PrmDigJobTyp =                      20
 LenSav and NKeep                       0                       0
 Entered Stor2E with KNTT1,2                     818                  129674
 Leave Stor2X
 Entering PrmDigJobTyp =                      20
 LenSav and NKeep                       0                       0
 Entered Stor2E with KNTT1,2                     834                  129666
 Leave Stor2X
 Entering PrmDigJobTyp =                      20
 LenSav and NKeep                       0                       0
 Entered Stor2E with KNTT1,2                     846                  129658
 Leave Stor2X
 Entering PrmDigJobTyp =                      20
 LenSav and NKeep                       0                       0
 Entered Stor2E with KNTT1,2                     846                  129628
 Leave Stor2X
 Entering PrmDigJobTyp =                      20
 LenSav and NKeep                       0                       0
 Entered Stor2E with KNTT1,2                     846                  129598
 Leave Stor2X
 Entering PrmDigJobTyp =                      20
 LenSav and NKeep                       0                       0
 Entered Stor2E with KNTT1,2                     846                  129578
 Leave Stor2X
 Entering PrmDigJobTyp =                      20
 LenSav and NKeep                       0                       0
 Entered Stor2E with KNTT1,2                     878                  129564
 Leave Stor2X
 Entering PrmDigJobTyp =                      20
 LenSav and NKeep                       0                       0
 Entered Stor2E with KNTT1,2                     906                  129546
 Leave Stor2X
 Entering PrmDigJobTyp =                      20
 LenSav and NKeep                       0                       0
 Entered Stor2E with KNTT1,2                     914                  129542
 Leave Stor2X
 Entering PrmDigJobTyp =                      20
 LenSav and NKeep                       0                       0
 Entered Stor2E with KNTT1,2                     950                  129520
 Leave Stor2X
 Entering PrmDigJobTyp =                      20
 LenSav and NKeep                       0                       0
 Entered Stor2E with KNTT1,2                     966                  129514
 Leave Stor2X
 Entering PrmDigJobTyp =                      20
 LenSav and NKeep                       0                       0
 Entered Stor2E with KNTT1,2                     990                  129506
 Leave Stor2X
 Entering PrmDigJobTyp =                      20
 LenSav and NKeep                       0                       0
 Entered Stor2E with KNTT1,2                    1002                  129494
 Leave Stor2X
 Entering PrmDigJobTyp =                      20
 LenSav and NKeep                       0                       0
 Entered Stor2E with KNTT1,2                    1022                  129490
 Leave Stor2X
 Entering PrmDigJobTyp =                      20
 LenSav and NKeep                       0                       0
 Entered Stor2E with KNTT1,2                    1038                  129474
 Leave Stor2X
 Entering PrmDigJobTyp =                      20
 LenSav and NKeep                       0                       0
 Entered Stor2E with KNTT1,2                    1046                  129462
 Leave Stor2X
 Entering PrmDigJobTyp =                      20
 LenSav and NKeep                       0                       0
 Entered Stor2E with KNTT1,2                    1046                  129440
 Leave Stor2X
 Entering PrmDigJobTyp =                      20
 LenSav and NKeep                       0                       0
 Entered Stor2E with KNTT1,2                    1046                  129422
 Leave Stor2X
 Entering PrmDigJobTyp =                      20
 LenSav and NKeep                       0                       0
 Entered Stor2E with KNTT1,2                    1066                  129410
 Leave Stor2X
 Entering PrmDigJobTyp =                      20
 LenSav and NKeep                       0                       0
 Entered Stor2E with KNTT1,2                    1078                  129402
 Leave Stor2X
 Entering PrmDigJobTyp =                      20
 LenSav and NKeep                       0                       0
 Entered Stor2E with KNTT1,2                    1106                  129390
 Leave Stor2X
 Entering PrmDigJobTyp =                      20
 LenSav and NKeep                       0                       0
 Entered Stor2E with KNTT1,2                    1114                  129382
 Leave Stor2X
 Entering PrmDigJobTyp =                      20
 LenSav and NKeep                       0                       0
 Entered Stor2E with KNTT1,2                    1126                  129382
 Leave Stor2X
 Entering PrmDigJobTyp =                      20
 LenSav and NKeep                       0                       0
 Entered Stor2E with KNTT1,2                    1130                  129374
 Leave Stor2X
 Entering PrmDigJobTyp =                      20
 LenSav and NKeep                       0                       0
 Entered Stor2E with KNTT1,2                    1138                  129366
 Leave Stor2X
 Entering PrmDigJobTyp =                      20
 LenSav and NKeep                       0                       0
 Entered Stor2E with KNTT1,2                    1150                  129362
 Leave Stor2X
 Entering PrmDigJobTyp =                      20
 LenSav and NKeep                       0                       0
 Entered Stor2E with KNTT1,2                    1152                  129358
 Leave Stor2X
 Entering PrmDigJobTyp =                      20
 LenSav and NKeep                       0                       0
 Entered Stor2E with KNTT1,2                    1152                  129338
 Leave Stor2X
 Entering PrmDigJobTyp =                      20
 LenSav and NKeep                       0                       0
 Entered Stor2E with KNTT1,2                    1170                  129330
 Leave Stor2X
 Entering PrmDigJobTyp =                      20
 LenSav and NKeep                       0                       0
 Entered Stor2E with KNTT1,2                    1182                  129322
 Leave Stor2X
 Entering PrmDigJobTyp =                      20
 LenSav and NKeep                       0                       0
 Entered Stor2E with KNTT1,2                    1190                  129322
 Leave Stor2X
 Entering PrmDigJobTyp =                      20
 LenSav and NKeep                       0                       0
 Entered Stor2E with KNTT1,2                    1192                  129318
 Leave Stor2X
 Entering PrmDigJobTyp =                      20
 LenSav and NKeep                       0                       0
 Entered Stor2E with KNTT1,2                    1198                  129318
 Leave Stor2X
 Entering PrmDigJobTyp =                      20
 LenSav and NKeep                       0                       0
 Entered Stor2E with KNTT1,2                    1202                  129314
 Leave Stor2X
 Entering PrmDigJobTyp =                      20
 LenSav and NKeep                       0                       0
 Entered Stor2E with KNTT1,2                    1202                  129306
 Leave Stor2X
 Entering PrmDigJobTyp =                      20
 LenSav and NKeep                       0                       0
 Entered Stor2E with KNTT1,2                    1206                  129306
 Leave Stor2X
 Entering PrmDigJobTyp =                      20
 LenSav and NKeep                       0                       0
 Entered Stor2E with KNTT1,2                    1206                  129304
 Leave Stor2X
 Entering PrmDigJobTyp =                      20
 LenSav and NKeep                       0                       0
 Entered Stor2E with KNTT1,2                    1206                  129284
 Leave Stor2X
 Entering PrmDigJobTyp =                      20
 LenSav and NKeep                       0                       0
 Entered Stor2E with KNTT1,2                    1224                  129276
 Leave Stor2X
 Entering PrmDigJobTyp =                      20
 LenSav and NKeep                       0                       0
 Entered Stor2E with KNTT1,2                    1240                  129272
 Leave Stor2X
 Entering PrmDigJobTyp =                      20
 LenSav and NKeep                       0                       0
 Entered Stor2E with KNTT1,2                    1244                  129268
 Leave Stor2X
 Entering PrmDigJobTyp =                      20
 LenSav and NKeep                       0                       0
 Entered Stor2E with KNTT1,2                    1250                  129268
 Leave Stor2X
 Entering PrmDigJobTyp =                      20
 LenSav and NKeep                       0                       0
 Entered Stor2E with KNTT1,2                    1252                  129264
 Leave Stor2X
 Entering PrmDigJobTyp =                      20
 LenSav and NKeep                       0                       0
 Entered Stor2E with KNTT1,2                    1256                  129260
 Leave Stor2X
 Entering PrmDigJobTyp =                      20
 LenSav and NKeep                       0                       0
 Entered Stor2E with KNTT1,2                    1260                  129256
 Leave Stor2X
 Entering PrmDigJobTyp =                      20
 LenSav and NKeep                       0                       0
 Entered Stor2E with KNTT1,2                    1260                  129252
 Leave Stor2X
 Entering PrmDigJobTyp =                      20
 LenSav and NKeep                       0                       0
 Entered Stor2E with KNTT1,2                    1262                  129252
 Leave Stor2X
 In PrSumR
 Called IWRITE
         1540 integrals produced for a total of         1540.
 ExpMin= 3.16D-02 ExpMax= 1.00D+03 ExpMxC= 1.00D+01 IAcc=3 IRadAn=         5 AccDes= 0.00D+00
 Harris functional with IExCor=  205 and IRadAn=       5 diagonalized for initial guess.
 HarFok:  IExCor=  205 AccDes= 0.00D+00 IRadAn=         5 IDoV= 1 UseB2=F ITyADJ=14
 ICtDFT=  3500011 ScaDFX=  1.000000  1.000000  1.000000  1.000000
 FoFCou: FMM=F IPFlag=           0 FMFlag=      100000 FMFlg1=           0
         NFxFlg=           0 DoJE=T BraDBF=F KetDBF=T FulRan=T
         wScrn=  0.000000 ICntrl=     500 IOpCl=  0 I1Cent=   200000004 NGrid=           0
         NMat0=    1 NMatS0=      1 NMatT0=    0 NMatD0=    1 NMtDS0=    0 NMtDT0=    0
 Petite list used in FoFCou.
 Mixing orbitals, IMix= 3 IMixAn=  0 NRI=2 NE=   10 Coef=  7.07106781D-01  7.07106781D-01
 Also mixing orbitals    10 and    12 Coef=  3.82683432D-01  9.23879533D-01
 Initial guess <Sx>= 0.0000 <Sy>=-0.2500 <Sz>= 0.4268 <S**2>= 1.0000 S= 0.6180
 Two-electron integrals will be kept in memory, NGetB=      152788.
 Requested convergence on RMS density matrix=1.00D-08 within 128 cycles.
 Requested convergence on MAX density matrix=1.00D-06.
 Requested convergence on             energy=1.00D-06.
 No special actions if energy rises.
 ************************************************
 *READING THE YAODEN.PDM FILE TO GET NEW DENSITY*
 ************************************************
 EnCoef did   100 forward-backward iterations
 EnCoef did    90 forward-backward iterations
 EnCoef did   100 forward-backward iterations
 EnCoef did   100 forward-backward iterations
 EnCoef did   100 forward-backward iterations
 EnCoef did   100 forward-backward iterations
 Rare condition: small coef for last iteration: -0.244D-14
 EnCoef did    78 forward-backward iterations
 EnCoef did   100 forward-backward iterations
 EnCoef did   100 forward-backward iterations
 Rare condition: small coef for last iteration: -0.444D-15
 EnCoef did    77 forward-backward iterations
 Rare condition: small coef for last iteration:  0.133D-14
 EnCoef did    77 forward-backward iterations
 Rare condition: small coef for last iteration:  0.155D-14
 EnCoef did    76 forward-backward iterations
 Rare condition: small coef for last iteration: -0.222D-15
 EnCoef did    76 forward-backward iterations
 Rare condition: small coef for last iteration:  0.377D-14
 EnCoef did    76 forward-backward iterations
 Matrix for removal  3 Erem= -3.22228475736743     Crem= 0.000D+00
 Rare condition: small coef for last iteration:  0.278D-14
 Matrix for removal  3 Erem= -4.11685713745594     Crem= 0.000D+00
 SCF Done:  E(GHF) =  -5.13137246973     A.U. after   63 cycles
            NFock= 63  Conv=0.62D-09     -V/T= 1.9674
 <Sx>=-0.9064 <Sy>=-0.3806 <Sz>= 0.1833 <S**2>= 2.0010 S= 1.0003
 <L.S>= 0.000000000000E+00
 Range of M.O.s used for correlation:     1    10
 NBasis=    10 NAE=    10 NBE=     0 NFC=     0 NFV=     0
 NROrb=     20 NOA=    10 NOB=     0 NVA=    10 NVB=     0
 jaja DoHack is true or false? T
 jaja in hckghf.F, NBasis=                      10
 jaja in hckGHF/FixOG, LC =                      800
 jaja in hckGHF/FixOG, IRwC=                      548
 bfr conversion (real):
                 1             2             3             4             5 
      1a  0.121818D+00  0.753589D-01  0.213662D+00  0.158020D+00  0.222427D+00
      1b -0.933125D-01  0.983795D-01 -0.163666D+00  0.206291D+00 -0.170380D+00
      2a  0.374190D-01 -0.906349D-03  0.940387D-01  0.391166D-02  0.198761D+00
      2b -0.286631D-01 -0.118322D-02 -0.720339D-01  0.510659D-02 -0.152251D+00
      3a  0.178712D+00  0.153129D+00  0.125756D+00  0.126828D+00 -0.165305D+00
      3b -0.136894D+00  0.199906D+00 -0.963293D-01  0.165572D+00  0.126624D+00
      4a  0.130612D+00  0.878201D-01  0.221888D+00  0.175577D+00  0.213719D+00
      4b -0.100049D+00  0.114647D+00 -0.169967D+00  0.229213D+00 -0.163709D+00
      5a  0.184456D+00  0.151383D+00 -0.113685D+00 -0.111179D+00 -0.193961D+00
      5b -0.141294D+00  0.197627D+00  0.870833D-01 -0.145142D+00  0.148575D+00
      6a  0.184456D+00  0.151383D+00  0.113685D+00  0.111179D+00 -0.193961D+00
      6b -0.141294D+00  0.197627D+00 -0.870833D-01  0.145142D+00  0.148575D+00
      7a  0.130612D+00  0.878201D-01 -0.221888D+00 -0.175577D+00  0.213719D+00
      7b -0.100049D+00  0.114647D+00  0.169967D+00 -0.229213D+00 -0.163709D+00
      8a  0.178712D+00  0.153129D+00 -0.125756D+00 -0.126828D+00 -0.165305D+00
      8b -0.136894D+00  0.199906D+00  0.963293D-01 -0.165572D+00  0.126624D+00
      9a  0.374190D-01 -0.906350D-03 -0.940387D-01 -0.391166D-02  0.198761D+00
      9b -0.286631D-01 -0.118322D-02  0.720339D-01 -0.510659D-02 -0.152251D+00
     10a  0.121818D+00  0.753589D-01 -0.213662D+00 -0.158020D+00  0.222427D+00
     10b -0.933126D-01  0.983795D-01  0.163666D+00 -0.206291D+00 -0.170380D+00
                 6             7             8             9            10 
      1a  0.219457D+00  0.679156D-01 -0.183140D+00 -0.239555D+00 -0.293816D+00
      1b  0.286496D+00 -0.520235D-01 -0.239085D+00  0.183499D+00  0.225064D+00
      2a  0.209380D-01  0.364658D+00 -0.377697D-01  0.558634D+00  0.460772D+00
      2b  0.273342D-01 -0.279329D+00 -0.493075D-01 -0.427915D+00 -0.352952D+00
      3a -0.125488D+00 -0.297654D+00  0.296971D+00  0.589712D-01  0.258144D+00
      3b -0.163822D+00  0.228004D+00  0.387689D+00 -0.451721D-01 -0.197739D+00
      4a  0.222953D+00  0.437132D-01 -0.160839D+00 -0.222584D+00 -0.247252D+00
      4b  0.291061D+00 -0.334844D-01 -0.209972D+00  0.170500D+00  0.189396D+00
      5a -0.145409D+00  0.285367D+00 -0.276396D+00  0.103494D+00 -0.274799D+00
      5b -0.189828D+00 -0.218591D+00 -0.360829D+00 -0.792764D-01  0.210497D+00
      6a -0.145409D+00 -0.285367D+00  0.276396D+00  0.103494D+00  0.274799D+00
      6b -0.189828D+00  0.218591D+00  0.360829D+00 -0.792763D-01 -0.210497D+00
      7a  0.222953D+00 -0.437132D-01  0.160839D+00 -0.222584D+00  0.247252D+00
      7b  0.291061D+00  0.334844D-01  0.209972D+00  0.170500D+00 -0.189396D+00
      8a -0.125488D+00  0.297654D+00 -0.296971D+00  0.589712D-01 -0.258144D+00
      8b -0.163822D+00 -0.228004D+00 -0.387689D+00 -0.451721D-01  0.197739D+00
      9a  0.209380D-01 -0.364658D+00  0.377697D-01  0.558634D+00 -0.460772D+00
      9b  0.273342D-01  0.279329D+00  0.493076D-01 -0.427915D+00  0.352952D+00
     10a  0.219457D+00 -0.679156D-01  0.183140D+00 -0.239555D+00  0.293816D+00
     10b  0.286496D+00  0.520235D-01  0.239085D+00  0.183499D+00 -0.225064D+00
                11            12            13            14            15 
      1a -0.140350D+00 -0.227812D+00  0.320407D+00  0.155342D+00 -0.590577D+00
      1b -0.183224D+00 -0.297404D+00 -0.245433D+00  0.202796D+00  0.452383D+00
      2a  0.451256D+00  0.393306D+00  0.262818D-01  0.228162D+00 -0.246299D-01
      2b  0.589106D+00  0.513453D+00 -0.201319D-01  0.297861D+00  0.188666D-01
      3a -0.267022D-01 -0.145306D+00  0.539843D+00  0.387328D+00 -0.384628D+00
      3b -0.348592D-01 -0.189694D+00 -0.413521D+00  0.505649D+00  0.294626D+00
      4a -0.831009D-01  0.272692D-01 -0.388633D+00 -0.308077D+00  0.660993D+00
      4b -0.108486D+00  0.355994D-01  0.297694D+00 -0.402188D+00 -0.506322D+00
      5a  0.771920D-01 -0.252678D+00  0.525899D+00  0.336663D+00  0.301867D+00
      5b  0.100773D+00 -0.329866D+00 -0.402840D+00  0.439506D+00 -0.231231D+00
      6a  0.771920D-01  0.252678D+00 -0.525899D+00 -0.336663D+00  0.301867D+00
      6b  0.100773D+00  0.329866D+00  0.402840D+00 -0.439506D+00 -0.231231D+00
      7a -0.831009D-01 -0.272692D-01  0.388633D+00  0.308077D+00  0.660993D+00
      7b -0.108486D+00 -0.355994D-01 -0.297694D+00  0.402188D+00 -0.506322D+00
      8a -0.267022D-01  0.145306D+00 -0.539843D+00 -0.387328D+00 -0.384628D+00
      8b -0.348592D-01  0.189694D+00  0.413521D+00 -0.505649D+00  0.294626D+00
      9a  0.451256D+00 -0.393306D+00 -0.262818D-01 -0.228162D+00 -0.246299D-01
      9b  0.589106D+00 -0.513453D+00  0.201319D-01 -0.297861D+00  0.188666D-01
     10a -0.140350D+00  0.227812D+00 -0.320407D+00 -0.155342D+00 -0.590577D+00
     10b -0.183224D+00  0.297404D+00  0.245433D+00 -0.202796D+00  0.452383D+00
                16            17            18            19            20 
      1a -0.440792D+00 -0.682120D+00 -0.528069D+00 -0.490643D+00 -0.386619D+00
      1b -0.575444D+00  0.522506D+00 -0.689382D+00  0.375834D+00 -0.504723D+00
      2a -0.521230D-01 -0.999798D-03  0.218371D-02  0.230979D-01  0.315300D-01
      2b -0.680455D-01  0.765848D-03  0.285079D-02 -0.176931D-01  0.411617D-01
      3a -0.301839D+00  0.389367D+00  0.291389D+00  0.830340D+00  0.630201D+00
      3b -0.394044D+00 -0.298256D+00  0.380403D+00 -0.636042D+00  0.822714D+00
      4a  0.505135D+00  0.688721D+00  0.529597D+00  0.413695D+00  0.321209D+00
      4b  0.659443D+00 -0.527562D+00  0.691377D+00 -0.316892D+00  0.419332D+00
      5a  0.238018D+00  0.519155D+00  0.392627D+00 -0.790877D+00 -0.601772D+00
      5b  0.310727D+00 -0.397674D+00  0.512566D+00  0.605814D+00 -0.785601D+00
      6a  0.238018D+00 -0.519155D+00 -0.392627D+00 -0.790877D+00 -0.601772D+00
      6b  0.310727D+00  0.397674D+00 -0.512566D+00  0.605814D+00 -0.785601D+00
      7a  0.505135D+00 -0.688721D+00 -0.529597D+00  0.413695D+00  0.321209D+00
      7b  0.659443D+00  0.527562D+00 -0.691377D+00 -0.316892D+00  0.419332D+00
      8a -0.301839D+00 -0.389367D+00 -0.291389D+00  0.830340D+00  0.630201D+00
      8b -0.394044D+00  0.298256D+00 -0.380403D+00 -0.636042D+00  0.822714D+00
      9a -0.521230D-01  0.999798D-03 -0.218371D-02  0.230979D-01  0.315300D-01
      9b -0.680455D-01 -0.765848D-03 -0.285079D-02 -0.176931D-01  0.411617D-01
     10a -0.440792D+00  0.682120D+00  0.528069D+00 -0.490643D+00 -0.386619D+00
     10b -0.575444D+00 -0.522506D+00  0.689382D+00  0.375834D+00 -0.504723D+00
 bfr conversion (imaginary):
                 1             2             3             4             5 
      1a  0.000000D+00 -0.316408D-01  0.000000D+00 -0.663472D-01  0.000000D+00
      1b -0.391789D-01  0.000000D+00 -0.687178D-01  0.000000D+00 -0.715368D-01
      2a  0.000000D+00  0.380546D-03  0.000000D+00 -0.164238D-02  0.000000D+00
      2b -0.120347D-01  0.000000D+00 -0.302447D-01  0.000000D+00 -0.639253D-01
      3a  0.000000D+00 -0.642937D-01  0.000000D+00 -0.532511D-01  0.000000D+00
      3b -0.574772D-01  0.000000D+00 -0.404455D-01  0.000000D+00  0.531652D-01
      4a  0.000000D+00 -0.368728D-01  0.000000D+00 -0.737193D-01  0.000000D+00
      4b -0.420073D-01  0.000000D+00 -0.713636D-01  0.000000D+00 -0.687362D-01
      5a  0.000000D+00 -0.635606D-01  0.000000D+00  0.466804D-01  0.000000D+00
      5b -0.593248D-01  0.000000D+00  0.365634D-01  0.000000D+00  0.623818D-01
      6a  0.000000D+00 -0.635606D-01  0.000000D+00 -0.466804D-01  0.000000D+00
      6b -0.593248D-01  0.000000D+00 -0.365634D-01  0.000000D+00  0.623818D-01
      7a  0.000000D+00 -0.368728D-01  0.000000D+00  0.737193D-01  0.000000D+00
      7b -0.420073D-01  0.000000D+00  0.713636D-01  0.000000D+00 -0.687362D-01
      8a  0.000000D+00 -0.642937D-01  0.000000D+00  0.532511D-01  0.000000D+00
      8b -0.574772D-01  0.000000D+00  0.404455D-01  0.000000D+00  0.531652D-01
      9a  0.000000D+00  0.380546D-03  0.000000D+00  0.164238D-02  0.000000D+00
      9b -0.120347D-01  0.000000D+00  0.302447D-01  0.000000D+00 -0.639253D-01
     10a  0.000000D+00 -0.316408D-01  0.000000D+00  0.663472D-01  0.000000D+00
     10b -0.391789D-01  0.000000D+00  0.687178D-01  0.000000D+00 -0.715368D-01
                 6             7             8             9            10 
      1a -0.921428D-01  0.000000D+00  0.768944D-01  0.000000D+00  0.000000D+00
      1b  0.000000D+00 -0.218430D-01  0.000000D+00  0.770454D-01  0.944969D-01
      2a -0.879120D-02  0.000000D+00  0.158583D-01  0.000000D+00  0.000000D+00
      2b  0.000000D+00 -0.117281D+00  0.000000D+00 -0.179668D+00 -0.148193D+00
      3a  0.526885D-01  0.000000D+00 -0.124688D+00  0.000000D+00  0.000000D+00
      3b  0.000000D+00  0.957313D-01  0.000000D+00 -0.189663D-01 -0.830241D-01
      4a -0.936108D-01  0.000000D+00  0.675309D-01  0.000000D+00  0.000000D+00
      4b  0.000000D+00 -0.140590D-01  0.000000D+00  0.715873D-01  0.795211D-01
      5a  0.610525D-01  0.000000D+00  0.116050D+00  0.000000D+00  0.000000D+00
      5b  0.000000D+00 -0.917794D-01  0.000000D+00 -0.332855D-01  0.883807D-01
      6a  0.610525D-01  0.000000D+00 -0.116050D+00  0.000000D+00  0.000000D+00
      6b  0.000000D+00  0.917794D-01  0.000000D+00 -0.332855D-01 -0.883807D-01
      7a -0.936108D-01  0.000000D+00 -0.675309D-01  0.000000D+00  0.000000D+00
      7b  0.000000D+00  0.140590D-01  0.000000D+00  0.715873D-01 -0.795211D-01
      8a  0.526885D-01  0.000000D+00  0.124688D+00  0.000000D+00  0.000000D+00
      8b  0.000000D+00 -0.957313D-01  0.000000D+00 -0.189663D-01  0.830241D-01
      9a -0.879120D-02  0.000000D+00 -0.158583D-01  0.000000D+00  0.000000D+00
      9b  0.000000D+00  0.117281D+00  0.000000D+00 -0.179668D+00  0.148193D+00
     10a -0.921428D-01  0.000000D+00 -0.768944D-01  0.000000D+00  0.000000D+00
     10b  0.000000D+00  0.218430D-01  0.000000D+00  0.770454D-01 -0.944969D-01
                11            12            13            14            15 
      1a  0.589284D-01  0.956508D-01  0.000000D+00 -0.652231D-01  0.000000D+00
      1b  0.000000D+00  0.000000D+00 -0.103049D+00  0.000000D+00  0.189941D+00
      2a -0.189468D+00 -0.165136D+00  0.000000D+00 -0.957980D-01  0.000000D+00
      2b  0.000000D+00  0.000000D+00 -0.845274D-02  0.000000D+00  0.792145D-02
      3a  0.112114D-01  0.610093D-01  0.000000D+00 -0.162626D+00  0.000000D+00
      3b  0.000000D+00  0.000000D+00 -0.173624D+00  0.000000D+00  0.123704D+00
      4a  0.348913D-01 -0.114494D-01  0.000000D+00  0.129351D+00  0.000000D+00
      4b  0.000000D+00  0.000000D+00  0.124992D+00  0.000000D+00 -0.212588D+00
      5a -0.324104D-01  0.106091D+00  0.000000D+00 -0.141354D+00  0.000000D+00
      5b  0.000000D+00  0.000000D+00 -0.169139D+00  0.000000D+00 -0.970863D-01
      6a -0.324104D-01 -0.106091D+00  0.000000D+00  0.141354D+00  0.000000D+00
      6b  0.000000D+00  0.000000D+00  0.169139D+00  0.000000D+00 -0.970863D-01
      7a  0.348913D-01  0.114494D-01  0.000000D+00 -0.129351D+00  0.000000D+00
      7b  0.000000D+00  0.000000D+00 -0.124992D+00  0.000000D+00 -0.212588D+00
      8a  0.112114D-01 -0.610093D-01  0.000000D+00  0.162626D+00  0.000000D+00
      8b  0.000000D+00  0.000000D+00  0.173624D+00  0.000000D+00  0.123704D+00
      9a -0.189468D+00  0.165136D+00  0.000000D+00  0.957980D-01  0.000000D+00
      9b  0.000000D+00  0.000000D+00  0.845274D-02  0.000000D+00  0.792145D-02
     10a  0.589284D-01 -0.956508D-01  0.000000D+00  0.652231D-01  0.000000D+00
     10b  0.000000D+00  0.000000D+00  0.103049D+00  0.000000D+00  0.189941D+00
                16            17            18            19            20 
      1a  0.185074D+00  0.000000D+00  0.221719D+00  0.000000D+00  0.162329D+00
      1b  0.000000D+00  0.219383D+00  0.000000D+00  0.157800D+00  0.000000D+00
      2a  0.218848D-01  0.000000D+00 -0.916869D-03  0.000000D+00 -0.132384D-01
      2b  0.000000D+00  0.321554D-03  0.000000D+00 -0.742874D-02  0.000000D+00
      3a  0.126732D+00  0.000000D+00 -0.122345D+00  0.000000D+00 -0.264601D+00
      3b  0.000000D+00 -0.125228D+00  0.000000D+00 -0.267053D+00  0.000000D+00
      4a -0.212090D+00  0.000000D+00 -0.222360D+00  0.000000D+00 -0.134865D+00
      4b  0.000000D+00 -0.221506D+00  0.000000D+00 -0.133052D+00  0.000000D+00
      5a -0.999359D-01  0.000000D+00 -0.164851D+00  0.000000D+00  0.252664D+00
      5b  0.000000D+00 -0.166970D+00  0.000000D+00  0.254361D+00  0.000000D+00
      6a -0.999359D-01  0.000000D+00  0.164851D+00  0.000000D+00  0.252664D+00
      6b  0.000000D+00  0.166970D+00  0.000000D+00  0.254361D+00  0.000000D+00
      7a -0.212090D+00  0.000000D+00  0.222360D+00  0.000000D+00 -0.134865D+00
      7b  0.000000D+00  0.221506D+00  0.000000D+00 -0.133052D+00  0.000000D+00
      8a  0.126732D+00  0.000000D+00  0.122345D+00  0.000000D+00 -0.264601D+00
      8b  0.000000D+00  0.125228D+00  0.000000D+00 -0.267053D+00  0.000000D+00
      9a  0.218848D-01  0.000000D+00  0.916869D-03  0.000000D+00 -0.132384D-01
      9b  0.000000D+00 -0.321554D-03  0.000000D+00 -0.742874D-02  0.000000D+00
     10a  0.185074D+00  0.000000D+00 -0.221719D+00  0.000000D+00  0.162329D+00
     10b  0.000000D+00 -0.219383D+00  0.000000D+00  0.157800D+00  0.000000D+00
 afr conversion (alpha, real):
                 1             2             3             4             5 
      1   0.121818D+00  0.753589D-01  0.213662D+00  0.158020D+00  0.222427D+00
      2   0.374190D-01 -0.906349D-03  0.940387D-01  0.391166D-02  0.198761D+00
      3   0.178712D+00  0.153129D+00  0.125756D+00  0.126828D+00 -0.165305D+00
      4   0.130612D+00  0.878201D-01  0.221888D+00  0.175577D+00  0.213719D+00
      5   0.184456D+00  0.151383D+00 -0.113685D+00 -0.111179D+00 -0.193961D+00
      6   0.184456D+00  0.151383D+00  0.113685D+00  0.111179D+00 -0.193961D+00
      7   0.130612D+00  0.878201D-01 -0.221888D+00 -0.175577D+00  0.213719D+00
      8   0.178712D+00  0.153129D+00 -0.125756D+00 -0.126828D+00 -0.165305D+00
      9   0.374190D-01 -0.906350D-03 -0.940387D-01 -0.391166D-02  0.198761D+00
     10   0.121818D+00  0.753589D-01 -0.213662D+00 -0.158020D+00  0.222427D+00
                 6             7             8             9            10 
      1   0.219457D+00  0.679156D-01 -0.183140D+00 -0.239555D+00 -0.293816D+00
      2   0.209380D-01  0.364658D+00 -0.377697D-01  0.558634D+00  0.460772D+00
      3  -0.125488D+00 -0.297654D+00  0.296971D+00  0.589712D-01  0.258144D+00
      4   0.222953D+00  0.437132D-01 -0.160839D+00 -0.222584D+00 -0.247252D+00
      5  -0.145409D+00  0.285367D+00 -0.276396D+00  0.103494D+00 -0.274799D+00
      6  -0.145409D+00 -0.285367D+00  0.276396D+00  0.103494D+00  0.274799D+00
      7   0.222953D+00 -0.437132D-01  0.160839D+00 -0.222584D+00  0.247252D+00
      8  -0.125488D+00  0.297654D+00 -0.296971D+00  0.589712D-01 -0.258144D+00
      9   0.209380D-01 -0.364658D+00  0.377697D-01  0.558634D+00 -0.460772D+00
     10   0.219457D+00 -0.679156D-01  0.183140D+00 -0.239555D+00  0.293816D+00
                11            12            13            14            15 
      1  -0.140350D+00 -0.227812D+00  0.320407D+00  0.155342D+00 -0.590577D+00
      2   0.451256D+00  0.393306D+00  0.262818D-01  0.228162D+00 -0.246299D-01
      3  -0.267022D-01 -0.145306D+00  0.539843D+00  0.387328D+00 -0.384628D+00
      4  -0.831009D-01  0.272692D-01 -0.388633D+00 -0.308077D+00  0.660993D+00
      5   0.771920D-01 -0.252678D+00  0.525899D+00  0.336663D+00  0.301867D+00
      6   0.771920D-01  0.252678D+00 -0.525899D+00 -0.336663D+00  0.301867D+00
      7  -0.831009D-01 -0.272692D-01  0.388633D+00  0.308077D+00  0.660993D+00
      8  -0.267022D-01  0.145306D+00 -0.539843D+00 -0.387328D+00 -0.384628D+00
      9   0.451256D+00 -0.393306D+00 -0.262818D-01 -0.228162D+00 -0.246299D-01
     10  -0.140350D+00  0.227812D+00 -0.320407D+00 -0.155342D+00 -0.590577D+00
                16            17            18            19            20 
      1  -0.440792D+00 -0.682120D+00 -0.528069D+00 -0.490643D+00 -0.386619D+00
      2  -0.521230D-01 -0.999798D-03  0.218371D-02  0.230979D-01  0.315300D-01
      3  -0.301839D+00  0.389367D+00  0.291389D+00  0.830340D+00  0.630201D+00
      4   0.505135D+00  0.688721D+00  0.529597D+00  0.413695D+00  0.321209D+00
      5   0.238018D+00  0.519155D+00  0.392627D+00 -0.790877D+00 -0.601772D+00
      6   0.238018D+00 -0.519155D+00 -0.392627D+00 -0.790877D+00 -0.601772D+00
      7   0.505135D+00 -0.688721D+00 -0.529597D+00  0.413695D+00  0.321209D+00
      8  -0.301839D+00 -0.389367D+00 -0.291389D+00  0.830340D+00  0.630201D+00
      9  -0.521230D-01  0.999798D-03 -0.218371D-02  0.230979D-01  0.315300D-01
     10  -0.440792D+00  0.682120D+00  0.528069D+00 -0.490643D+00 -0.386619D+00
 afr conversion (alpha, imaginary):
                 1             2             3             4             5 
      1   0.000000D+00 -0.316408D-01  0.000000D+00 -0.663472D-01  0.000000D+00
      2   0.000000D+00  0.380546D-03  0.000000D+00 -0.164238D-02  0.000000D+00
      3   0.000000D+00 -0.642937D-01  0.000000D+00 -0.532511D-01  0.000000D+00
      4   0.000000D+00 -0.368728D-01  0.000000D+00 -0.737193D-01  0.000000D+00
      5   0.000000D+00 -0.635606D-01  0.000000D+00  0.466804D-01  0.000000D+00
      6   0.000000D+00 -0.635606D-01  0.000000D+00 -0.466804D-01  0.000000D+00
      7   0.000000D+00 -0.368728D-01  0.000000D+00  0.737193D-01  0.000000D+00
      8   0.000000D+00 -0.642937D-01  0.000000D+00  0.532511D-01  0.000000D+00
      9   0.000000D+00  0.380546D-03  0.000000D+00  0.164238D-02  0.000000D+00
     10   0.000000D+00 -0.316408D-01  0.000000D+00  0.663472D-01  0.000000D+00
                 6             7             8             9            10 
      1  -0.921428D-01  0.000000D+00  0.768944D-01  0.000000D+00  0.000000D+00
      2  -0.879120D-02  0.000000D+00  0.158583D-01  0.000000D+00  0.000000D+00
      3   0.526885D-01  0.000000D+00 -0.124688D+00  0.000000D+00  0.000000D+00
      4  -0.936108D-01  0.000000D+00  0.675309D-01  0.000000D+00  0.000000D+00
      5   0.610525D-01  0.000000D+00  0.116050D+00  0.000000D+00  0.000000D+00
      6   0.610525D-01  0.000000D+00 -0.116050D+00  0.000000D+00  0.000000D+00
      7  -0.936108D-01  0.000000D+00 -0.675309D-01  0.000000D+00  0.000000D+00
      8   0.526885D-01  0.000000D+00  0.124688D+00  0.000000D+00  0.000000D+00
      9  -0.879120D-02  0.000000D+00 -0.158583D-01  0.000000D+00  0.000000D+00
     10  -0.921428D-01  0.000000D+00 -0.768944D-01  0.000000D+00  0.000000D+00
                11            12            13            14            15 
      1   0.589284D-01  0.956508D-01  0.000000D+00 -0.652231D-01  0.000000D+00
      2  -0.189468D+00 -0.165136D+00  0.000000D+00 -0.957980D-01  0.000000D+00
      3   0.112114D-01  0.610093D-01  0.000000D+00 -0.162626D+00  0.000000D+00
      4   0.348913D-01 -0.114494D-01  0.000000D+00  0.129351D+00  0.000000D+00
      5  -0.324104D-01  0.106091D+00  0.000000D+00 -0.141354D+00  0.000000D+00
      6  -0.324104D-01 -0.106091D+00  0.000000D+00  0.141354D+00  0.000000D+00
      7   0.348913D-01  0.114494D-01  0.000000D+00 -0.129351D+00  0.000000D+00
      8   0.112114D-01 -0.610093D-01  0.000000D+00  0.162626D+00  0.000000D+00
      9  -0.189468D+00  0.165136D+00  0.000000D+00  0.957980D-01  0.000000D+00
     10   0.589284D-01 -0.956508D-01  0.000000D+00  0.652231D-01  0.000000D+00
                16            17            18            19            20 
      1   0.185074D+00  0.000000D+00  0.221719D+00  0.000000D+00  0.162329D+00
      2   0.218848D-01  0.000000D+00 -0.916869D-03  0.000000D+00 -0.132384D-01
      3   0.126732D+00  0.000000D+00 -0.122345D+00  0.000000D+00 -0.264601D+00
      4  -0.212090D+00  0.000000D+00 -0.222360D+00  0.000000D+00 -0.134865D+00
      5  -0.999359D-01  0.000000D+00 -0.164851D+00  0.000000D+00  0.252664D+00
      6  -0.999359D-01  0.000000D+00  0.164851D+00  0.000000D+00  0.252664D+00
      7  -0.212090D+00  0.000000D+00  0.222360D+00  0.000000D+00 -0.134865D+00
      8   0.126732D+00  0.000000D+00  0.122345D+00  0.000000D+00 -0.264601D+00
      9   0.218848D-01  0.000000D+00  0.916869D-03  0.000000D+00 -0.132384D-01
     10   0.185074D+00  0.000000D+00 -0.221719D+00  0.000000D+00  0.162329D+00
 afr conversion (beta, real):
                 1             2             3             4             5 
      1  -0.933125D-01  0.983795D-01 -0.163666D+00  0.206291D+00 -0.170380D+00
      2  -0.286631D-01 -0.118322D-02 -0.720339D-01  0.510659D-02 -0.152251D+00
      3  -0.136894D+00  0.199906D+00 -0.963293D-01  0.165572D+00  0.126624D+00
      4  -0.100049D+00  0.114647D+00 -0.169967D+00  0.229213D+00 -0.163709D+00
      5  -0.141294D+00  0.197627D+00  0.870833D-01 -0.145142D+00  0.148575D+00
      6  -0.141294D+00  0.197627D+00 -0.870833D-01  0.145142D+00  0.148575D+00
      7  -0.100049D+00  0.114647D+00  0.169967D+00 -0.229213D+00 -0.163709D+00
      8  -0.136894D+00  0.199906D+00  0.963293D-01 -0.165572D+00  0.126624D+00
      9  -0.286631D-01 -0.118322D-02  0.720339D-01 -0.510659D-02 -0.152251D+00
     10  -0.933126D-01  0.983795D-01  0.163666D+00 -0.206291D+00 -0.170380D+00
                 6             7             8             9            10 
      1   0.286496D+00 -0.520235D-01 -0.239085D+00  0.183499D+00  0.225064D+00
      2   0.273342D-01 -0.279329D+00 -0.493075D-01 -0.427915D+00 -0.352952D+00
      3  -0.163822D+00  0.228004D+00  0.387689D+00 -0.451721D-01 -0.197739D+00
      4   0.291061D+00 -0.334844D-01 -0.209972D+00  0.170500D+00  0.189396D+00
      5  -0.189828D+00 -0.218591D+00 -0.360829D+00 -0.792764D-01  0.210497D+00
      6  -0.189828D+00  0.218591D+00  0.360829D+00 -0.792763D-01 -0.210497D+00
      7   0.291061D+00  0.334844D-01  0.209972D+00  0.170500D+00 -0.189396D+00
      8  -0.163822D+00 -0.228004D+00 -0.387689D+00 -0.451721D-01  0.197739D+00
      9   0.273342D-01  0.279329D+00  0.493076D-01 -0.427915D+00  0.352952D+00
     10   0.286496D+00  0.520235D-01  0.239085D+00  0.183499D+00 -0.225064D+00
                11            12            13            14            15 
      1  -0.183224D+00 -0.297404D+00 -0.245433D+00  0.202796D+00  0.452383D+00
      2   0.589106D+00  0.513453D+00 -0.201319D-01  0.297861D+00  0.188666D-01
      3  -0.348592D-01 -0.189694D+00 -0.413521D+00  0.505649D+00  0.294626D+00
      4  -0.108486D+00  0.355994D-01  0.297694D+00 -0.402188D+00 -0.506322D+00
      5   0.100773D+00 -0.329866D+00 -0.402840D+00  0.439506D+00 -0.231231D+00
      6   0.100773D+00  0.329866D+00  0.402840D+00 -0.439506D+00 -0.231231D+00
      7  -0.108486D+00 -0.355994D-01 -0.297694D+00  0.402188D+00 -0.506322D+00
      8  -0.348592D-01  0.189694D+00  0.413521D+00 -0.505649D+00  0.294626D+00
      9   0.589106D+00 -0.513453D+00  0.201319D-01 -0.297861D+00  0.188666D-01
     10  -0.183224D+00  0.297404D+00  0.245433D+00 -0.202796D+00  0.452383D+00
                16            17            18            19            20 
      1  -0.575444D+00  0.522506D+00 -0.689382D+00  0.375834D+00 -0.504723D+00
      2  -0.680455D-01  0.765848D-03  0.285079D-02 -0.176931D-01  0.411617D-01
      3  -0.394044D+00 -0.298256D+00  0.380403D+00 -0.636042D+00  0.822714D+00
      4   0.659443D+00 -0.527562D+00  0.691377D+00 -0.316892D+00  0.419332D+00
      5   0.310727D+00 -0.397674D+00  0.512566D+00  0.605814D+00 -0.785601D+00
      6   0.310727D+00  0.397674D+00 -0.512566D+00  0.605814D+00 -0.785601D+00
      7   0.659443D+00  0.527562D+00 -0.691377D+00 -0.316892D+00  0.419332D+00
      8  -0.394044D+00  0.298256D+00 -0.380403D+00 -0.636042D+00  0.822714D+00
      9  -0.680455D-01 -0.765848D-03 -0.285079D-02 -0.176931D-01  0.411617D-01
     10  -0.575444D+00 -0.522506D+00  0.689382D+00  0.375834D+00 -0.504723D+00
 afr conversion (beta, imaginary):
                 1             2             3             4             5 
      1  -0.391789D-01  0.000000D+00 -0.687178D-01  0.000000D+00 -0.715368D-01
      2  -0.120347D-01  0.000000D+00 -0.302447D-01  0.000000D+00 -0.639253D-01
      3  -0.574772D-01  0.000000D+00 -0.404455D-01  0.000000D+00  0.531652D-01
      4  -0.420073D-01  0.000000D+00 -0.713636D-01  0.000000D+00 -0.687362D-01
      5  -0.593248D-01  0.000000D+00  0.365634D-01  0.000000D+00  0.623818D-01
      6  -0.593248D-01  0.000000D+00 -0.365634D-01  0.000000D+00  0.623818D-01
      7  -0.420073D-01  0.000000D+00  0.713636D-01  0.000000D+00 -0.687362D-01
      8  -0.574772D-01  0.000000D+00  0.404455D-01  0.000000D+00  0.531652D-01
      9  -0.120347D-01  0.000000D+00  0.302447D-01  0.000000D+00 -0.639253D-01
     10  -0.391789D-01  0.000000D+00  0.687178D-01  0.000000D+00 -0.715368D-01
                 6             7             8             9            10 
      1   0.000000D+00 -0.218430D-01  0.000000D+00  0.770454D-01  0.944969D-01
      2   0.000000D+00 -0.117281D+00  0.000000D+00 -0.179668D+00 -0.148193D+00
      3   0.000000D+00  0.957313D-01  0.000000D+00 -0.189663D-01 -0.830241D-01
      4   0.000000D+00 -0.140590D-01  0.000000D+00  0.715873D-01  0.795211D-01
      5   0.000000D+00 -0.917794D-01  0.000000D+00 -0.332855D-01  0.883807D-01
      6   0.000000D+00  0.917794D-01  0.000000D+00 -0.332855D-01 -0.883807D-01
      7   0.000000D+00  0.140590D-01  0.000000D+00  0.715873D-01 -0.795211D-01
      8   0.000000D+00 -0.957313D-01  0.000000D+00 -0.189663D-01  0.830241D-01
      9   0.000000D+00  0.117281D+00  0.000000D+00 -0.179668D+00  0.148193D+00
     10   0.000000D+00  0.218430D-01  0.000000D+00  0.770454D-01 -0.944969D-01
                11            12            13            14            15 
      1   0.000000D+00  0.000000D+00 -0.103049D+00  0.000000D+00  0.189941D+00
      2   0.000000D+00  0.000000D+00 -0.845274D-02  0.000000D+00  0.792145D-02
      3   0.000000D+00  0.000000D+00 -0.173624D+00  0.000000D+00  0.123704D+00
      4   0.000000D+00  0.000000D+00  0.124992D+00  0.000000D+00 -0.212588D+00
      5   0.000000D+00  0.000000D+00 -0.169139D+00  0.000000D+00 -0.970863D-01
      6   0.000000D+00  0.000000D+00  0.169139D+00  0.000000D+00 -0.970863D-01
      7   0.000000D+00  0.000000D+00 -0.124992D+00  0.000000D+00 -0.212588D+00
      8   0.000000D+00  0.000000D+00  0.173624D+00  0.000000D+00  0.123704D+00
      9   0.000000D+00  0.000000D+00  0.845274D-02  0.000000D+00  0.792145D-02
     10   0.000000D+00  0.000000D+00  0.103049D+00  0.000000D+00  0.189941D+00
                16            17            18            19            20 
      1   0.000000D+00  0.219383D+00  0.000000D+00  0.157800D+00  0.000000D+00
      2   0.000000D+00  0.321554D-03  0.000000D+00 -0.742874D-02  0.000000D+00
      3   0.000000D+00 -0.125228D+00  0.000000D+00 -0.267053D+00  0.000000D+00
      4   0.000000D+00 -0.221506D+00  0.000000D+00 -0.133052D+00  0.000000D+00
      5   0.000000D+00 -0.166970D+00  0.000000D+00  0.254361D+00  0.000000D+00
      6   0.000000D+00  0.166970D+00  0.000000D+00  0.254361D+00  0.000000D+00
      7   0.000000D+00  0.221506D+00  0.000000D+00 -0.133052D+00  0.000000D+00
      8   0.000000D+00  0.125228D+00  0.000000D+00 -0.267053D+00  0.000000D+00
      9   0.000000D+00 -0.321554D-03  0.000000D+00 -0.742874D-02  0.000000D+00
     10   0.000000D+00 -0.219383D+00  0.000000D+00  0.157800D+00  0.000000D+00
 jaja in hckghf.F, ISPECT =                     548
Spin block MO for GHF transformation
NOA =   10   NOB =   10
NVA =   10   NVB =   10
 NOAvA in Hack                     100
 jaja in tranN3.F, ISPECT =                     548
 in l802/tranN3.F, LSPECT =                      800
 NMat, NBtSiz,MDV                    8372                   16000
                133954722
 TranN3:  NGot= 134217728 NBasic=    263006 NTTT=       550 NMat=      8372.
 Defined bucket =                      51                   10000
 Defined bucket =                      52                   10000
 Defined bucket =                      53                   10000
 Defined bucket =                      55                   10000
 Defined bucket =                      57                   10000
 Defined bucket =                      58                   10000
 Defined bucket =                      60                   10000
 Defined bucket =                      72                   10000
 Defined bucket =                      73                   10000
 Defined bucket =                      74                   10000
 Defined bucket =                      75                   10000
 Defined bucket =                      76                   10000
 (IK/LS) integrals will be saved in memory.
 TrCghf made   2 passes through the AO integrals.
 jaja DoHack is true or false? F
 jaja in hckghf.F, NBasis=                      10
 jaja in hckGHF/FixOG, LC =                      800
 jaja in hckGHF/FixOG, IRwC=                      548
 bfr conversion (alpha, real):
                 1             2             3             4             5 
      1   0.121818D+00  0.753589D-01  0.213662D+00  0.158020D+00  0.222427D+00
      2   0.374190D-01 -0.906349D-03  0.940387D-01  0.391166D-02  0.198761D+00
      3   0.178712D+00  0.153129D+00  0.125756D+00  0.126828D+00 -0.165305D+00
      4   0.130612D+00  0.878201D-01  0.221888D+00  0.175577D+00  0.213719D+00
      5   0.184456D+00  0.151383D+00 -0.113685D+00 -0.111179D+00 -0.193961D+00
      6   0.184456D+00  0.151383D+00  0.113685D+00  0.111179D+00 -0.193961D+00
      7   0.130612D+00  0.878201D-01 -0.221888D+00 -0.175577D+00  0.213719D+00
      8   0.178712D+00  0.153129D+00 -0.125756D+00 -0.126828D+00 -0.165305D+00
      9   0.374190D-01 -0.906350D-03 -0.940387D-01 -0.391166D-02  0.198761D+00
     10   0.121818D+00  0.753589D-01 -0.213662D+00 -0.158020D+00  0.222427D+00
                 6             7             8             9            10 
      1   0.219457D+00  0.679156D-01 -0.183140D+00 -0.239555D+00 -0.293816D+00
      2   0.209380D-01  0.364658D+00 -0.377697D-01  0.558634D+00  0.460772D+00
      3  -0.125488D+00 -0.297654D+00  0.296971D+00  0.589712D-01  0.258144D+00
      4   0.222953D+00  0.437132D-01 -0.160839D+00 -0.222584D+00 -0.247252D+00
      5  -0.145409D+00  0.285367D+00 -0.276396D+00  0.103494D+00 -0.274799D+00
      6  -0.145409D+00 -0.285367D+00  0.276396D+00  0.103494D+00  0.274799D+00
      7   0.222953D+00 -0.437132D-01  0.160839D+00 -0.222584D+00  0.247252D+00
      8  -0.125488D+00  0.297654D+00 -0.296971D+00  0.589712D-01 -0.258144D+00
      9   0.209380D-01 -0.364658D+00  0.377697D-01  0.558634D+00 -0.460772D+00
     10   0.219457D+00 -0.679156D-01  0.183140D+00 -0.239555D+00  0.293816D+00
                11            12            13            14            15 
      1  -0.140350D+00 -0.227812D+00  0.320407D+00  0.155342D+00 -0.590577D+00
      2   0.451256D+00  0.393306D+00  0.262818D-01  0.228162D+00 -0.246299D-01
      3  -0.267022D-01 -0.145306D+00  0.539843D+00  0.387328D+00 -0.384628D+00
      4  -0.831009D-01  0.272692D-01 -0.388633D+00 -0.308077D+00  0.660993D+00
      5   0.771920D-01 -0.252678D+00  0.525899D+00  0.336663D+00  0.301867D+00
      6   0.771920D-01  0.252678D+00 -0.525899D+00 -0.336663D+00  0.301867D+00
      7  -0.831009D-01 -0.272692D-01  0.388633D+00  0.308077D+00  0.660993D+00
      8  -0.267022D-01  0.145306D+00 -0.539843D+00 -0.387328D+00 -0.384628D+00
      9   0.451256D+00 -0.393306D+00 -0.262818D-01 -0.228162D+00 -0.246299D-01
     10  -0.140350D+00  0.227812D+00 -0.320407D+00 -0.155342D+00 -0.590577D+00
                16            17            18            19            20 
      1  -0.440792D+00 -0.682120D+00 -0.528069D+00 -0.490643D+00 -0.386619D+00
      2  -0.521230D-01 -0.999798D-03  0.218371D-02  0.230979D-01  0.315300D-01
      3  -0.301839D+00  0.389367D+00  0.291389D+00  0.830340D+00  0.630201D+00
      4   0.505135D+00  0.688721D+00  0.529597D+00  0.413695D+00  0.321209D+00
      5   0.238018D+00  0.519155D+00  0.392627D+00 -0.790877D+00 -0.601772D+00
      6   0.238018D+00 -0.519155D+00 -0.392627D+00 -0.790877D+00 -0.601772D+00
      7   0.505135D+00 -0.688721D+00 -0.529597D+00  0.413695D+00  0.321209D+00
      8  -0.301839D+00 -0.389367D+00 -0.291389D+00  0.830340D+00  0.630201D+00
[...]
      6b 0.554128D+00 -0.511117D+00  0.151146D+00 -0.154749D+00 -0.246649D+01
      7a-0.610678D+00  0.417808D+00  0.638339D-01 -0.495686D-01 -0.110248D+01
      7b 0.417629D+00 -0.438976D+00 -0.494963D-01  0.438178D-01  0.769333D+00
      8a-0.958379D+00  0.670359D+00 -0.602600D+00  0.465499D+00 -0.887223D+00
      8b 0.669836D+00 -0.684800D+00  0.465479D+00 -0.414326D+00  0.596056D+00
      9a 0.121898D+00 -0.946879D-01 -0.632794D-01  0.477723D-01 -0.602589D+00
      9b-0.947178D-01  0.836897D-01  0.478068D-01 -0.439514D-01  0.465482D+00
     10a-0.596259D+00  0.414233D+00  0.121985D+00 -0.946586D-01 -0.955978D+00
     10b 0.411819D+00 -0.429215D+00 -0.946885D-01  0.836028D-01  0.670646D+00
                3b            4a            4b            5a            5b
      3b 0.246424D+01
      4a 0.932374D-01  0.429887D+01
      4b-0.527818D-01 -0.303087D+01  0.308710D+01
      5a 0.437296D+00 -0.118376D+01  0.832188D+00  0.362712D+01
      5b-0.480168D+00  0.832324D+00 -0.849997D+00 -0.256845D+01  0.259807D+01
      6a-0.245747D+01 -0.439722D+00  0.343276D+00 -0.399400D+00  0.258109D+00
      6b 0.251013D+01  0.344662D+00 -0.299721D+00  0.259014D+00 -0.294828D+00
      7a 0.766901D+00 -0.642882D+00  0.436088D+00 -0.438892D+00  0.343556D+00
      7b-0.791613D+00  0.438611D+00 -0.466001D+00  0.344942D+00 -0.300551D+00
      8a 0.593918D+00 -0.110228D+01  0.766968D+00  0.350584D+01 -0.245744D+01
      8b-0.646587D+00  0.769400D+00 -0.791810D+00 -0.246646D+01  0.251006D+01
      9a 0.465503D+00  0.638496D-01 -0.495633D-01 -0.215852D+00  0.151016D+00
      9b-0.414337D+00 -0.494910D-01  0.438021D-01  0.151303D+00 -0.155216D+00
     10a 0.671169D+00 -0.608093D+00  0.418680D+00 -0.734993D+00  0.552969D+00
     10b-0.687202D+00  0.418500D+00 -0.441560D+00  0.554549D+00 -0.512365D+00
                6a            6b            7a            7b            8a
      6a 0.363623D+01
      6b-0.256538D+01  0.258896D+01
      7a-0.118641D+01  0.831292D+00  0.431200D+01
      7b 0.831429D+00 -0.847341D+00 -0.302644D+01  0.307397D+01
      8a-0.656895D+00  0.436772D+00 -0.907288D-01  0.926803D-01  0.343090D+01
      8b 0.436637D+00 -0.478614D+00  0.944148D-01 -0.511298D-01 -0.238851D+01
      9a-0.618841D+00  0.476681D+00  0.383399D+00 -0.276010D+00 -0.322049D+00
      9b 0.476798D+00 -0.426186D+00 -0.275586D+00  0.271330D+00  0.232064D+00
     10a-0.105442D+01  0.745235D+00  0.437730D+01 -0.310318D+01 -0.377321D+00
     10b 0.742811D+00 -0.753952D+00 -0.309124D+01  0.312447D+01  0.292479D+00
                8b            9a            9b           10a           10b
      8b 0.245465D+01
      9a 0.232592D+00  0.663669D+01
      9b-0.227731D+00 -0.508231D+01  0.458296D+01
     10a 0.293873D+00  0.260394D+00 -0.181824D+00  0.447483D+01
     10b-0.255975D+00 -0.181414D+00  0.187324D+00 -0.318984D+01  0.319712D+01
 jaja lower-tri density matrix (imaginary):
                1a            1b            2a            2b            3a
      1a 0.000000D+00
      1b-0.134035D+01  0.000000D+00
      2a-0.890721D-04  0.763565D-01  0.000000D+00
      2b-0.762200D-01  0.890721D-04 -0.213405D+01  0.000000D+00
      3a 0.302206D-03 -0.123093D+00  0.114606D-03 -0.976048D-01  0.000000D+00
      3b 0.122630D+00 -0.302206D-03  0.974292D-01 -0.114606D-03 -0.100200D+01
      4a-0.258762D-02  0.130238D+01 -0.919898D-04  0.115825D+00 -0.376074D-03
      4b-0.129842D+01  0.258762D-02 -0.115684D+00  0.919898D-04  0.394169D-01
      5a 0.525595D-03 -0.312831D+00 -0.254418D-04 -0.200161D+00  0.291526D-04
      5b 0.312026D+00 -0.525595D-03  0.200200D+00  0.254418D-04  0.183196D+00
      6a-0.342515D-03 -0.232355D+00 -0.622828D-04 -0.634614D-01  0.195552D-02
      6b 0.232880D+00  0.342515D-03  0.635568D-01  0.622828D-04 -0.103519D+01
      7a 0.389235D-04 -0.176015D+00 -0.156676D-04  0.208054D-01 -0.527397D-03
      7b 0.175955D+00 -0.389235D-04 -0.207814D-01  0.156676D-04  0.322957D+00
      8a 0.113344D-03 -0.281995D+00  0.451179D-05 -0.195450D+00 -0.463604D-03
      8b 0.281821D+00 -0.113344D-03  0.195443D+00 -0.451179D-05  0.250171D+00
      9a 0.648834D-05  0.397375D-01 -0.746778D-05 -0.200596D-01  0.451181D-05
      9b-0.397475D-01 -0.648834D-05  0.200710D-01  0.746778D-05  0.195439D+00
     10a 0.523494D-03 -0.173817D+00  0.648834D-05  0.397655D-01  0.113344D-03
     10b 0.173015D+00 -0.523494D-03 -0.397754D-01 -0.648834D-05  0.281049D+00
                3b            4a            4b            5a            5b
      3b 0.000000D+00
      4a-0.388408D-01  0.000000D+00
      4b 0.376074D-03 -0.126952D+01  0.000000D+00
      5a-0.183240D+00 -0.295693D-04 -0.348799D+00  0.000000D+00
      5b-0.291526D-04  0.348845D+00  0.295693D-04 -0.107630D+01  0.000000D+00
      6a 0.103219D+01 -0.300552D-03 -0.144383D+00 -0.196158D-03 -0.108411D+00
      6b-0.195552D-02  0.144844D+00  0.300552D-03  0.108712D+00  0.196158D-03
      7a-0.322149D+00 -0.547201D-03 -0.183210D+00 -0.300552D-03 -0.144116D+00
      7b 0.527397D-03  0.184048D+00  0.547201D-03  0.144577D+00  0.300552D-03
      8a-0.249461D+00 -0.527397D-03 -0.322086D+00  0.195552D-02  0.103221D+01
      8b 0.463604D-03  0.322894D+00  0.527397D-03 -0.103521D+01 -0.195552D-02
      9a-0.195446D+00 -0.156676D-04  0.208105D-01 -0.622828D-04 -0.633112D-01
      9b-0.451181D-05 -0.207865D-01  0.156676D-04  0.634066D-01  0.622828D-04
     10a-0.281223D+00  0.389236D-04 -0.175184D+00 -0.342515D-03 -0.231954D+00
     10b-0.113344D-03  0.175124D+00 -0.389236D-04  0.232478D+00  0.342515D-03
                6a            6b            7a            7b            8a
      6a 0.000000D+00
      6b-0.107923D+01  0.000000D+00
      7a-0.295693D-04 -0.349654D+00  0.000000D+00
      7b 0.349699D+00  0.295693D-04 -0.127374D+01  0.000000D+00
      8a 0.291525D-04 -0.183740D+00 -0.376074D-03 -0.393721D-01  0.000000D+00
      8b 0.183696D+00 -0.291525D-04  0.399482D-01  0.376074D-03 -0.100508D+01
      9a-0.254418D-04 -0.200114D+00 -0.919898D-04  0.115983D+00  0.114606D-03
      9b 0.200153D+00  0.254418D-04 -0.115842D+00  0.919898D-04  0.975361D-01
     10a 0.525595D-03 -0.312697D+00 -0.258762D-02  0.130244D+01  0.302206D-03
     10b 0.311892D+00 -0.525595D-03 -0.129848D+01  0.258762D-02  0.123465D+00
                8b            9a            9b           10a           10b
      8b 0.000000D+00
      9a-0.977117D-01  0.000000D+00
      9b-0.114606D-03 -0.213352D+01  0.000000D+00
     10a-0.123928D+00 -0.890721D-04  0.762410D-01  0.000000D+00
     10b-0.302206D-03 -0.761045D-01  0.890721D-04 -0.133662D+01  0.000000D+00
 jaja non-ortho density matrix               [Gau-style] (real):
                 1             2             3             4             5 
      1a  0.448643D+01 -0.318593D+01  0.260753D+00 -0.181293D+00 -0.374724D+00
      1b -0.318593D+01  0.318552D+01 -0.181703D+00  0.186965D+00  0.294748D+00
      2a  0.260753D+00 -0.181703D+00  0.663833D+01 -0.508176D+01 -0.321716D+00
      2b -0.181293D+00  0.186965D+00 -0.508176D+01  0.458131D+01  0.232704D+00
      3a -0.374724D+00  0.294748D+00 -0.321716D+00  0.232704D+00  0.342131D+01
      3b  0.293355D+00 -0.258572D+00  0.232176D+00 -0.228064D+00 -0.239175D+01
      4a  0.437712D+01 -0.310324D+01  0.382907D+00 -0.276176D+00 -0.890768D-01
      4b -0.309130D+01  0.312465D+01 -0.275752D+00  0.271822D+00  0.949719D-01
      5a -0.105484D+01  0.745095D+00 -0.618988D+00  0.476632D+00 -0.655340D+00
      5b  0.742671D+00 -0.753537D+00  0.476749D+00 -0.426039D+00  0.437161D+00
      6a -0.736242D+00  0.552548D+00 -0.216319D+00  0.150859D+00  0.350577D+01
      6b  0.554128D+00 -0.511117D+00  0.151146D+00 -0.154749D+00 -0.246649D+01
      7a -0.610678D+00  0.417808D+00  0.638339D-01 -0.495686D-01 -0.110248D+01
      7b  0.417629D+00 -0.438976D+00 -0.494963D-01  0.438178D-01  0.769333D+00
      8a -0.958379D+00  0.670359D+00 -0.602600D+00  0.465499D+00 -0.887223D+00
      8b  0.669836D+00 -0.684800D+00  0.465479D+00 -0.414326D+00  0.596056D+00
      9a  0.121898D+00 -0.946879D-01 -0.632794D-01  0.477723D-01 -0.602589D+00
      9b -0.947178D-01  0.836897D-01  0.478068D-01 -0.439514D-01  0.465482D+00
     10a -0.596259D+00  0.414233D+00  0.121985D+00 -0.946586D-01 -0.955978D+00
     10b  0.411819D+00 -0.429215D+00 -0.946885D-01  0.836028D-01  0.670646D+00
                 6             7             8             9            10 
      1a  0.293355D+00  0.437712D+01 -0.309130D+01 -0.105484D+01  0.742671D+00
      1b -0.258572D+00 -0.310324D+01  0.312465D+01  0.745095D+00 -0.753537D+00
      2a  0.232176D+00  0.382907D+00 -0.275752D+00 -0.618988D+00  0.476749D+00
      2b -0.228064D+00 -0.276176D+00  0.271822D+00  0.476632D+00 -0.426039D+00
      3a -0.239175D+01 -0.890768D-01  0.949719D-01 -0.655340D+00  0.437161D+00
      3b  0.246424D+01  0.932374D-01 -0.527818D-01  0.437296D+00 -0.480168D+00
      4a  0.932374D-01  0.429887D+01 -0.303087D+01 -0.118376D+01  0.832324D+00
      4b -0.527818D-01 -0.303087D+01  0.308710D+01  0.832188D+00 -0.849997D+00
      5a  0.437296D+00 -0.118376D+01  0.832188D+00  0.362712D+01 -0.256845D+01
      5b -0.480168D+00  0.832324D+00 -0.849997D+00 -0.256845D+01  0.259807D+01
      6a -0.245747D+01 -0.439722D+00  0.343276D+00 -0.399400D+00  0.258109D+00
      6b  0.251013D+01  0.344662D+00 -0.299721D+00  0.259014D+00 -0.294828D+00
      7a  0.766901D+00 -0.642882D+00  0.436088D+00 -0.438892D+00  0.343556D+00
      7b -0.791613D+00  0.438611D+00 -0.466001D+00  0.344942D+00 -0.300551D+00
      8a  0.593918D+00 -0.110228D+01  0.766968D+00  0.350584D+01 -0.245744D+01
      8b -0.646587D+00  0.769400D+00 -0.791810D+00 -0.246646D+01  0.251006D+01
      9a  0.465503D+00  0.638496D-01 -0.495633D-01 -0.215852D+00  0.151016D+00
      9b -0.414337D+00 -0.494910D-01  0.438021D-01  0.151303D+00 -0.155216D+00
     10a  0.671169D+00 -0.608093D+00  0.418680D+00 -0.734993D+00  0.552969D+00
     10b -0.687202D+00  0.418500D+00 -0.441560D+00  0.554549D+00 -0.512365D+00
                11            12            13            14            15 
      1a -0.736242D+00  0.554128D+00 -0.610678D+00  0.417629D+00 -0.958379D+00
      1b  0.552548D+00 -0.511117D+00  0.417808D+00 -0.438976D+00  0.670359D+00
      2a -0.216319D+00  0.151146D+00  0.638339D-01 -0.494963D-01 -0.602600D+00
      2b  0.150859D+00 -0.154749D+00 -0.495686D-01  0.438178D-01  0.465499D+00
      3a  0.350577D+01 -0.246649D+01 -0.110248D+01  0.769333D+00 -0.887223D+00
      3b -0.245747D+01  0.251013D+01  0.766901D+00 -0.791613D+00  0.593918D+00
      4a -0.439722D+00  0.344662D+00 -0.642882D+00  0.438611D+00 -0.110228D+01
      4b  0.343276D+00 -0.299721D+00  0.436088D+00 -0.466001D+00  0.766968D+00
      5a -0.399400D+00  0.259014D+00 -0.438892D+00  0.344942D+00  0.350584D+01
      5b  0.258109D+00 -0.294828D+00  0.343556D+00 -0.300551D+00 -0.245744D+01
      6a  0.363623D+01 -0.256538D+01 -0.118641D+01  0.831429D+00 -0.656895D+00
      6b -0.256538D+01  0.258896D+01  0.831292D+00 -0.847341D+00  0.436772D+00
      7a -0.118641D+01  0.831292D+00  0.431200D+01 -0.302644D+01 -0.907288D-01
      7b  0.831429D+00 -0.847341D+00 -0.302644D+01  0.307397D+01  0.926803D-01
      8a -0.656895D+00  0.436772D+00 -0.907288D-01  0.926803D-01  0.343090D+01
      8b  0.436637D+00 -0.478614D+00  0.944148D-01 -0.511298D-01 -0.238851D+01
      9a -0.618841D+00  0.476681D+00  0.383399D+00 -0.276010D+00 -0.322049D+00
      9b  0.476798D+00 -0.426186D+00 -0.275586D+00  0.271330D+00  0.232064D+00
     10a -0.105442D+01  0.745235D+00  0.437730D+01 -0.310318D+01 -0.377321D+00
     10b  0.742811D+00 -0.753952D+00 -0.309124D+01  0.312447D+01  0.292479D+00
                16            17            18            19            20 
      1a  0.669836D+00  0.121898D+00 -0.947178D-01 -0.596259D+00  0.411819D+00
      1b -0.684800D+00 -0.946879D-01  0.836897D-01  0.414233D+00 -0.429215D+00
      2a  0.465479D+00 -0.632794D-01  0.478068D-01  0.121985D+00 -0.946885D-01
      2b -0.414326D+00  0.477723D-01 -0.439514D-01 -0.946586D-01  0.836028D-01
      3a  0.596056D+00 -0.602589D+00  0.465482D+00 -0.955978D+00  0.670646D+00
      3b -0.646587D+00  0.465503D+00 -0.414337D+00  0.671169D+00 -0.687202D+00
      4a  0.769400D+00  0.638496D-01 -0.494910D-01 -0.608093D+00  0.418500D+00
      4b -0.791810D+00 -0.495633D-01  0.438021D-01  0.418680D+00 -0.441560D+00
      5a -0.246646D+01 -0.215852D+00  0.151303D+00 -0.734993D+00  0.554549D+00
      5b  0.251006D+01  0.151016D+00 -0.155216D+00  0.552969D+00 -0.512365D+00
      6a  0.436637D+00 -0.618841D+00  0.476798D+00 -0.105442D+01  0.742811D+00
      6b -0.478614D+00  0.476681D+00 -0.426186D+00  0.745235D+00 -0.753952D+00
      7a  0.944148D-01  0.383399D+00 -0.275586D+00  0.437730D+01 -0.309124D+01
      7b -0.511298D-01 -0.276010D+00  0.271330D+00 -0.310318D+01  0.312447D+01
      8a -0.238851D+01 -0.322049D+00  0.232064D+00 -0.377321D+00  0.292479D+00
      8b  0.245465D+01  0.232592D+00 -0.227731D+00  0.293873D+00 -0.255975D+00
      9a  0.232592D+00  0.663669D+01 -0.508231D+01  0.260394D+00 -0.181414D+00
      9b -0.227731D+00 -0.508231D+01  0.458296D+01 -0.181824D+00  0.187324D+00
     10a  0.293873D+00  0.260394D+00 -0.181824D+00  0.447483D+01 -0.318984D+01
     10b -0.255975D+00 -0.181414D+00  0.187324D+00 -0.318984D+01  0.319712D+01
 jaja non-ortho density matrix               [Gau-style] (imaginary):
                 1             2             3             4             5 
      1a  0.000000D+00  0.134035D+01  0.890721D-04  0.762200D-01 -0.302206D-03
      1b -0.134035D+01  0.000000D+00 -0.763565D-01 -0.890721D-04  0.123093D+00
      2a -0.890721D-04  0.763565D-01  0.000000D+00  0.213405D+01 -0.114606D-03
      2b -0.762200D-01  0.890721D-04 -0.213405D+01  0.000000D+00  0.976048D-01
      3a  0.302206D-03 -0.123093D+00  0.114606D-03 -0.976048D-01  0.000000D+00
      3b  0.122630D+00 -0.302206D-03  0.974292D-01 -0.114606D-03 -0.100200D+01
      4a -0.258762D-02  0.130238D+01 -0.919898D-04  0.115825D+00 -0.376074D-03
      4b -0.129842D+01  0.258762D-02 -0.115684D+00  0.919898D-04  0.394169D-01
      5a  0.525595D-03 -0.312831D+00 -0.254418D-04 -0.200161D+00  0.291526D-04
      5b  0.312026D+00 -0.525595D-03  0.200200D+00  0.254418D-04  0.183196D+00
      6a -0.342515D-03 -0.232355D+00 -0.622828D-04 -0.634614D-01  0.195552D-02
      6b  0.232880D+00  0.342515D-03  0.635568D-01  0.622828D-04 -0.103519D+01
      7a  0.389235D-04 -0.176015D+00 -0.156676D-04  0.208054D-01 -0.527397D-03
      7b  0.175955D+00 -0.389235D-04 -0.207814D-01  0.156676D-04  0.322957D+00
      8a  0.113344D-03 -0.281995D+00  0.451179D-05 -0.195450D+00 -0.463604D-03
      8b  0.281821D+00 -0.113344D-03  0.195443D+00 -0.451179D-05  0.250171D+00
      9a  0.648834D-05  0.397375D-01 -0.746778D-05 -0.200596D-01  0.451181D-05
      9b -0.397475D-01 -0.648834D-05  0.200710D-01  0.746778D-05  0.195439D+00
     10a  0.523494D-03 -0.173817D+00  0.648834D-05  0.397655D-01  0.113344D-03
     10b  0.173015D+00 -0.523494D-03 -0.397754D-01 -0.648834D-05  0.281049D+00
                 6             7             8             9            10 
      1a -0.122630D+00  0.258762D-02  0.129842D+01 -0.525595D-03 -0.312026D+00
      1b  0.302206D-03 -0.130238D+01 -0.258762D-02  0.312831D+00  0.525595D-03
      2a -0.974292D-01  0.919898D-04  0.115684D+00  0.254418D-04 -0.200200D+00
      2b  0.114606D-03 -0.115825D+00 -0.919898D-04  0.200161D+00 -0.254418D-04
      3a  0.100200D+01  0.376074D-03 -0.394169D-01 -0.291526D-04 -0.183196D+00
      3b  0.000000D+00  0.388408D-01 -0.376074D-03  0.183240D+00  0.291526D-04
      4a -0.388408D-01  0.000000D+00  0.126952D+01  0.295693D-04 -0.348845D+00
      4b  0.376074D-03 -0.126952D+01  0.000000D+00  0.348799D+00 -0.295693D-04
      5a -0.183240D+00 -0.295693D-04 -0.348799D+00  0.000000D+00  0.107630D+01
      5b -0.291526D-04  0.348845D+00  0.295693D-04 -0.107630D+01  0.000000D+00
      6a  0.103219D+01 -0.300552D-03 -0.144383D+00 -0.196158D-03 -0.108411D+00
      6b -0.195552D-02  0.144844D+00  0.300552D-03  0.108712D+00  0.196158D-03
      7a -0.322149D+00 -0.547201D-03 -0.183210D+00 -0.300552D-03 -0.144116D+00
      7b  0.527397D-03  0.184048D+00  0.547201D-03  0.144577D+00  0.300552D-03
      8a -0.249461D+00 -0.527397D-03 -0.322086D+00  0.195552D-02  0.103221D+01
      8b  0.463604D-03  0.322894D+00  0.527397D-03 -0.103521D+01 -0.195552D-02
      9a -0.195446D+00 -0.156676D-04  0.208105D-01 -0.622828D-04 -0.633112D-01
      9b -0.451181D-05 -0.207865D-01  0.156676D-04  0.634066D-01  0.622828D-04
     10a -0.281223D+00  0.389236D-04 -0.175184D+00 -0.342515D-03 -0.231954D+00
     10b -0.113344D-03  0.175124D+00 -0.389236D-04  0.232478D+00  0.342515D-03
                11            12            13            14            15 
      1a  0.342515D-03 -0.232880D+00 -0.389235D-04 -0.175955D+00 -0.113344D-03
      1b  0.232355D+00 -0.342515D-03  0.176015D+00  0.389235D-04  0.281995D+00
      2a  0.622828D-04 -0.635568D-01  0.156676D-04  0.207814D-01 -0.451179D-05
      2b  0.634614D-01 -0.622828D-04 -0.208054D-01 -0.156676D-04  0.195450D+00
      3a -0.195552D-02  0.103519D+01  0.527397D-03 -0.322957D+00  0.463604D-03
      3b -0.103219D+01  0.195552D-02  0.322149D+00 -0.527397D-03  0.249461D+00
      4a  0.300552D-03 -0.144844D+00  0.547201D-03 -0.184048D+00  0.527397D-03
      4b  0.144383D+00 -0.300552D-03  0.183210D+00 -0.547201D-03  0.322086D+00
      5a  0.196158D-03 -0.108712D+00  0.300552D-03 -0.144577D+00 -0.195552D-02
      5b  0.108411D+00 -0.196158D-03  0.144116D+00 -0.300552D-03 -0.103221D+01
      6a  0.000000D+00  0.107923D+01  0.295693D-04 -0.349699D+00 -0.291525D-04
      6b -0.107923D+01  0.000000D+00  0.349654D+00 -0.295693D-04  0.183740D+00
      7a -0.295693D-04 -0.349654D+00  0.000000D+00  0.127374D+01  0.376074D-03
      7b  0.349699D+00  0.295693D-04 -0.127374D+01  0.000000D+00  0.393721D-01
      8a  0.291525D-04 -0.183740D+00 -0.376074D-03 -0.393721D-01  0.000000D+00
      8b  0.183696D+00 -0.291525D-04  0.399482D-01  0.376074D-03 -0.100508D+01
      9a -0.254418D-04 -0.200114D+00 -0.919898D-04  0.115983D+00  0.114606D-03
      9b  0.200153D+00  0.254418D-04 -0.115842D+00  0.919898D-04  0.975361D-01
     10a  0.525595D-03 -0.312697D+00 -0.258762D-02  0.130244D+01  0.302206D-03
     10b  0.311892D+00 -0.525595D-03 -0.129848D+01  0.258762D-02  0.123465D+00
                16            17            18            19            20 
      1a -0.281821D+00 -0.648834D-05  0.397475D-01 -0.523494D-03 -0.173015D+00
      1b  0.113344D-03 -0.397375D-01  0.648834D-05  0.173817D+00  0.523494D-03
      2a -0.195443D+00  0.746778D-05 -0.200710D-01 -0.648834D-05  0.397754D-01
      2b  0.451179D-05  0.200596D-01 -0.746778D-05 -0.397655D-01  0.648834D-05
      3a -0.250171D+00 -0.451181D-05 -0.195439D+00 -0.113344D-03 -0.281049D+00
      3b -0.463604D-03  0.195446D+00  0.451181D-05  0.281223D+00  0.113344D-03
      4a -0.322894D+00  0.156676D-04  0.207865D-01 -0.389236D-04 -0.175124D+00
      4b -0.527397D-03 -0.208105D-01 -0.156676D-04  0.175184D+00  0.389236D-04
      5a  0.103521D+01  0.622828D-04 -0.634066D-01  0.342515D-03 -0.232478D+00
      5b  0.195552D-02  0.633112D-01 -0.622828D-04  0.231954D+00 -0.342515D-03
      6a -0.183696D+00  0.254418D-04 -0.200153D+00 -0.525595D-03 -0.311892D+00
      6b  0.291525D-04  0.200114D+00 -0.254418D-04  0.312697D+00  0.525595D-03
      7a -0.399482D-01  0.919898D-04  0.115842D+00  0.258762D-02  0.129848D+01
      7b -0.376074D-03 -0.115983D+00 -0.919898D-04 -0.130244D+01 -0.258762D-02
      8a  0.100508D+01 -0.114606D-03 -0.975361D-01 -0.302206D-03 -0.123465D+00
      8b  0.000000D+00  0.977117D-01  0.114606D-03  0.123928D+00  0.302206D-03
      9a -0.977117D-01  0.000000D+00  0.213352D+01  0.890721D-04  0.761045D-01
      9b -0.114606D-03 -0.213352D+01  0.000000D+00 -0.762410D-01 -0.890721D-04
     10a -0.123928D+00 -0.890721D-04  0.762410D-01  0.000000D+00  0.133662D+01
     10b -0.302206D-03 -0.761045D-01  0.890721D-04 -0.133662D+01  0.000000D+00
FORTRAN STOP
