 Entering Gaussian System, Link 0=gdv
 AtFile(1): H.gbs
            H     0
            S   10   1.00
               1000.000000000000            0.000068713567
                316.227766000000            0.000169141320
                100.000000000000            0.000823394812
                 31.622776600000            0.003425569236
                 10.000000000000            0.013951996000
                  3.162277660000            0.056909313560
                  1.000000000000            0.198286399900
                  0.316227766000            0.496922426700
                  0.100000000000            0.369846276400
                  0.031622776600            0.003752720039
            ****
 Initial command:
 /users/lcj1/GHF_hess/exe-dir/l1.exe "/users/lcj1/GHF_hess/h10_2rows/mixrmY/Gau-13176.inp" -scrdir="/users/lcj1/GHF_hess/h10_2rows/mixrmY/"
 Entering Link 1 = /users/lcj1/GHF_hess/exe-dir/l1.exe PID=     13177.
  
 Copyright (c) 1988,1990,1992,1993,1995,1998,2003,2009,2012,
            Gaussian, Inc.  All Rights Reserved.
  
 This is the private, development version of
 the Gaussian(R) DV system of programs. It is based on
 the Gaussian(R) 09 system (copyright 2009, Gaussian, Inc.),
 the Gaussian(R) 03 system (copyright 2003, Gaussian, Inc.),
 the Gaussian(R) 98 system (copyright 1998, Gaussian, Inc.),
 the Gaussian(R) 94 system (copyright 1995, Gaussian, Inc.),
 the Gaussian 92(TM) system (copyright 1992, Gaussian, Inc.),
 the Gaussian 90(TM) system (copyright 1990, Gaussian, Inc.),
 the Gaussian 88(TM) system (copyright 1988, Gaussian, Inc.),
 the Gaussian 86(TM) system (copyright 1986, Carnegie Mellon
 University), and the Gaussian 82(TM) system (copyright 1983,
 Carnegie Mellon University). Gaussian is a federally registered
 trademark of Gaussian, Inc.
  
 This software contains proprietary and confidential information,
 including trade secrets, belonging to Gaussian, Inc.
  
 This software is provided under written license and may be
 used, copied, transmitted, or stored only in accord with that
 written license.
  
 The following legend is applicable only to US Government
 contracts under FAR:
  
                    RESTRICTED RIGHTS LEGEND
  
 Use, reproduction and disclosure by the US Government is
 subject to restrictions as set forth in subparagraphs (a)
 and (c) of the Commercial Computer Software - Restricted
 Rights clause in FAR 52.227-19.
  
 Gaussian, Inc.
 340 Quinnipiac St., Bldg. 40, Wallingford CT 06492
  
  
 ---------------------------------------------------------------
 Warning -- This program may not be used in any manner that
 competes with the business of Gaussian, Inc. or will provide
 assistance to any competitor of Gaussian, Inc.  The licensee
 of this program is prohibited from giving any competitor of
 Gaussian, Inc. access to this program.  By using this program,
 the user acknowledges that Gaussian, Inc. is engaged in the
 business of creating and licensing software in the field of
 computational chemistry and represents and warrants to the
 licensee that it is not a competitor of Gaussian, Inc. and that
 it will not use this program in any manner prohibited above.
 ---------------------------------------------------------------
  

 Cite this work as:
 Gaussian Development Version, Revision H.21,
 M. J. Frisch, G. W. Trucks, H. B. Schlegel, G. E. Scuseria, 
 M. A. Robb, J. R. Cheeseman, G. Scalmani, V. Barone, B. Mennucci, 
 G. A. Petersson, H. Nakatsuji, M. Caricato, X. Li, H. P. Hratchian, 
 A. F. Izmaylov, J. Bloino, G. Zheng, J. L. Sonnenberg, W. Liang, 
 M. Hada, M. Ehara, K. Toyota, R. Fukuda, J. Hasegawa, M. Ishida, 
 T. Nakajima, Y. Honda, O. Kitao, H. Nakai, T. Vreven, 
 J. A. Montgomery, Jr., J. E. Peralta, F. Ogliaro, M. Bearpark, 
 J. J. Heyd, E. Brothers, K. N. Kudin, V. N. Staroverov, T. Keith, 
 R. Kobayashi, J. Normand, K. Raghavachari, A. Rendell, J. C. Burant, 
 S. S. Iyengar, J. Tomasi, M. Cossi, N. Rega, J. M. Millam, M. Klene, 
 J. E. Knox, J. B. Cross, V. Bakken, C. Adamo, J. Jaramillo, 
 R. Gomperts, R. E. Stratmann, O. Yazyev, A. J. Austin, R. Cammi, 
 C. Pomelli, J. W. Ochterski, R. L. Martin, K. Morokuma, 
 V. G. Zakrzewski, G. A. Voth, P. Salvador, J. J. Dannenberg, 
 S. Dapprich, P. V. Parandekar, N. J. Mayhall, A. D. Daniels, 
 O. Farkas, J. B. Foresman, J. V. Ortiz, J. Cioslowski, 
 and D. J. Fox, Gaussian, Inc., Wallingford CT, 2010.
 
 ******************************************
 Gaussian DV:  EM64L-GDVRevH.21 13-May-2012
                28-Feb-2017 
 ******************************************
 %chk=h10.chk
 ----------------------------------------------------------------------
 #ghf/gen scf(tight,novaracc,noincfock,fulldiag) stable guess=mix geom=
 nocrowd use=l802 use=l902 test
 ----------------------------------------------------------------------
 ********************************************
   THE COMPLEX ERI TRANSFORMATION WITH L802  
        COMPLEX STABILITY WITH L902          
 ********************************************
 1/38=1/1;
 2/12=1,17=6,18=5,40=1/2;
 3/5=7,16=1,25=20,28=1,116=7/1,2,3,20;
 4/13=-1/1;
 5/5=100001,16=1,32=2,38=1/2;
 8/6=1,10=90,11=11/1,2;
 9/8=4,13=1/1,2;
 6/7=2,8=2,9=2,10=2,28=1/1;
 99/5=1,9=1/99;
 ----------------------------------------------------------------------
 hf stability analysis of h10 triangular lattice, y= 0.5540600992415728
 5 alpha= 28.000000000000000
 ----------------------------------------------------------------------
 Symbolic Z-Matrix:
 Charge =  0 Multiplicity = 1
 H
 H                    1     1.18018 
 H                    1     1.18018  2     124. 
 H                    2     1.18018  1     56.      3     0.       0
 H                    3     1.18018  1     180.     2     0.       0
 H                    4     1.18018  2     180.     1     0.       0
 H                    5     1.18018  3     180.     2     0.       0
 H                    6     1.18018  4     180.     1     0.       0
 H                    7     1.18018  5     180.     2     0.       0
 H                    8     1.18018  6     180.     1     0.       0
 
                          Input orientation:                          
 ---------------------------------------------------------------------
 Center     Atomic      Atomic             Coordinates (Angstroms)
 Number     Number       Type             X           Y           Z
 ---------------------------------------------------------------------
      1          1           0        0.000000    0.000000    0.000000
      2          1           0        0.000000    0.000000    1.180178
      3          1           0        0.978412    0.000000   -0.659947
      4          1           0        0.978412    0.000000    0.520231
      5          1           0        1.956824    0.000000   -1.319895
      6          1           0        1.956824    0.000000   -0.139716
      7          1           0        2.935236    0.000000   -1.979842
      8          1           0        2.935236    0.000000   -0.799664
      9          1           0        3.913648    0.000000   -2.639789
     10          1           0        3.913648    0.000000   -1.459611
 ---------------------------------------------------------------------
                    Distance matrix (angstroms):
                    1          2          3          4          5
     1  H    0.000000
     2  H    1.180178   0.000000
     3  H    1.180178   2.084071   0.000000
     4  H    1.108120   1.180178   1.180178   0.000000
     5  H    2.360356   3.174827   1.180178   2.084071   0.000000
     6  H    1.961806   2.360356   1.108120   1.180178   1.180178
     7  H    3.540534   4.312927   2.360356   3.174827   1.180178
     8  H    3.042215   3.540534   1.961806   2.360356   1.108120
     9  H    4.720713   5.468893   3.540534   4.312927   2.360356
    10  H    4.176973   4.720713   3.042215   3.540534   1.961806
                    6          7          8          9         10
     6  H    0.000000
     7  H    2.084071   0.000000
     8  H    1.180178   1.180178   0.000000
     9  H    3.174827   1.180178   2.084071   0.000000
    10  H    2.360356   1.108120   1.180178   1.180178   0.000000
 Stoichiometry    H10
 Framework group  C2H[SGH(H10)]
 Deg. of freedom     9
 Full point group                 C2H     NOp   4
 Largest Abelian subgroup         C2H     NOp   4
 Largest concise Abelian subgroup C2      NOp   2
                         Standard orientation:                         
 ---------------------------------------------------------------------
 Center     Atomic      Atomic             Coordinates (Angstroms)
 Number     Number       Type             X           Y           Z
 ---------------------------------------------------------------------
      1          1           0        1.956824   -0.729805    0.000000
      2          1           0        1.956824   -1.909984    0.000000
      3          1           0        0.978412   -0.069858    0.000000
      4          1           0        0.978412   -1.250036    0.000000
      5          1           0        0.000000    0.590089    0.000000
      6          1           0        0.000000   -0.590089    0.000000
      7          1           0       -0.978412    1.250036    0.000000
      8          1           0       -0.978412    0.069858    0.000000
      9          1           0       -1.956824    1.909984    0.000000
     10          1           0       -1.956824    0.729805    0.000000
 ---------------------------------------------------------------------
 Rotational constants (GHZ):    218.4565322     17.2659450     16.0012677
 General basis read from cards:  (5D, 7F)
 There are     5 symmetry adapted cartesian basis functions of AG  symmetry.
 There are     0 symmetry adapted cartesian basis functions of BG  symmetry.
 There are     0 symmetry adapted cartesian basis functions of AU  symmetry.
 There are     5 symmetry adapted cartesian basis functions of BU  symmetry.
 There are     5 symmetry adapted basis functions of AG  symmetry.
 There are     0 symmetry adapted basis functions of BG  symmetry.
 There are     0 symmetry adapted basis functions of AU  symmetry.
 There are     5 symmetry adapted basis functions of BU  symmetry.
    10 basis functions,   100 primitive gaussians,    10 cartesian basis functions
     5 alpha electrons        5 beta electrons
       nuclear repulsion energy        13.0480734616 Hartrees.
 NAtoms=   10 NActive=   10 NUniq=    5 SFac= 4.00D+00 NAtFMM=   60 NAOKFM=F Big=F
 Integral buffers will be    131072 words long.
 Regular integral format.
 Two-electron integral symmetry is turned off.
 One-electron integrals computed using PRISM.
 NBasis=    10 RedAO= T EigKep=  1.95D-01  NBF=     5     0     0     5
 NBsUse=    10 1.00D-06 EigRej= -1.00D+00 NBFU=     5     0     0     5
 IOp(28)                       1
                        1                       0
                        2                       1
                        3                       1
                        4                      20
                        5                       0
                        6                       0
                        7                      10
                        8                       1
                        9                       4
                       10                       0
                       11              1073741824
                       12                      20
                       13                       2
                       14                  131070
                       15                       1
                       16                       1
                       17                  131073
                       18                       0
                       19                       0
                       20                       0
                       21                       2
                       22                  131070
                       23                       0
                       24                       0
                       25                       0
                       26                       0
                       27                   65535
                       28                       2
                       29                  131072
                       30                       0
 IHMeth                       1
 ib3: ISMode =                        0                       4
 Enter DskPsm, NBasis=  10 NBas6D=  10 NShell=  10 IDoSP=4.
 Out2e will use a cutoff of  1.00D-10
 FoFCou: FMM=F IPFlag=           0 FMFlag=           0 FMFlg1=           0
         NFxFlg=           0 DoJE=F BraDBF=F KetDBF=F FulRan=T
         wScrn=  0.000000 ICntrl=     600 IOpCl=  9 I1Cent=           0 NGrid=           0
         NMat0=    0 NMatS0=      0 NMatT0=    0 NMatD0=    0 NMtDS0=    0 NMtDT0=    0
 Symmetry not used in FoFCou.
 Entering PrmDigJobTyp =                      20
 LenSav and NKeep                       0                       0
 Entered Stor2E with KNTT1,2                       2                  131070
 Leave Stor2X
 Entering PrmDigJobTyp =                      20
 LenSav and NKeep                       0                       0
 Entered Stor2E with KNTT1,2                       2                  131056
 Leave Stor2X
 Entering PrmDigJobTyp =                      20
 LenSav and NKeep                       0                       0
 Entered Stor2E with KNTT1,2                       2                  131042
 Leave Stor2X
 Entering PrmDigJobTyp =                      20
 LenSav and NKeep                       0                       0
 Entered Stor2E with KNTT1,2                       2                  131028
 Leave Stor2X
 Entering PrmDigJobTyp =                      20
 LenSav and NKeep                       0                       0
 Entered Stor2E with KNTT1,2                       2                  131014
 Leave Stor2X
 Entering PrmDigJobTyp =                      20
 LenSav and NKeep                       0                       0
 Entered Stor2E with KNTT1,2                       2                  131000
 Leave Stor2X
 Entering PrmDigJobTyp =                      20
 LenSav and NKeep                       0                       0
 Entered Stor2E with KNTT1,2                       2                  130986
 Leave Stor2X
 Entering PrmDigJobTyp =                      20
 LenSav and NKeep                       0                       0
 Entered Stor2E with KNTT1,2                       2                  130972
 Leave Stor2X
 Entering PrmDigJobTyp =                      20
 LenSav and NKeep                       0                       0
 Entered Stor2E with KNTT1,2                       2                  130960
 Leave Stor2X
 Entering PrmDigJobTyp =                      20
 LenSav and NKeep                       0                       0
 Entered Stor2E with KNTT1,2                       2                  130946
 Leave Stor2X
 Entering PrmDigJobTyp =                      20
 LenSav and NKeep                       0                       0
 Entered Stor2E with KNTT1,2                       2                  130932
 Leave Stor2X
 Entering PrmDigJobTyp =                      20
 LenSav and NKeep                       0                       0
 Entered Stor2E with KNTT1,2                       2                  130918
 Leave Stor2X
 Entering PrmDigJobTyp =                      20
 LenSav and NKeep                       0                       0
 Entered Stor2E with KNTT1,2                       2                  130904
 Leave Stor2X
 Entering PrmDigJobTyp =                      20
 LenSav and NKeep                       0                       0
 Entered Stor2E with KNTT1,2                       2                  130890
 Leave Stor2X
 Entering PrmDigJobTyp =                      20
 LenSav and NKeep                       0                       0
 Entered Stor2E with KNTT1,2                       2                  130876
 Leave Stor2X
 Entering PrmDigJobTyp =                      20
 LenSav and NKeep                       0                       0
 Entered Stor2E with KNTT1,2                       2                  130862
 Leave Stor2X
 Entering PrmDigJobTyp =                      20
 LenSav and NKeep                       0                       0
 Entered Stor2E with KNTT1,2                       2                  130848
 Leave Stor2X
 Entering PrmDigJobTyp =                      20
 LenSav and NKeep                       0                       0
 Entered Stor2E with KNTT1,2                       2                  130834
 Leave Stor2X
 Entering PrmDigJobTyp =                      20
 LenSav and NKeep                       0                       0
 Entered Stor2E with KNTT1,2                       2                  130820
 Leave Stor2X
 Entering PrmDigJobTyp =                      20
 LenSav and NKeep                       0                       0
 Entered Stor2E with KNTT1,2                       2                  130806
 Leave Stor2X
 Entering PrmDigJobTyp =                      20
 LenSav and NKeep                       0                       0
 Entered Stor2E with KNTT1,2                       2                  130792
 Leave Stor2X
 Entering PrmDigJobTyp =                      20
 LenSav and NKeep                       0                       0
 Entered Stor2E with KNTT1,2                       2                  130778
 Leave Stor2X
 Entering PrmDigJobTyp =                      20
 LenSav and NKeep                       0                       0
 Entered Stor2E with KNTT1,2                       2                  130764
 Leave Stor2X
 Entering PrmDigJobTyp =                      20
 LenSav and NKeep                       0                       0
 Entered Stor2E with KNTT1,2                       2                  130750
 Leave Stor2X
 Entering PrmDigJobTyp =                      20
 LenSav and NKeep                       0                       0
 Entered Stor2E with KNTT1,2                       2                  130736
 Leave Stor2X
 Entering PrmDigJobTyp =                      20
 LenSav and NKeep                       0                       0
 Entered Stor2E with KNTT1,2                       2                  130722
 Leave Stor2X
 Entering PrmDigJobTyp =                      20
 LenSav and NKeep                       0                       0
 Entered Stor2E with KNTT1,2                       2                  130708
 Leave Stor2X
 Entering PrmDigJobTyp =                      20
 LenSav and NKeep                       0                       0
 Entered Stor2E with KNTT1,2                       2                  130700
 Leave Stor2X
 Entering PrmDigJobTyp =                      20
 LenSav and NKeep                       0                       0
 Entered Stor2E with KNTT1,2                       6                  130684
 Leave Stor2X
 Entering PrmDigJobTyp =                      20
 LenSav and NKeep                       0                       0
 Entered Stor2E with KNTT1,2                      16                  130674
 Leave Stor2X
 Entering PrmDigJobTyp =                      20
 LenSav and NKeep                       0                       0
 Entered Stor2E with KNTT1,2                      28                  130666
 Leave Stor2X
 Entering PrmDigJobTyp =                      20
 LenSav and NKeep                       0                       0
 Entered Stor2E with KNTT1,2                      42                  130660
 Leave Stor2X
 Entering PrmDigJobTyp =                      20
 LenSav and NKeep                       0                       0
 Entered Stor2E with KNTT1,2                      56                  130654
 Leave Stor2X
 Entering PrmDigJobTyp =                      20
 LenSav and NKeep                       0                       0
 Entered Stor2E with KNTT1,2                      70                  130648
 Leave Stor2X
 Entering PrmDigJobTyp =                      20
 LenSav and NKeep                       0                       0
 Entered Stor2E with KNTT1,2                      84                  130642
 Leave Stor2X
 Entering PrmDigJobTyp =                      20
 LenSav and NKeep                       0                       0
 Entered Stor2E with KNTT1,2                      98                  130636
 Leave Stor2X
 Entering PrmDigJobTyp =                      20
 LenSav and NKeep                       0                       0
 Entered Stor2E with KNTT1,2                     114                  130632
 Leave Stor2X
 Entering PrmDigJobTyp =                      20
 LenSav and NKeep                       0                       0
 Entered Stor2E with KNTT1,2                     114                  130630
 Leave Stor2X
 Entering PrmDigJobTyp =                      20
 LenSav and NKeep                       0                       0
 Entered Stor2E with KNTT1,2                     114                  130614
 Leave Stor2X
 Entering PrmDigJobTyp =                      20
 LenSav and NKeep                       0                       0
 Entered Stor2E with KNTT1,2                     114                  130598
 Leave Stor2X
 Entering PrmDigJobTyp =                      20
 LenSav and NKeep                       0                       0
 Entered Stor2E with KNTT1,2                     114                  130582
 Leave Stor2X
 Entering PrmDigJobTyp =                      20
 LenSav and NKeep                       0                       0
 Entered Stor2E with KNTT1,2                     114                  130566
 Leave Stor2X
 Entering PrmDigJobTyp =                      20
 LenSav and NKeep                       0                       0
 Entered Stor2E with KNTT1,2                     114                  130550
 Leave Stor2X
 Entering PrmDigJobTyp =                      20
 LenSav and NKeep                       0                       0
 Entered Stor2E with KNTT1,2                     114                  130534
 Leave Stor2X
 Entering PrmDigJobTyp =                      20
 LenSav and NKeep                       0                       0
 Entered Stor2E with KNTT1,2                     114                  130518
 Leave Stor2X
 Entering PrmDigJobTyp =                      20
 LenSav and NKeep                       0                       0
 Entered Stor2E with KNTT1,2                     114                  130502
 Leave Stor2X
 Entering PrmDigJobTyp =                      20
 LenSav and NKeep                       0                       0
 Entered Stor2E with KNTT1,2                     114                  130490
 Leave Stor2X
 Entering PrmDigJobTyp =                      20
 LenSav and NKeep                       0                       0
 Entered Stor2E with KNTT1,2                     126                  130480
 Leave Stor2X
 Entering PrmDigJobTyp =                      20
 LenSav and NKeep                       0                       0
 Entered Stor2E with KNTT1,2                     136                  130468
 Leave Stor2X
 Entering PrmDigJobTyp =                      20
 LenSav and NKeep                       0                       0
 Entered Stor2E with KNTT1,2                     150                  130460
 Leave Stor2X
 Entering PrmDigJobTyp =                      20
 LenSav and NKeep                       0                       0
 Entered Stor2E with KNTT1,2                     170                  130458
 Leave Stor2X
 Entering PrmDigJobTyp =                      20
 LenSav and NKeep                       0                       0
 Entered Stor2E with KNTT1,2                     178                  130444
 Leave Stor2X
 Entering PrmDigJobTyp =                      20
 LenSav and NKeep                       0                       0
 Entered Stor2E with KNTT1,2                     190                  130434
 Leave Stor2X
 Entering PrmDigJobTyp =                      20
 LenSav and NKeep                       0                       0
 Entered Stor2E with KNTT1,2                     204                  130426
 Leave Stor2X
 Entering PrmDigJobTyp =                      20
 LenSav and NKeep                       0                       0
 Entered Stor2E with KNTT1,2                     218                  130418
 Leave Stor2X
 Entering PrmDigJobTyp =                      20
 LenSav and NKeep                       0                       0
 Entered Stor2E with KNTT1,2                     220                  130414
 Leave Stor2X
 Entering PrmDigJobTyp =                      20
 LenSav and NKeep                       0                       0
 Entered Stor2E with KNTT1,2                     234                  130402
 Leave Stor2X
 Entering PrmDigJobTyp =                      20
 LenSav and NKeep                       0                       0
 Entered Stor2E with KNTT1,2                     252                  130394
 Leave Stor2X
 Entering PrmDigJobTyp =                      20
 LenSav and NKeep                       0                       0
 Entered Stor2E with KNTT1,2                     254                  130392
 Leave Stor2X
 Entering PrmDigJobTyp =                      20
 LenSav and NKeep                       0                       0
 Entered Stor2E with KNTT1,2                     254                  130378
 Leave Stor2X
 Entering PrmDigJobTyp =                      20
 LenSav and NKeep                       0                       0
 Entered Stor2E with KNTT1,2                     254                  130364
 Leave Stor2X
 Entering PrmDigJobTyp =                      20
 LenSav and NKeep                       0                       0
 Entered Stor2E with KNTT1,2                     254                  130350
 Leave Stor2X
 Entering PrmDigJobTyp =                      20
 LenSav and NKeep                       0                       0
 Entered Stor2E with KNTT1,2                     254                  130336
 Leave Stor2X
 Entering PrmDigJobTyp =                      20
 LenSav and NKeep                       0                       0
 Entered Stor2E with KNTT1,2                     254                  130322
 Leave Stor2X
 Entering PrmDigJobTyp =                      20
 LenSav and NKeep                       0                       0
 Entered Stor2E with KNTT1,2                     254                  130312
 Leave Stor2X
 Entering PrmDigJobTyp =                      20
 LenSav and NKeep                       0                       0
 Entered Stor2E with KNTT1,2                     264                  130302
 Leave Stor2X
 Entering PrmDigJobTyp =                      20
 LenSav and NKeep                       0                       0
 Entered Stor2E with KNTT1,2                     274                  130292
 Leave Stor2X
 Entering PrmDigJobTyp =                      20
 LenSav and NKeep                       0                       0
 Entered Stor2E with KNTT1,2                     292                  130290
 Leave Stor2X
 Entering PrmDigJobTyp =                      20
 LenSav and NKeep                       0                       0
 Entered Stor2E with KNTT1,2                     300                  130278
 Leave Stor2X
 Entering PrmDigJobTyp =                      20
 LenSav and NKeep                       0                       0
 Entered Stor2E with KNTT1,2                     314                  130272
 Leave Stor2X
 Entering PrmDigJobTyp =                      20
 LenSav and NKeep                       0                       0
 Entered Stor2E with KNTT1,2                     314                  130268
 Leave Stor2X
 Entering PrmDigJobTyp =                      20
 LenSav and NKeep                       0                       0
 Entered Stor2E with KNTT1,2                     326                  130258
 Leave Stor2X
 Entering PrmDigJobTyp =                      20
 LenSav and NKeep                       0                       0
 Entered Stor2E with KNTT1,2                     338                  130248
 Leave Stor2X
 Entering PrmDigJobTyp =                      20
 LenSav and NKeep                       0                       0
 Entered Stor2E with KNTT1,2                     346                  130244
 Leave Stor2X
 Entering PrmDigJobTyp =                      20
 LenSav and NKeep                       0                       0
 Entered Stor2E with KNTT1,2                     358                  130236
 Leave Stor2X
 Entering PrmDigJobTyp =                      20
 LenSav and NKeep                       0                       0
 Entered Stor2E with KNTT1,2                     358                  130218
 Leave Stor2X
 Entering PrmDigJobTyp =                      20
 LenSav and NKeep                       0                       0
 Entered Stor2E with KNTT1,2                     358                  130200
 Leave Stor2X
 Entering PrmDigJobTyp =                      20
 LenSav and NKeep                       0                       0
 Entered Stor2E with KNTT1,2                     358                  130182
 Leave Stor2X
 Entering PrmDigJobTyp =                      20
 LenSav and NKeep                       0                       0
 Entered Stor2E with KNTT1,2                     358                  130164
 Leave Stor2X
 Entering PrmDigJobTyp =                      20
 LenSav and NKeep                       0                       0
 Entered Stor2E with KNTT1,2                     358                  130146
 Leave Stor2X
 Entering PrmDigJobTyp =                      20
 LenSav and NKeep                       0                       0
 Entered Stor2E with KNTT1,2                     358                  130128
 Leave Stor2X
 Entering PrmDigJobTyp =                      20
 LenSav and NKeep                       0                       0
 Entered Stor2E with KNTT1,2                     358                  130116
 Leave Stor2X
 Entering PrmDigJobTyp =                      20
 LenSav and NKeep                       0                       0
 Entered Stor2E with KNTT1,2                     372                  130106
 Leave Stor2X
 Entering PrmDigJobTyp =                      20
 LenSav and NKeep                       0                       0
 Entered Stor2E with KNTT1,2                     386                  130096
 Leave Stor2X
 Entering PrmDigJobTyp =                      20
 LenSav and NKeep                       0                       0
 Entered Stor2E with KNTT1,2                     400                  130086
 Leave Stor2X
 Entering PrmDigJobTyp =                      20
 LenSav and NKeep                       0                       0
 Entered Stor2E with KNTT1,2                     414                  130076
 Leave Stor2X
 Entering PrmDigJobTyp =                      20
 LenSav and NKeep                       0                       0
 Entered Stor2E with KNTT1,2                     428                  130066
 Leave Stor2X
 Entering PrmDigJobTyp =                      20
 LenSav and NKeep                       0                       0
 Entered Stor2E with KNTT1,2                     444                  130058
 Leave Stor2X
 Entering PrmDigJobTyp =                      20
 LenSav and NKeep                       0                       0
 Entered Stor2E with KNTT1,2                     450                  130052
 Leave Stor2X
 Entering PrmDigJobTyp =                      20
 LenSav and NKeep                       0                       0
 Entered Stor2E with KNTT1,2                     466                  130040
 Leave Stor2X
 Entering PrmDigJobTyp =                      20
 LenSav and NKeep                       0                       0
 Entered Stor2E with KNTT1,2                     482                  130028
 Leave Stor2X
 Entering PrmDigJobTyp =                      20
 LenSav and NKeep                       0                       0
 Entered Stor2E with KNTT1,2                     498                  130016
 Leave Stor2X
 Entering PrmDigJobTyp =                      20
 LenSav and NKeep                       0                       0
 Entered Stor2E with KNTT1,2                     512                  130006
 Leave Stor2X
 Entering PrmDigJobTyp =                      20
 LenSav and NKeep                       0                       0
 Entered Stor2E with KNTT1,2                     526                  129996
 Leave Stor2X
 Entering PrmDigJobTyp =                      20
 LenSav and NKeep                       0                       0
 Entered Stor2E with KNTT1,2                     544                  129984
 Leave Stor2X
 Entering PrmDigJobTyp =                      20
 LenSav and NKeep                       0                       0
 Entered Stor2E with KNTT1,2                     552                  129980
 Leave Stor2X
 Entering PrmDigJobTyp =                      20
 LenSav and NKeep                       0                       0
 Entered Stor2E with KNTT1,2                     552                  129958
 Leave Stor2X
 Entering PrmDigJobTyp =                      20
 LenSav and NKeep                       0                       0
 Entered Stor2E with KNTT1,2                     552                  129936
 Leave Stor2X
 Entering PrmDigJobTyp =                      20
 LenSav and NKeep                       0                       0
 Entered Stor2E with KNTT1,2                     552                  129914
 Leave Stor2X
 Entering PrmDigJobTyp =                      20
 LenSav and NKeep                       0                       0
 Entered Stor2E with KNTT1,2                     552                  129892
 Leave Stor2X
 Entering PrmDigJobTyp =                      20
 LenSav and NKeep                       0                       0
 Entered Stor2E with KNTT1,2                     552                  129870
 Leave Stor2X
 Entering PrmDigJobTyp =                      20
 LenSav and NKeep                       0                       0
 Entered Stor2E with KNTT1,2                     552                  129848
 Leave Stor2X
 Entering PrmDigJobTyp =                      20
 LenSav and NKeep                       0                       0
 Entered Stor2E with KNTT1,2                     552                  129840
 Leave Stor2X
 Entering PrmDigJobTyp =                      20
 LenSav and NKeep                       0                       0
 Entered Stor2E with KNTT1,2                     568                  129828
 Leave Stor2X
 Entering PrmDigJobTyp =                      20
 LenSav and NKeep                       0                       0
 Entered Stor2E with KNTT1,2                     588                  129820
 Leave Stor2X
 Entering PrmDigJobTyp =                      20
 LenSav and NKeep                       0                       0
 Entered Stor2E with KNTT1,2                     600                  129804
 Leave Stor2X
 Entering PrmDigJobTyp =                      20
 LenSav and NKeep                       0                       0
 Entered Stor2E with KNTT1,2                     618                  129794
 Leave Stor2X
 Entering PrmDigJobTyp =                      20
 LenSav and NKeep                       0                       0
 Entered Stor2E with KNTT1,2                     640                  129788
 Leave Stor2X
 Entering PrmDigJobTyp =                      20
 LenSav and NKeep                       0                       0
 Entered Stor2E with KNTT1,2                     652                  129772
 Leave Stor2X
 Entering PrmDigJobTyp =                      20
 LenSav and NKeep                       0                       0
 Entered Stor2E with KNTT1,2                     662                  129768
 Leave Stor2X
 Entering PrmDigJobTyp =                      20
 LenSav and NKeep                       0                       0
 Entered Stor2E with KNTT1,2                     684                  129756
 Leave Stor2X
 Entering PrmDigJobTyp =                      20
 LenSav and NKeep                       0                       0
 Entered Stor2E with KNTT1,2                     704                  129742
 Leave Stor2X
 Entering PrmDigJobTyp =                      20
 LenSav and NKeep                       0                       0
 Entered Stor2E with KNTT1,2                     724                  129732
 Leave Stor2X
 Entering PrmDigJobTyp =                      20
 LenSav and NKeep                       0                       0
 Entered Stor2E with KNTT1,2                     742                  129722
 Leave Stor2X
 Entering PrmDigJobTyp =                      20
 LenSav and NKeep                       0                       0
 Entered Stor2E with KNTT1,2                     760                  129712
 Leave Stor2X
 Entering PrmDigJobTyp =                      20
 LenSav and NKeep                       0                       0
 Entered Stor2E with KNTT1,2                     782                  129698
 Leave Stor2X
 Entering PrmDigJobTyp =                      20
 LenSav and NKeep                       0                       0
 Entered Stor2E with KNTT1,2                     804                  129684
 Leave Stor2X
 Entering PrmDigJobTyp =                      20
 LenSav and NKeep                       0                       0
 Entered Stor2E with KNTT1,2                     812                  129680
 Leave Stor2X
 Entering PrmDigJobTyp =                      20
 LenSav and NKeep                       0                       0
 Entered Stor2E with KNTT1,2                     836                  129662
 Leave Stor2X
 Entering PrmDigJobTyp =                      20
 LenSav and NKeep                       0                       0
 Entered Stor2E with KNTT1,2                     846                  129658
 Leave Stor2X
 Entering PrmDigJobTyp =                      20
 LenSav and NKeep                       0                       0
 Entered Stor2E with KNTT1,2                     846                  129634
 Leave Stor2X
 Entering PrmDigJobTyp =                      20
 LenSav and NKeep                       0                       0
 Entered Stor2E with KNTT1,2                     846                  129618
 Leave Stor2X
 Entering PrmDigJobTyp =                      20
 LenSav and NKeep                       0                       0
 Entered Stor2E with KNTT1,2                     866                  129606
 Leave Stor2X
 Entering PrmDigJobTyp =                      20
 LenSav and NKeep                       0                       0
 Entered Stor2E with KNTT1,2                     878                  129598
 Leave Stor2X
 Entering PrmDigJobTyp =                      20
 LenSav and NKeep                       0                       0
 Entered Stor2E with KNTT1,2                     898                  129590
 Leave Stor2X
 Entering PrmDigJobTyp =                      20
 LenSav and NKeep                       0                       0
 Entered Stor2E with KNTT1,2                     910                  129586
 Leave Stor2X
 Entering PrmDigJobTyp =                      20
 LenSav and NKeep                       0                       0
 Entered Stor2E with KNTT1,2                     926                  129578
 Leave Stor2X
 Entering PrmDigJobTyp =                      20
 LenSav and NKeep                       0                       0
 Entered Stor2E with KNTT1,2                     938                  129562
 Leave Stor2X
 Entering PrmDigJobTyp =                      20
 LenSav and NKeep                       0                       0
 Entered Stor2E with KNTT1,2                     940                  129558
 Leave Stor2X
 Entering PrmDigJobTyp =                      20
 LenSav and NKeep                       0                       0
 Entered Stor2E with KNTT1,2                     940                  129538
 Leave Stor2X
 Entering PrmDigJobTyp =                      20
 LenSav and NKeep                       0                       0
 Entered Stor2E with KNTT1,2                     940                  129518
 Leave Stor2X
 Entering PrmDigJobTyp =                      20
 LenSav and NKeep                       0                       0
 Entered Stor2E with KNTT1,2                     958                  129508
 Leave Stor2X
 Entering PrmDigJobTyp =                      20
 LenSav and NKeep                       0                       0
 Entered Stor2E with KNTT1,2                     972                  129498
 Leave Stor2X
 Entering PrmDigJobTyp =                      20
 LenSav and NKeep                       0                       0
 Entered Stor2E with KNTT1,2                     988                  129486
 Leave Stor2X
 Entering PrmDigJobTyp =                      20
 LenSav and NKeep                       0                       0
 Entered Stor2E with KNTT1,2                     996                  129478
 Leave Stor2X
 Entering PrmDigJobTyp =                      20
 LenSav and NKeep                       0                       0
 Entered Stor2E with KNTT1,2                    1012                  129470
 Leave Stor2X
 Entering PrmDigJobTyp =                      20
 LenSav and NKeep                       0                       0
 Entered Stor2E with KNTT1,2                    1032                  129462
 Leave Stor2X
 Entering PrmDigJobTyp =                      20
 LenSav and NKeep                       0                       0
 Entered Stor2E with KNTT1,2                    1040                  129462
 Leave Stor2X
 Entering PrmDigJobTyp =                      20
 LenSav and NKeep                       0                       0
 Entered Stor2E with KNTT1,2                    1042                  129458
 Leave Stor2X
 Entering PrmDigJobTyp =                      20
 LenSav and NKeep                       0                       0
 Entered Stor2E with KNTT1,2                    1042                  129432
 Leave Stor2X
 Entering PrmDigJobTyp =                      20
 LenSav and NKeep                       0                       0
 Entered Stor2E with KNTT1,2                    1042                  129418
 Leave Stor2X
 Entering PrmDigJobTyp =                      20
 LenSav and NKeep                       0                       0
 Entered Stor2E with KNTT1,2                    1066                  129406
 Leave Stor2X
 Entering PrmDigJobTyp =                      20
 LenSav and NKeep                       0                       0
 Entered Stor2E with KNTT1,2                    1078                  129402
 Leave Stor2X
 Entering PrmDigJobTyp =                      20
 LenSav and NKeep                       0                       0
 Entered Stor2E with KNTT1,2                    1098                  129394
 Leave Stor2X
 Entering PrmDigJobTyp =                      20
 LenSav and NKeep                       0                       0
 Entered Stor2E with KNTT1,2                    1110                  129390
 Leave Stor2X
 Entering PrmDigJobTyp =                      20
 LenSav and NKeep                       0                       0
 Entered Stor2E with KNTT1,2                    1126                  129382
 Leave Stor2X
 Entering PrmDigJobTyp =                      20
 LenSav and NKeep                       0                       0
 Entered Stor2E with KNTT1,2                    1142                  129370
 Leave Stor2X
 Entering PrmDigJobTyp =                      20
 LenSav and NKeep                       0                       0
 Entered Stor2E with KNTT1,2                    1146                  129366
 Leave Stor2X
 Entering PrmDigJobTyp =                      20
 LenSav and NKeep                       0                       0
 Entered Stor2E with KNTT1,2                    1150                  129362
 Leave Stor2X
 Entering PrmDigJobTyp =                      20
 LenSav and NKeep                       0                       0
 Entered Stor2E with KNTT1,2                    1152                  129358
 Leave Stor2X
 Entering PrmDigJobTyp =                      20
 LenSav and NKeep                       0                       0
 Entered Stor2E with KNTT1,2                    1152                  129338
 Leave Stor2X
 Entering PrmDigJobTyp =                      20
 LenSav and NKeep                       0                       0
 Entered Stor2E with KNTT1,2                    1170                  129330
 Leave Stor2X
 Entering PrmDigJobTyp =                      20
 LenSav and NKeep                       0                       0
 Entered Stor2E with KNTT1,2                    1180                  129326
 Leave Stor2X
 Entering PrmDigJobTyp =                      20
 LenSav and NKeep                       0                       0
 Entered Stor2E with KNTT1,2                    1188                  129326
 Leave Stor2X
 Entering PrmDigJobTyp =                      20
 LenSav and NKeep                       0                       0
 Entered Stor2E with KNTT1,2                    1196                  129322
 Leave Stor2X
 Entering PrmDigJobTyp =                      20
 LenSav and NKeep                       0                       0
 Entered Stor2E with KNTT1,2                    1202                  129314
 Leave Stor2X
 Entering PrmDigJobTyp =                      20
 LenSav and NKeep                       0                       0
 Entered Stor2E with KNTT1,2                    1202                  129310
 Leave Stor2X
 Entering PrmDigJobTyp =                      20
 LenSav and NKeep                       0                       0
 Entered Stor2E with KNTT1,2                    1206                  129310
 Leave Stor2X
 Entering PrmDigJobTyp =                      20
 LenSav and NKeep                       0                       0
 Entered Stor2E with KNTT1,2                    1206                  129306
 Leave Stor2X
 Entering PrmDigJobTyp =                      20
 LenSav and NKeep                       0                       0
 Entered Stor2E with KNTT1,2                    1206                  129304
 Leave Stor2X
 Entering PrmDigJobTyp =                      20
 LenSav and NKeep                       0                       0
 Entered Stor2E with KNTT1,2                    1206                  129284
 Leave Stor2X
 Entering PrmDigJobTyp =                      20
 LenSav and NKeep                       0                       0
 Entered Stor2E with KNTT1,2                    1224                  129276
 Leave Stor2X
 Entering PrmDigJobTyp =                      20
 LenSav and NKeep                       0                       0
 Entered Stor2E with KNTT1,2                    1234                  129272
 Leave Stor2X
 Entering PrmDigJobTyp =                      20
 LenSav and NKeep                       0                       0
 Entered Stor2E with KNTT1,2                    1238                  129268
 Leave Stor2X
 Entering PrmDigJobTyp =                      20
 LenSav and NKeep                       0                       0
 Entered Stor2E with KNTT1,2                    1246                  129264
 Leave Stor2X
 Entering PrmDigJobTyp =                      20
 LenSav and NKeep                       0                       0
 Entered Stor2E with KNTT1,2                    1256                  129260
 Leave Stor2X
 Entering PrmDigJobTyp =                      20
 LenSav and NKeep                       0                       0
 Entered Stor2E with KNTT1,2                    1260                  129260
 Leave Stor2X
 Entering PrmDigJobTyp =                      20
 LenSav and NKeep                       0                       0
 Entered Stor2E with KNTT1,2                    1260                  129256
 Leave Stor2X
 Entering PrmDigJobTyp =                      20
 LenSav and NKeep                       0                       0
 Entered Stor2E with KNTT1,2                    1260                  129252
 Leave Stor2X
 Entering PrmDigJobTyp =                      20
 LenSav and NKeep                       0                       0
 Entered Stor2E with KNTT1,2                    1262                  129252
 Leave Stor2X
 In PrSumR
 Called IWRITE
         1540 integrals produced for a total of         1540.
 ExpMin= 3.16D-02 ExpMax= 1.00D+03 ExpMxC= 1.00D+01 IAcc=3 IRadAn=         5 AccDes= 0.00D+00
 Harris functional with IExCor=  205 and IRadAn=       5 diagonalized for initial guess.
 HarFok:  IExCor=  205 AccDes= 0.00D+00 IRadAn=         5 IDoV= 1 UseB2=F ITyADJ=14
 ICtDFT=  3500011 ScaDFX=  1.000000  1.000000  1.000000  1.000000
 FoFCou: FMM=F IPFlag=           0 FMFlag=      100000 FMFlg1=           0
         NFxFlg=           0 DoJE=T BraDBF=F KetDBF=T FulRan=T
         wScrn=  0.000000 ICntrl=     500 IOpCl=  0 I1Cent=   200000004 NGrid=           0
         NMat0=    1 NMatS0=      1 NMatT0=    0 NMatD0=    1 NMtDS0=    0 NMtDT0=    0
 Petite list used in FoFCou.
 Mixing orbitals, IMix= 3 IMixAn=  0 NRI=2 NE=   10 Coef=  7.07106781D-01  7.07106781D-01
 Also mixing orbitals    10 and    12 Coef=  3.82683432D-01  9.23879533D-01
 Initial guess <Sx>= 0.0106 <Sy>= 0.2500 <Sz>=-0.4264 <S**2>= 0.9996 S= 0.6179
 Two-electron integrals will be kept in memory, NGetB=      152788.
 Requested convergence on RMS density matrix=1.00D-08 within 128 cycles.
 Requested convergence on MAX density matrix=1.00D-06.
 Requested convergence on             energy=1.00D-06.
 No special actions if energy rises.
 ************************************************
 *READING THE YAODEN.PDM FILE TO GET NEW DENSITY*
 ************************************************
 Rare condition: small coef for last iteration:  0.000D+00
 EnCoef did   100 forward-backward iterations
 Rare condition: small coef for last iteration:  0.000D+00
 EnCoef did   100 forward-backward iterations
 Rare condition: small coef for last iteration:  0.000D+00
 EnCoef did   100 forward-backward iterations
 Rare condition: small coef for last iteration:  0.000D+00
 SCF Done:  E(GHF) =  -4.88342203652     A.U. after   40 cycles
            NFock= 40  Conv=0.38D-08     -V/T= 1.9491
 <Sx>= 0.0000 <Sy>= 0.0000 <Sz>= 0.0000 <S**2>= 0.9285 S= 0.5856
 <L.S>= 0.000000000000E+00
 Range of M.O.s used for correlation:     1    10
 NBasis=    10 NAE=    10 NBE=     0 NFC=     0 NFV=     0
 NROrb=     20 NOA=    10 NOB=     0 NVA=    10 NVB=     0
 jaja DoHack is true or false? T
 jaja in hckghf.F, NBasis=                      10
 jaja in hckGHF/FixOG, LC =                      800
 jaja in hckGHF/FixOG, IRwC=                      548
 bfr conversion (real):
                 1             2             3             4             5 
      1a  0.139705D+00  0.698727D-01 -0.184309D+00  0.943433D-01  0.300129D+00
      1b -0.401924D-01  0.411521D-01  0.881088D-01  0.154351D+00 -0.120163D+00
      2a  0.325263D-01  0.190183D-01 -0.743300D-01  0.548264D-01  0.170383D+00
      2b -0.174970D-01  0.274749D-01  0.734330D-01  0.163739D+00 -0.187467D+00
      3a  0.183181D+00  0.998586D-01 -0.866199D-01  0.661138D-01 -0.113925D+00
      3b -0.770898D-01  0.107577D+00  0.905942D-01  0.204255D+00  0.750128D-01
      4a  0.207106D+00  0.105619D+00 -0.194876D+00  0.109183D+00  0.122175D+00
      4b -0.656078D-01  0.742504D-01  0.114463D+00  0.220247D+00 -0.780206D-01
      5a  0.125463D+00  0.869595D-01  0.992560D-01 -0.404520D-01 -0.207046D+00
      5b -0.107740D+00  0.194465D+00 -0.240600D-01 -0.204883D-01  0.152023D+00
      6a  0.194465D+00  0.107740D+00 -0.204883D-01  0.240600D-01 -0.256140D+00
      6b -0.869595D-01  0.125463D+00  0.404520D-01  0.992560D-01  0.136596D+00
      7a  0.742504D-01  0.656078D-01  0.220247D+00 -0.114463D+00  0.126210D+00
      7b -0.105619D+00  0.207106D+00 -0.109183D+00 -0.194876D+00 -0.767526D-01
      8a  0.107577D+00  0.770898D-01  0.204255D+00 -0.905942D-01 -0.122511D+00
      8b -0.998586D-01  0.183181D+00 -0.661138D-01 -0.866199D-01  0.723146D-01
      9a  0.274749D-01  0.174970D-01  0.163739D+00 -0.734330D-01  0.343845D+00
      9b -0.190183D-01  0.325263D-01 -0.548264D-01 -0.743300D-01 -0.132958D+00
     10a  0.411521D-01  0.401924D-01  0.154351D+00 -0.881088D-01  0.157489D+00
     10b -0.698727D-01  0.139705D+00 -0.943433D-01 -0.184309D+00 -0.164987D+00
                 6             7             8             9            10 
      1a  0.164987D+00 -0.391932D+00  0.216974D+00  0.606580D-01 -0.234132D+00
      1b  0.157489D+00  0.996518D-01  0.767047D-01 -0.448189D-01  0.244035D-01
      2a  0.132958D+00  0.579491D-01 -0.163051D-01  0.173587D+00 -0.309798D+00
      2b  0.343845D+00  0.397393D-01  0.926341D-01  0.525171D+00  0.201578D+00
      3a -0.723146D-01 -0.378752D+00  0.209684D+00 -0.209139D+00  0.443506D+00
      3b -0.122511D+00  0.963214D-01  0.741646D-01 -0.505288D+00 -0.217169D+00
      4a  0.767526D-01  0.481979D+00 -0.267522D+00 -0.253044D-01  0.244584D-01
      4b  0.126210D+00 -0.124959D+00 -0.989320D-01 -0.114109D+00 -0.369560D-01
      5a -0.136596D+00 -0.316864D+00  0.228229D+00  0.472345D-01 -0.429660D-01
      5b -0.256140D+00  0.262927D+00  0.410094D+00  0.217880D+00  0.699676D-01
      6a -0.152023D+00  0.410094D+00 -0.262927D+00 -0.699676D-01  0.217880D+00
      6b -0.207046D+00 -0.228229D+00 -0.316864D+00 -0.429660D-01 -0.472345D-01
      7a  0.780206D-01 -0.989320D-01  0.124959D+00  0.369560D-01 -0.114109D+00
      7b  0.122175D+00  0.267522D+00  0.481979D+00  0.244584D-01  0.253044D-01
      8a -0.750128D-01  0.741646D-01 -0.963214D-01  0.217169D+00 -0.505288D+00
      8b -0.113925D+00 -0.209684D+00 -0.378752D+00  0.443506D+00  0.209139D+00
      9a  0.187467D+00  0.926341D-01 -0.397393D-01 -0.201578D+00  0.525171D+00
      9b  0.170383D+00  0.163051D-01  0.579491D-01 -0.309798D+00 -0.173587D+00
     10a  0.120163D+00  0.767047D-01 -0.996518D-01 -0.244035D-01 -0.448189D-01
     10b  0.300129D+00 -0.216974D+00 -0.391932D+00 -0.234132D+00 -0.606579D-01
                11            12            13            14            15 
      1a  0.359951D+00  0.219140D+00 -0.271605D+00  0.240511D+00 -0.562253D+00
      1b -0.242686D+00  0.458114D+00  0.272881D+00  0.330402D+00  0.311568D+00
      2a -0.373163D+00 -0.170193D+00 -0.323047D+00  0.149133D+00  0.555702D+00
      2b  0.110396D+00 -0.123866D+00 -0.311184D+00 -0.513068D+00 -0.131299D+00
      3a  0.217509D+00  0.132791D+00  0.211440D+00 -0.188319D+00  0.426657D+00
      3b -0.147565D+00  0.279105D+00 -0.217471D+00 -0.264391D+00 -0.133964D+00
      4a -0.188317D+00 -0.130412D+00  0.629678D+00 -0.369525D+00 -0.118451D+00
      4b  0.166022D+00 -0.336777D+00  0.240525D+00  0.478412D+00 -0.150011D+00
      5a -0.434917D+00 -0.163955D+00 -0.878310D-01 -0.223498D-02  0.230543D+00
      5b  0.434298D-01  0.675607D-01 -0.283235D+00 -0.422574D+00 -0.112467D+00
      6a  0.675607D-01 -0.434298D-01 -0.422574D+00  0.283235D+00 -0.198849D+00
      6b  0.163955D+00 -0.434917D+00  0.223499D-02 -0.878311D-01  0.118848D+00
      7a -0.336777D+00 -0.166022D+00  0.478412D+00 -0.240525D+00 -0.459401D+00
      7b  0.130412D+00 -0.188317D+00  0.369525D+00  0.629678D+00  0.336594D-01
      8a  0.279105D+00  0.147565D+00 -0.264391D+00  0.217471D+00 -0.167547D+00
      8b -0.132791D+00  0.217509D+00  0.188319D+00  0.211440D+00  0.186136D+00
      9a -0.123866D+00 -0.110396D+00 -0.513068D+00  0.311184D+00 -0.101521D+00
      9b  0.170193D+00 -0.373163D+00 -0.149133D+00 -0.323047D+00  0.222749D+00
     10a  0.458114D+00  0.242686D+00  0.330402D+00 -0.272881D+00  0.585711D+00
     10b -0.219140D+00  0.359951D+00 -0.240511D+00 -0.271605D+00 -0.306844D+00
                16            17            18            19            20 
      1a  0.306844D+00  0.566135D-01  0.384079D-02 -0.450659D+00 -0.277620D+00
      1b  0.585711D+00  0.883826D-01  0.199407D+00  0.301663D+00 -0.545369D+00
      2a -0.222749D+00  0.315780D+00 -0.215957D+00  0.253712D+00  0.124106D+00
      2b -0.101521D+00 -0.241086D+00 -0.391879D+00 -0.877741D-01  0.110598D+00
      3a -0.186136D+00  0.128293D+00 -0.154147D+00  0.802755D+00  0.449510D+00
      3b -0.167547D+00 -0.303310D+00 -0.580008D+00 -0.422603D+00  0.696768D+00
      4a -0.336594D-01 -0.655845D+00  0.424511D+00 -0.538439D-01  0.290686D-01
      4b -0.459401D+00  0.426460D+00  0.661749D+00 -0.122619D+00  0.314658D+00
      5a -0.118848D+00 -0.487495D+00  0.362005D+00 -0.778023D+00 -0.385071D+00
      5b -0.198849D+00  0.460671D+00  0.786290D+00  0.280616D+00 -0.366567D+00
      6a  0.112467D+00  0.786290D+00 -0.460671D+00 -0.366567D+00 -0.280616D+00
      6b  0.230543D+00 -0.362005D+00 -0.487495D+00  0.385071D+00 -0.778023D+00
      7a  0.150011D+00  0.661749D+00 -0.426460D+00  0.314658D+00  0.122619D+00
      7b -0.118451D+00 -0.424511D+00 -0.655845D+00 -0.290686D-01 -0.538439D-01
      8a  0.133964D+00 -0.580008D+00  0.303310D+00  0.696768D+00  0.422603D+00
      8b  0.426657D+00  0.154147D+00  0.128293D+00 -0.449510D+00  0.802755D+00
      9a  0.131299D+00 -0.391879D+00  0.241086D+00  0.110598D+00  0.877741D-01
      9b  0.555702D+00  0.215957D+00  0.315780D+00 -0.124106D+00  0.253712D+00
     10a -0.311568D+00  0.199407D+00 -0.883827D-01 -0.545369D+00 -0.301663D+00
     10b -0.562253D+00 -0.384079D-02  0.566135D-01  0.277620D+00 -0.450659D+00
 bfr conversion (imaginary):
                 1             2             3             4             5 
      1a  0.188761D-02 -0.107089D+00 -0.201547D-02 -0.142513D+00 -0.200081D-02
      1b -0.770386D-02  0.263998D-01  0.108259D+00  0.110252D-01 -0.830530D-01
      2a -0.334113D-02 -0.215888D-01  0.226266D-01 -0.370282D-01 -0.591989D-01
      2b -0.164948D-01  0.479103D-02  0.139258D+00 -0.162930D-01 -0.274595D+00
      3a -0.885358D-02 -0.130395D+00  0.294722D-01 -0.404425D-01  0.150747D-01
      3b -0.541533D-01  0.305539D-01  0.174945D+00 -0.217338D-01  0.876015D-01
      4a  0.000000D+00 -0.156279D+00  0.110440D-01 -0.139191D+00 -0.149858D-01
      4b -0.223019D-01  0.381332D-01  0.168200D+00  0.000000D+00 -0.893211D-01
      5a -0.315831D-01 -0.667389D-01  0.155508D-01  0.893655D-01  0.350386D-01
      5b -0.136323D+00  0.117777D-01  0.696893D-03 -0.187365D-01  0.189142D+00
      6a -0.117777D-01 -0.136323D+00  0.187365D-01  0.696893D-03  0.182841D-01
      6b -0.667389D-01  0.315831D-01  0.893655D-01 -0.155508D-01  0.135814D+00
      7a -0.381332D-01 -0.223019D-01  0.000000D+00  0.168200D+00 -0.136087D-01
      7b -0.156279D+00  0.000000D+00 -0.139191D+00 -0.110440D-01 -0.849379D-01
      8a -0.305539D-01 -0.541533D-01  0.217338D-01  0.174945D+00  0.121443D-01
      8b -0.130395D+00  0.885358D-02 -0.404425D-01 -0.294722D-01  0.782744D-01
      9a -0.479103D-02 -0.164948D-01  0.162930D-01  0.139258D+00  0.000000D+00
      9b -0.215888D-01  0.334113D-02 -0.370282D-01 -0.226266D-01 -0.861712D-01
     10a -0.263998D-01 -0.770385D-02 -0.110252D-01  0.108259D+00 -0.506809D-01
     10b -0.107089D+00 -0.188761D-02 -0.142513D+00  0.201547D-02 -0.237997D+00
                 6             7             8             9            10 
      1a -0.237997D+00 -0.822021D-03 -0.306654D+00 -0.200809D+00 -0.346353D-01
      1b  0.506809D-01 -0.863866D-02  0.825907D-01  0.493345D-01 -0.840454D-01
      2a -0.861712D-01  0.229489D-01  0.642788D-01 -0.147529D+00  0.648313D-01
      2b  0.000000D+00  0.863356D-01 -0.168971D-01  0.000000D+00  0.367460D+00
      3a  0.782744D-01 -0.785698D-03 -0.296335D+00  0.261052D+00 -0.461334D-01
      3b -0.121443D-01 -0.831601D-02  0.798117D-01 -0.275358D-01 -0.324142D+00
      4a -0.849379D-01  0.000000D+00  0.376269D+00 -0.304136D-02 -0.188727D-01
      4b  0.136087D-01  0.685677D-02 -0.101359D+00  0.811373D-02 -0.885064D-01
      5a  0.135814D+00  0.757554D-01 -0.184519D+00  0.886608D-02  0.364529D-01
      5b -0.182841D-01  0.277768D+00  0.510858D-01 -0.161996D-01  0.169750D+00
      6a  0.189142D+00 -0.510858D-01  0.277768D+00  0.169750D+00  0.161996D-01
      6b -0.350386D-01 -0.184519D+00 -0.757554D-01 -0.364529D-01  0.886608D-02
      7a -0.893211D-01  0.101359D+00  0.685678D-02 -0.885063D-01 -0.811374D-02
      7b  0.149858D-01  0.376269D+00  0.000000D+00  0.188727D-01 -0.304138D-02
      8a  0.876015D-01 -0.798117D-01 -0.831600D-02 -0.324142D+00  0.275358D-01
      8b -0.150747D-01 -0.296335D+00  0.785695D-03  0.461334D-01  0.261052D+00
      9a -0.274595D+00  0.168971D-01  0.863356D-01  0.367460D+00  0.000000D+00
      9b  0.591989D-01  0.642788D-01 -0.229489D-01 -0.648313D-01 -0.147529D+00
     10a -0.830530D-01 -0.825907D-01 -0.863867D-02 -0.840454D-01 -0.493345D-01
     10b  0.200081D-02 -0.306654D+00  0.822022D-03  0.346353D-01 -0.200809D+00
                11            12            13            14            15 
      1a -0.402081D-01 -0.242342D+00  0.117977D+00 -0.117898D+00  0.105352D-01
      1b -0.352436D+00  0.000000D+00  0.166112D+00  0.114872D+00  0.433172D+00
      2a -0.388421D-01  0.320482D+00 -0.588227D-01 -0.297995D+00  0.989705D-01
      2b  0.408849D-01 -0.632712D-01 -0.387641D+00 -0.146752D-01  0.148472D-01
      3a -0.248195D-01 -0.145991D+00 -0.934208D-01  0.905312D-01  0.554565D-01
      3b -0.215074D+00 -0.410727D-03 -0.133952D+00 -0.906249D-01 -0.717467D-01
      4a  0.433093D-01  0.107634D+00  0.000000D+00  0.490013D+00 -0.131321D+00
      4b  0.274138D+00  0.175008D-01  0.418650D+00 -0.585079D-01 -0.449547D+00
      5a -0.938809D-01  0.415319D+00 -0.782123D-01 -0.130312D+00  0.514658D-02
      5b -0.148231D+00 -0.111937D+00 -0.288234D+00 -0.512625D-01 -0.139279D+00
      6a  0.111937D+00 -0.148231D+00  0.512625D-01 -0.288234D+00  0.908721D-02
      6b  0.415319D+00  0.938810D-01 -0.130312D+00  0.782123D-01  0.174910D+00
      7a -0.175008D-01  0.274138D+00  0.585079D-01  0.418650D+00 -0.128192D+00
      7b  0.107634D+00 -0.433093D-01  0.490013D+00  0.000000D+00 -0.200072D+00
      8a  0.410723D-03 -0.215074D+00  0.906249D-01 -0.133952D+00  0.609097D-01
      8b -0.145991D+00  0.248195D-01  0.905312D-01  0.934208D-01  0.363037D+00
      9a  0.632712D-01  0.408849D-01  0.146752D-01 -0.387641D+00  0.105002D+00
      9b  0.320482D+00  0.388421D-01 -0.297995D+00  0.588227D-01  0.495741D+00
     10a  0.000000D+00 -0.352436D+00 -0.114872D+00  0.166112D+00  0.000000D+00
     10b -0.242342D+00  0.402081D-01 -0.117898D+00 -0.117977D+00 -0.406801D+00
                16            17            18            19            20 
      1a -0.406801D+00  0.560109D-01  0.903057D-01  0.373678D-01  0.327770D+00
      1b  0.000000D+00  0.195341D+00 -0.430506D-01  0.438495D+00  0.550190D-02
      2a  0.495741D+00 -0.468370D-01  0.217815D+00  0.265621D-01 -0.223793D+00
      2b -0.105002D+00 -0.302720D+00 -0.173921D-01 -0.564781D-01  0.382175D-01
      3a  0.363037D+00 -0.119534D+00  0.851000D-02  0.000000D+00 -0.638762D+00
      3b -0.609097D-01 -0.512497D+00  0.552470D-01 -0.514853D+00  0.479743D-01
      4a -0.200072D+00  0.609364D-01 -0.481300D+00 -0.875719D-01  0.115083D+00
      4b  0.128192D+00  0.487887D+00  0.586520D-01 -0.315733D+00 -0.792276D-01
      5a  0.174910D+00  0.115612D+00 -0.301795D+00 -0.748117D-01  0.680796D+00
      5b -0.908721D-02  0.635166D+00  0.000000D+00  0.199763D+00 -0.111431D+00
      6a -0.139279D+00  0.000000D+00  0.635166D+00  0.111431D+00  0.199763D+00
      6b -0.514657D-02 -0.301795D+00 -0.115612D+00  0.680796D+00  0.748117D-01
      7a -0.449547D+00 -0.586520D-01  0.487887D+00  0.792276D-01 -0.315733D+00
      7b  0.131321D+00 -0.481300D+00 -0.609364D-01  0.115083D+00  0.875719D-01
      8a -0.717467D-01 -0.552470D-01 -0.512497D+00 -0.479743D-01 -0.514853D+00
      8b -0.554565D-01  0.851002D-02  0.119534D+00 -0.638762D+00  0.000000D+00
      9a  0.148472D-01  0.173921D-01 -0.302720D+00 -0.382175D-01 -0.564781D-01
      9b -0.989705D-01  0.217815D+00  0.468370D-01 -0.223793D+00 -0.265621D-01
     10a  0.433172D+00  0.430506D-01  0.195341D+00 -0.550190D-02  0.438495D+00
     10b -0.105352D-01  0.903057D-01 -0.560109D-01  0.327770D+00 -0.373678D-01
 afr conversion (alpha, real):
                 1             2             3             4             5 
      1   0.139705D+00  0.698727D-01 -0.184309D+00  0.943433D-01  0.300129D+00
      2   0.325263D-01  0.190183D-01 -0.743300D-01  0.548264D-01  0.170383D+00
      3   0.183181D+00  0.998586D-01 -0.866199D-01  0.661138D-01 -0.113925D+00
      4   0.207106D+00  0.105619D+00 -0.194876D+00  0.109183D+00  0.122175D+00
      5   0.125463D+00  0.869595D-01  0.992560D-01 -0.404520D-01 -0.207046D+00
      6   0.194465D+00  0.107740D+00 -0.204883D-01  0.240600D-01 -0.256140D+00
      7   0.742504D-01  0.656078D-01  0.220247D+00 -0.114463D+00  0.126210D+00
      8   0.107577D+00  0.770898D-01  0.204255D+00 -0.905942D-01 -0.122511D+00
      9   0.274749D-01  0.174970D-01  0.163739D+00 -0.734330D-01  0.343845D+00
     10   0.411521D-01  0.401924D-01  0.154351D+00 -0.881088D-01  0.157489D+00
                 6             7             8             9            10 
      1   0.164987D+00 -0.391932D+00  0.216974D+00  0.606580D-01 -0.234132D+00
      2   0.132958D+00  0.579491D-01 -0.163051D-01  0.173587D+00 -0.309798D+00
      3  -0.723146D-01 -0.378752D+00  0.209684D+00 -0.209139D+00  0.443506D+00
      4   0.767526D-01  0.481979D+00 -0.267522D+00 -0.253044D-01  0.244584D-01
      5  -0.136596D+00 -0.316864D+00  0.228229D+00  0.472345D-01 -0.429660D-01
      6  -0.152023D+00  0.410094D+00 -0.262927D+00 -0.699676D-01  0.217880D+00
      7   0.780206D-01 -0.989320D-01  0.124959D+00  0.369560D-01 -0.114109D+00
      8  -0.750128D-01  0.741646D-01 -0.963214D-01  0.217169D+00 -0.505288D+00
      9   0.187467D+00  0.926341D-01 -0.397393D-01 -0.201578D+00  0.525171D+00
     10   0.120163D+00  0.767047D-01 -0.996518D-01 -0.244035D-01 -0.448189D-01
                11            12            13            14            15 
      1   0.359951D+00  0.219140D+00 -0.271605D+00  0.240511D+00 -0.562253D+00
      2  -0.373163D+00 -0.170193D+00 -0.323047D+00  0.149133D+00  0.555702D+00
      3   0.217509D+00  0.132791D+00  0.211440D+00 -0.188319D+00  0.426657D+00
      4  -0.188317D+00 -0.130412D+00  0.629678D+00 -0.369525D+00 -0.118451D+00
      5  -0.434917D+00 -0.163955D+00 -0.878310D-01 -0.223498D-02  0.230543D+00
      6   0.675607D-01 -0.434298D-01 -0.422574D+00  0.283235D+00 -0.198849D+00
      7  -0.336777D+00 -0.166022D+00  0.478412D+00 -0.240525D+00 -0.459401D+00
      8   0.279105D+00  0.147565D+00 -0.264391D+00  0.217471D+00 -0.167547D+00
      9  -0.123866D+00 -0.110396D+00 -0.513068D+00  0.311184D+00 -0.101521D+00
     10   0.458114D+00  0.242686D+00  0.330402D+00 -0.272881D+00  0.585711D+00
                16            17            18            19            20 
      1   0.306844D+00  0.566135D-01  0.384079D-02 -0.450659D+00 -0.277620D+00
      2  -0.222749D+00  0.315780D+00 -0.215957D+00  0.253712D+00  0.124106D+00
      3  -0.186136D+00  0.128293D+00 -0.154147D+00  0.802755D+00  0.449510D+00
      4  -0.336594D-01 -0.655845D+00  0.424511D+00 -0.538439D-01  0.290686D-01
      5  -0.118848D+00 -0.487495D+00  0.362005D+00 -0.778023D+00 -0.385071D+00
      6   0.112467D+00  0.786290D+00 -0.460671D+00 -0.366567D+00 -0.280616D+00
      7   0.150011D+00  0.661749D+00 -0.426460D+00  0.314658D+00  0.122619D+00
      8   0.133964D+00 -0.580008D+00  0.303310D+00  0.696768D+00  0.422603D+00
      9   0.131299D+00 -0.391879D+00  0.241086D+00  0.110598D+00  0.877741D-01
     10  -0.311568D+00  0.199407D+00 -0.883827D-01 -0.545369D+00 -0.301663D+00
 afr conversion (alpha, imaginary):
                 1             2             3             4             5 
      1   0.188761D-02 -0.107089D+00 -0.201547D-02 -0.142513D+00 -0.200081D-02
      2  -0.334113D-02 -0.215888D-01  0.226266D-01 -0.370282D-01 -0.591989D-01
      3  -0.885358D-02 -0.130395D+00  0.294722D-01 -0.404425D-01  0.150747D-01
      4   0.000000D+00 -0.156279D+00  0.110440D-01 -0.139191D+00 -0.149858D-01
      5  -0.315831D-01 -0.667389D-01  0.155508D-01  0.893655D-01  0.350386D-01
      6  -0.117777D-01 -0.136323D+00  0.187365D-01  0.696893D-03  0.182841D-01
      7  -0.381332D-01 -0.223019D-01  0.000000D+00  0.168200D+00 -0.136087D-01
      8  -0.305539D-01 -0.541533D-01  0.217338D-01  0.174945D+00  0.121443D-01
      9  -0.479103D-02 -0.164948D-01  0.162930D-01  0.139258D+00  0.000000D+00
     10  -0.263998D-01 -0.770385D-02 -0.110252D-01  0.108259D+00 -0.506809D-01
                 6             7             8             9            10 
      1  -0.237997D+00 -0.822021D-03 -0.306654D+00 -0.200809D+00 -0.346353D-01
      2  -0.861712D-01  0.229489D-01  0.642788D-01 -0.147529D+00  0.648313D-01
      3   0.782744D-01 -0.785698D-03 -0.296335D+00  0.261052D+00 -0.461334D-01
      4  -0.849379D-01  0.000000D+00  0.376269D+00 -0.304136D-02 -0.188727D-01
      5   0.135814D+00  0.757554D-01 -0.184519D+00  0.886608D-02  0.364529D-01
      6   0.189142D+00 -0.510858D-01  0.277768D+00  0.169750D+00  0.161996D-01
      7  -0.893211D-01  0.101359D+00  0.685678D-02 -0.885063D-01 -0.811374D-02
      8   0.876015D-01 -0.798117D-01 -0.831600D-02 -0.324142D+00  0.275358D-01
      9  -0.274595D+00  0.168971D-01  0.863356D-01  0.367460D+00  0.000000D+00
     10  -0.830530D-01 -0.825907D-01 -0.863867D-02 -0.840454D-01 -0.493345D-01
                11            12            13            14            15 
      1  -0.402081D-01 -0.242342D+00  0.117977D+00 -0.117898D+00  0.105352D-01
      2  -0.388421D-01  0.320482D+00 -0.588227D-01 -0.297995D+00  0.989705D-01
      3  -0.248195D-01 -0.145991D+00 -0.934208D-01  0.905312D-01  0.554565D-01
      4   0.433093D-01  0.107634D+00  0.000000D+00  0.490013D+00 -0.131321D+00
      5  -0.938809D-01  0.415319D+00 -0.782123D-01 -0.130312D+00  0.514658D-02
      6   0.111937D+00 -0.148231D+00  0.512625D-01 -0.288234D+00  0.908721D-02
      7  -0.175008D-01  0.274138D+00  0.585079D-01  0.418650D+00 -0.128192D+00
      8   0.410723D-03 -0.215074D+00  0.906249D-01 -0.133952D+00  0.609097D-01
      9   0.632712D-01  0.408849D-01  0.146752D-01 -0.387641D+00  0.105002D+00
     10   0.000000D+00 -0.352436D+00 -0.114872D+00  0.166112D+00  0.000000D+00
                16            17            18            19            20 
      1  -0.406801D+00  0.560109D-01  0.903057D-01  0.373678D-01  0.327770D+00
      2   0.495741D+00 -0.468370D-01  0.217815D+00  0.265621D-01 -0.223793D+00
      3   0.363037D+00 -0.119534D+00  0.851000D-02  0.000000D+00 -0.638762D+00
      4  -0.200072D+00  0.609364D-01 -0.481300D+00 -0.875719D-01  0.115083D+00
      5   0.174910D+00  0.115612D+00 -0.301795D+00 -0.748117D-01  0.680796D+00
      6  -0.139279D+00  0.000000D+00  0.635166D+00  0.111431D+00  0.199763D+00
      7  -0.449547D+00 -0.586520D-01  0.487887D+00  0.792276D-01 -0.315733D+00
      8  -0.717467D-01 -0.552470D-01 -0.512497D+00 -0.479743D-01 -0.514853D+00
      9   0.148472D-01  0.173921D-01 -0.302720D+00 -0.382175D-01 -0.564781D-01
     10   0.433172D+00  0.430506D-01  0.195341D+00 -0.550190D-02  0.438495D+00
 afr conversion (beta, real):
                 1             2             3             4             5 
      1  -0.401924D-01  0.411521D-01  0.881088D-01  0.154351D+00 -0.120163D+00
      2  -0.174970D-01  0.274749D-01  0.734330D-01  0.163739D+00 -0.187467D+00
      3  -0.770898D-01  0.107577D+00  0.905942D-01  0.204255D+00  0.750128D-01
      4  -0.656078D-01  0.742504D-01  0.114463D+00  0.220247D+00 -0.780206D-01
      5  -0.107740D+00  0.194465D+00 -0.240600D-01 -0.204883D-01  0.152023D+00
      6  -0.869595D-01  0.125463D+00  0.404520D-01  0.992560D-01  0.136596D+00
      7  -0.105619D+00  0.207106D+00 -0.109183D+00 -0.194876D+00 -0.767526D-01
      8  -0.998586D-01  0.183181D+00 -0.661138D-01 -0.866199D-01  0.723146D-01
      9  -0.190183D-01  0.325263D-01 -0.548264D-01 -0.743300D-01 -0.132958D+00
     10  -0.698727D-01  0.139705D+00 -0.943433D-01 -0.184309D+00 -0.164987D+00
                 6             7             8             9            10 
      1   0.157489D+00  0.996518D-01  0.767047D-01 -0.448189D-01  0.244035D-01
      2   0.343845D+00  0.397393D-01  0.926341D-01  0.525171D+00  0.201578D+00
      3  -0.122511D+00  0.963214D-01  0.741646D-01 -0.505288D+00 -0.217169D+00
      4   0.126210D+00 -0.124959D+00 -0.989320D-01 -0.114109D+00 -0.369560D-01
      5  -0.256140D+00  0.262927D+00  0.410094D+00  0.217880D+00  0.699676D-01
      6  -0.207046D+00 -0.228229D+00 -0.316864D+00 -0.429660D-01 -0.472345D-01
      7   0.122175D+00  0.267522D+00  0.481979D+00  0.244584D-01  0.253044D-01
      8  -0.113925D+00 -0.209684D+00 -0.378752D+00  0.443506D+00  0.209139D+00
      9   0.170383D+00  0.163051D-01  0.579491D-01 -0.309798D+00 -0.173587D+00
     10   0.300129D+00 -0.216974D+00 -0.391932D+00 -0.234132D+00 -0.606579D-01
                11            12            13            14            15 
      1  -0.242686D+00  0.458114D+00  0.272881D+00  0.330402D+00  0.311568D+00
      2   0.110396D+00 -0.123866D+00 -0.311184D+00 -0.513068D+00 -0.131299D+00
      3  -0.147565D+00  0.279105D+00 -0.217471D+00 -0.264391D+00 -0.133964D+00
      4   0.166022D+00 -0.336777D+00  0.240525D+00  0.478412D+00 -0.150011D+00
      5   0.434298D-01  0.675607D-01 -0.283235D+00 -0.422574D+00 -0.112467D+00
      6   0.163955D+00 -0.434917D+00  0.223499D-02 -0.878311D-01  0.118848D+00
      7   0.130412D+00 -0.188317D+00  0.369525D+00  0.629678D+00  0.336594D-01
      8  -0.132791D+00  0.217509D+00  0.188319D+00  0.211440D+00  0.186136D+00
      9   0.170193D+00 -0.373163D+00 -0.149133D+00 -0.323047D+00  0.222749D+00
     10  -0.219140D+00  0.359951D+00 -0.240511D+00 -0.271605D+00 -0.306844D+00
                16            17            18            19            20 
      1   0.585711D+00  0.883826D-01  0.199407D+00  0.301663D+00 -0.545369D+00
      2  -0.101521D+00 -0.241086D+00 -0.391879D+00 -0.877741D-01  0.110598D+00
      3  -0.167547D+00 -0.303310D+00 -0.580008D+00 -0.422603D+00  0.696768D+00
      4  -0.459401D+00  0.426460D+00  0.661749D+00 -0.122619D+00  0.314658D+00
      5  -0.198849D+00  0.460671D+00  0.786290D+00  0.280616D+00 -0.366567D+00
      6   0.230543D+00 -0.362005D+00 -0.487495D+00  0.385071D+00 -0.778023D+00
      7  -0.118451D+00 -0.424511D+00 -0.655845D+00 -0.290686D-01 -0.538439D-01
      8   0.426657D+00  0.154147D+00  0.128293D+00 -0.449510D+00  0.802755D+00
      9   0.555702D+00  0.215957D+00  0.315780D+00 -0.124106D+00  0.253712D+00
     10  -0.562253D+00 -0.384079D-02  0.566135D-01  0.277620D+00 -0.450659D+00
 afr conversion (beta, imaginary):
                 1             2             3             4             5 
      1  -0.770386D-02  0.263998D-01  0.108259D+00  0.110252D-01 -0.830530D-01
      2  -0.164948D-01  0.479103D-02  0.139258D+00 -0.162930D-01 -0.274595D+00
      3  -0.541533D-01  0.305539D-01  0.174945D+00 -0.217338D-01  0.876015D-01
      4  -0.223019D-01  0.381332D-01  0.168200D+00  0.000000D+00 -0.893211D-01
      5  -0.136323D+00  0.117777D-01  0.696893D-03 -0.187365D-01  0.189142D+00
      6  -0.667389D-01  0.315831D-01  0.893655D-01 -0.155508D-01  0.135814D+00
      7  -0.156279D+00  0.000000D+00 -0.139191D+00 -0.110440D-01 -0.849379D-01
      8  -0.130395D+00  0.885358D-02 -0.404425D-01 -0.294722D-01  0.782744D-01
      9  -0.215888D-01  0.334113D-02 -0.370282D-01 -0.226266D-01 -0.861712D-01
     10  -0.107089D+00 -0.188761D-02 -0.142513D+00  0.201547D-02 -0.237997D+00
                 6             7             8             9            10 
      1   0.506809D-01 -0.863866D-02  0.825907D-01  0.493345D-01 -0.840454D-01
      2   0.000000D+00  0.863356D-01 -0.168971D-01  0.000000D+00  0.367460D+00
      3  -0.121443D-01 -0.831601D-02  0.798117D-01 -0.275358D-01 -0.324142D+00
      4   0.136087D-01  0.685677D-02 -0.101359D+00  0.811373D-02 -0.885064D-01
      5  -0.182841D-01  0.277768D+00  0.510858D-01 -0.161996D-01  0.169750D+00
      6  -0.350386D-01 -0.184519D+00 -0.757554D-01 -0.364529D-01  0.886608D-02
      7   0.149858D-01  0.376269D+00  0.000000D+00  0.188727D-01 -0.304138D-02
      8  -0.150747D-01 -0.296335D+00  0.785695D-03  0.461334D-01  0.261052D+00
      9   0.591989D-01  0.642788D-01 -0.229489D-01 -0.648313D-01 -0.147529D+00
     10   0.200081D-02 -0.306654D+00  0.822022D-03  0.346353D-01 -0.200809D+00
                11            12            13            14            15 
      1  -0.352436D+00  0.000000D+00  0.166112D+00  0.114872D+00  0.433172D+00
      2   0.408849D-01 -0.632712D-01 -0.387641D+00 -0.146752D-01  0.148472D-01
      3  -0.215074D+00 -0.410727D-03 -0.133952D+00 -0.906249D-01 -0.717467D-01
      4   0.274138D+00  0.175008D-01  0.418650D+00 -0.585079D-01 -0.449547D+00
      5  -0.148231D+00 -0.111937D+00 -0.288234D+00 -0.512625D-01 -0.139279D+00
      6   0.415319D+00  0.938810D-01 -0.130312D+00  0.782123D-01  0.174910D+00
      7   0.107634D+00 -0.433093D-01  0.490013D+00  0.000000D+00 -0.200072D+00
      8  -0.145991D+00  0.248195D-01  0.905312D-01  0.934208D-01  0.363037D+00
      9   0.320482D+00  0.388421D-01 -0.297995D+00  0.588227D-01  0.495741D+00
     10  -0.242342D+00  0.402081D-01 -0.117898D+00 -0.117977D+00 -0.406801D+00
                16            17            18            19            20 
      1   0.000000D+00  0.195341D+00 -0.430506D-01  0.438495D+00  0.550190D-02
      2  -0.105002D+00 -0.302720D+00 -0.173921D-01 -0.564781D-01  0.382175D-01
      3  -0.609097D-01 -0.512497D+00  0.552470D-01 -0.514853D+00  0.479743D-01
      4   0.128192D+00  0.487887D+00  0.586520D-01 -0.315733D+00 -0.792276D-01
      5  -0.908721D-02  0.635166D+00  0.000000D+00  0.199763D+00 -0.111431D+00
      6  -0.514657D-02 -0.301795D+00 -0.115612D+00  0.680796D+00  0.748117D-01
      7   0.131321D+00 -0.481300D+00 -0.609364D-01  0.115083D+00  0.875719D-01
      8  -0.554565D-01  0.851002D-02  0.119534D+00 -0.638762D+00  0.000000D+00
      9  -0.989705D-01  0.217815D+00  0.468370D-01 -0.223793D+00 -0.265621D-01
     10  -0.105352D-01  0.903057D-01 -0.560109D-01  0.327770D+00 -0.373678D-01
 jaja in hckghf.F, ISPECT =                     548
Spin block MO for GHF transformation
NOA =   10   NOB =   10
NVA =   10   NVB =   10
 NOAvA in Hack                     100
 jaja in tranN3.F, ISPECT =                     548
 in l802/tranN3.F, LSPECT =                      800
 NMat, NBtSiz,MDV                    8372                   16000
                133954722
 TranN3:  NGot= 134217728 NBasic=    263006 NTTT=       550 NMat=      8372.
 Defined bucket =                      51                   10000
 Defined bucket =                      52                   10000
 Defined bucket =                      53                   10000
 Defined bucket =                      55                   10000
 Defined bucket =                      57                   10000
 Defined bucket =                      58                   10000
 Defined bucket =                      60                   10000
 Defined bucket =                      72                   10000
 Defined bucket =                      73                   10000
 Defined bucket =                      74                   10000
 Defined bucket =                      75                   10000
 Defined bucket =                      76                   10000
 (IK/LS) integrals will be saved in memory.
 TrCghf made   2 passes through the AO integrals.
 jaja DoHack is true or false? F
 jaja in hckghf.F, NBasis=                      10
 jaja in hckGHF/FixOG, LC =                      800
 jaja in hckGHF/FixOG, IRwC=                      548
 bfr conversion (alpha, real):
                 1             2             3             4             5 
      1   0.139705D+00  0.698727D-01 -0.184309D+00  0.943433D-01  0.300129D+00
      2   0.325263D-01  0.190183D-01 -0.743300D-01  0.548264D-01  0.170383D+00
      3   0.183181D+00  0.998586D-01 -0.866199D-01  0.661138D-01 -0.113925D+00
      4   0.207106D+00  0.105619D+00 -0.194876D+00  0.109183D+00  0.122175D+00
      5   0.125463D+00  0.869595D-01  0.992560D-01 -0.404520D-01 -0.207046D+00
      6   0.194465D+00  0.107740D+00 -0.204883D-01  0.240600D-01 -0.256140D+00
      7   0.742504D-01  0.656078D-01  0.220247D+00 -0.114463D+00  0.126210D+00
      8   0.107577D+00  0.770898D-01  0.204255D+00 -0.905942D-01 -0.122511D+00
      9   0.274749D-01  0.174970D-01  0.163739D+00 -0.734330D-01  0.343845D+00
     10   0.411521D-01  0.401924D-01  0.154351D+00 -0.881088D-01  0.157489D+00
[...]
      6b-0.750880D-02 -0.514287D-01  0.449416D-01 -0.282275D+00  0.536857D-02
      7a 0.614644D-01  0.322202D-01  0.748444D-01 -0.906273D-02 -0.196728D+00
      7b-0.534518D-01 -0.416701D-01 -0.136859D-01  0.787509D-01 -0.523633D-01
      8a-0.152511D+00  0.905406D-01  0.667758D-01  0.489429D-01 -0.362738D+00
      8b 0.726863D-01 -0.163636D+00 -0.882709D-02 -0.232808D-02  0.643033D-01
      9a 0.879949D-01 -0.467046D-01 -0.201292D-01  0.146471D-01  0.662731D-01
      9b-0.349121D-01  0.657752D-01  0.161077D-01  0.181745D-01 -0.634973D-01
     10a 0.794144D-01  0.510813D-03  0.715627D-01  0.259492D-02 -0.175657D+00
     10b-0.111201D-02  0.745036D-01  0.181518D-01  0.127106D+00 -0.823353D-01
                3b            4a            4b            5a            5b
      3b 0.745635D+00
      4a-0.145208D+00  0.774145D+00
      4b 0.330411D+00 -0.146057D-01  0.406914D+00
      5a 0.733326D-01 -0.293352D+00  0.449341D-01  0.460110D+00
      5b 0.327084D-01 -0.950856D-02 -0.185954D+00 -0.182571D+00  0.716246D+00
      6a-0.579458D-01  0.245695D+00  0.280661D-01  0.220441D+00 -0.410036D-01
      6b 0.284096D+00 -0.529139D-01  0.794339D-01 -0.117463D-01  0.210670D+00
      7a 0.682162D-01 -0.163124D+00  0.579020D-01  0.102661D+00 -0.859279D-01
      7b-0.227657D+00  0.233986D-01 -0.153530D+00 -0.110798D+00  0.219971D+00
      8a 0.902214D-01 -0.227204D+00  0.789410D-01  0.303020D+00 -0.107460D+00
      8b-0.286161D+00 -0.235346D-01 -0.180597D+00 -0.824019D-01  0.296513D+00
      9a-0.448678D-01  0.802950D-01 -0.281641D-01 -0.298939D+00  0.755245D-01
      9b 0.353049D-01 -0.132360D-01  0.635659D-01  0.350815D-01 -0.238882D+00
     10a 0.354018D-01 -0.335759D-01 -0.573070D-02 -0.727563D-01  0.149601D+00
     10b-0.179802D+00 -0.604833D-01  0.463678D-01  0.122709D+00 -0.527684D+00
                6a            6b            7a            7b            8a
      6a 0.773276D+00
      6b-0.874255D-01  0.414135D+00
      7a-0.204694D+00  0.792584D-01  0.451973D+00
      7b 0.564180D-01 -0.287413D+00 -0.207955D+00  0.730395D+00
      8a 0.204848D-01 -0.110774D+00  0.356113D+00  0.540904D-01  0.857841D+00
      8b-0.151411D+00  0.250149D+00  0.372999D-01 -0.324640D-01 -0.174604D+00
      9a-0.203159D+00  0.834051D-01  0.333508D+00 -0.106929D+00 -0.406247D+00
      9b 0.257500D-01 -0.167737D+00 -0.287864D-01  0.192187D+00  0.618894D-01
     10a-0.160085D+00  0.506017D-01  0.290928D+00 -0.792916D-01  0.194344D+00
     10b-0.374947D-01 -0.249140D+00 -0.706435D-01  0.351115D+00  0.601993D-01
                8b            9a            9b           10a           10b
      8b 0.641708D+00
      9a 0.974840D-01  0.140732D+01
      9b-0.225108D+00  0.145352D-01  0.260963D+00
     10a 0.278763D-01  0.353931D+00 -0.939522D-01  0.303143D+00
     10b-0.414025D-01 -0.183921D+00  0.391746D+00 -0.304657D+00  0.108299D+01
 jaja lower-tri density matrix (imaginary):
                1a            1b            2a            2b            3a
      1a 0.000000D+00
      1b-0.233400D+00  0.000000D+00
      2a 0.110243D+00  0.112278D+00  0.000000D+00
      2b-0.257958D+00 -0.949886D-01 -0.165457D+00  0.000000D+00
      3a 0.281526D-01  0.111835D-01  0.598425D-01 -0.135365D+00  0.000000D+00
      3b 0.430722D-01 -0.404088D-02  0.107351D+00 -0.582814D-01 -0.236258D+00
      4a-0.113695D-01  0.865838D-01 -0.617723D-01  0.118155D+00  0.759538D-03
      4b-0.921438D-01 -0.120080D-01 -0.561578D-01  0.315766D-01 -0.308061D-01
      5a 0.102433D-02 -0.577238D-01  0.273506D-01 -0.103099D+00  0.211095D-01
      5b-0.476895D-01  0.915282D-02  0.238393D-01  0.145284D-01 -0.120205D+00
      6a-0.486890D-01 -0.113141D+00  0.395264D-01 -0.152810D+00  0.555499D-02
      6b 0.920246D-01  0.369950D-01  0.548985D-01 -0.175646D-01 -0.911395D-01
      7a 0.508429D-02 -0.127353D-01 -0.139247D-01  0.364697D-01 -0.141883D-02
      7b-0.823320D-01 -0.156195D-01 -0.212200D-01  0.857606D-02 -0.421983D-01
      8a-0.782718D-01 -0.770476D-01 -0.469806D-01  0.387460D-01  0.112518D-01
      8b-0.631222D-01  0.412917D-01 -0.846911D-01  0.832972D-01  0.975774D-01
      9a 0.107548D-01  0.868439D-02  0.624724D-01 -0.367436D-01 -0.929699D-01
      9b 0.164515D-01  0.202668D-02  0.390469D-01 -0.486131D-01 -0.561646D-01
     10a-0.226072D-01 -0.829107D-02 -0.627479D-02  0.525501D-01 -0.429212D-01
     10b-0.139242D-02  0.187666D-01 -0.265879D-01 -0.112335D-01  0.380959D-01
                3b            4a            4b            5a            5b
      3b 0.000000D+00
      4a 0.281628D-01  0.000000D+00
      4b 0.256688D-01 -0.196088D+00  0.000000D+00
      5a 0.665485D-01 -0.721711D-01 -0.988592D-01  0.000000D+00
      5b-0.693488D-02  0.451171D-01  0.530191D-01 -0.167009D+00  0.000000D+00
      6a 0.142694D+00 -0.340316D-01  0.640544D-01  0.411149D-01  0.609512D-01
      6b 0.232677D-01 -0.121281D+00  0.188354D-02 -0.143796D-01 -0.371211D-01
      7a-0.122771D+00 -0.659522D-01 -0.922383D-01  0.194757D-02  0.392886D-02
      7b 0.301446D-01  0.296965D-01  0.626385D-01 -0.988415D-01  0.286230D-01
      8a-0.159631D+00 -0.256172D-01 -0.110408D+00 -0.329878D-01  0.115355D+00
      8b-0.673111D-02 -0.667303D-01  0.551365D-02 -0.327674D-01 -0.669727D-02
      9a-0.134235D-01 -0.112206D-01  0.238135D-01  0.297520D-01 -0.195280D+00
      9b 0.369749D-01 -0.187493D-01  0.982823D-02  0.551549D-01 -0.328717D-01
     10a-0.120412D+00  0.215861D-01 -0.292980D-01 -0.427418D-01 -0.526789D-01
     10b 0.818584D-01 -0.856637D-01 -0.426608D-02  0.553510D-01  0.462751D-01
                6a            6b            7a            7b            8a
      6a 0.000000D+00
      6b-0.198707D+00  0.000000D+00
      7a-0.540474D-01 -0.881169D-01  0.000000D+00
      7b 0.133980D-01  0.662398D-01 -0.105515D+00  0.000000D+00
      8a 0.616617D-02 -0.323604D-01 -0.304773D-01  0.123179D+00  0.000000D+00
      8b-0.136133D-01 -0.202288D-01 -0.897841D-01  0.287635D-02 -0.186090D+00
      9a-0.182631D-01 -0.425926D-01 -0.252880D-01  0.117890D-01  0.630390D-01
      9b 0.522968D-02 -0.187505D-01 -0.643133D-01  0.459469D-01  0.106011D+00
     10a-0.829830D-02 -0.557855D-01  0.147544D-01  0.554979D-01 -0.189901D-02
     10b-0.187480D-01  0.543267D-02 -0.854355D-01  0.773160D-02  0.117784D-03
                8b            9a            9b           10a           10b
      8b 0.000000D+00
      9a-0.781827D-01  0.000000D+00
      9b-0.465152D-01 -0.292980D+00  0.000000D+00
     10a 0.617820D-01  0.110532D+00  0.858052D-01  0.000000D+00
     10b-0.296353D-01 -0.213646D+00 -0.905631D-01 -0.894696D-01  0.000000D+00
 jaja non-ortho density matrix               [Gau-style] (real):
                 1             2             3             4             5 
      1a  0.113080D+01  0.501134D-01  0.432644D+00 -0.104443D+00 -0.582767D-01
      1b  0.501134D-01  0.251692D+00 -0.491006D-01  0.338596D+00 -0.807978D-01
      2a  0.432644D+00 -0.491006D-01  0.330497D+00 -0.340255D+00 -0.262891D+00
      2b -0.104443D+00  0.338596D+00 -0.340255D+00  0.129071D+01  0.174982D-01
      3a -0.582767D-01 -0.807978D-01 -0.262891D+00  0.174982D-01  0.738338D+00
      3b -0.439908D-01  0.180188D+00  0.679101D-01 -0.318349D+00 -0.110331D+00
      4a  0.377800D+00 -0.164875D-01  0.201974D+00  0.299331D-01 -0.867513D-02
      4b -0.444636D-01  0.273109D+00 -0.667153D-01  0.340032D+00 -0.113273D+00
      5a -0.245617D+00  0.303545D-01 -0.172150D+00  0.932661D-02  0.260162D+00
      5b -0.972702D-02 -0.156906D+00  0.942221D-02 -0.231374D+00  0.489679D-01
      6a -0.543625D+00 -0.182742D-01 -0.272505D+00  0.147039D+00  0.345376D+00
      6b -0.750880D-02 -0.514287D-01  0.449416D-01 -0.282275D+00  0.536857D-02
      7a  0.614644D-01  0.322202D-01  0.748444D-01 -0.906273D-02 -0.196728D+00
      7b -0.534518D-01 -0.416701D-01 -0.136859D-01  0.787509D-01 -0.523633D-01
      8a -0.152511D+00  0.905406D-01  0.667758D-01  0.489429D-01 -0.362738D+00
      8b  0.726863D-01 -0.163636D+00 -0.882709D-02 -0.232808D-02  0.643033D-01
      9a  0.879949D-01 -0.467046D-01 -0.201292D-01  0.146471D-01  0.662731D-01
      9b -0.349121D-01  0.657752D-01  0.161077D-01  0.181745D-01 -0.634973D-01
     10a  0.794144D-01  0.510813D-03  0.715627D-01  0.259492D-02 -0.175657D+00
     10b -0.111201D-02  0.745036D-01  0.181518D-01  0.127106D+00 -0.823353D-01
                 6             7             8             9            10 
      1a -0.439908D-01  0.377800D+00 -0.444636D-01 -0.245617D+00 -0.972702D-02
      1b  0.180188D+00 -0.164875D-01  0.273109D+00  0.303545D-01 -0.156906D+00
      2a  0.679101D-01  0.201974D+00 -0.667153D-01 -0.172150D+00  0.942221D-02
      2b -0.318349D+00  0.299331D-01  0.340032D+00  0.932661D-02 -0.231374D+00
      3a -0.110331D+00 -0.867513D-02 -0.113273D+00  0.260162D+00  0.489679D-01
      3b  0.745635D+00 -0.145208D+00  0.330411D+00  0.733326D-01  0.327084D-01
      4a -0.145208D+00  0.774145D+00 -0.146057D-01 -0.293352D+00 -0.950856D-02
      4b  0.330411D+00 -0.146057D-01  0.406914D+00  0.449341D-01 -0.185954D+00
      5a  0.733326D-01 -0.293352D+00  0.449341D-01  0.460110D+00 -0.182571D+00
      5b  0.327084D-01 -0.950856D-02 -0.185954D+00 -0.182571D+00  0.716246D+00
      6a -0.579458D-01  0.245695D+00  0.280661D-01  0.220441D+00 -0.410036D-01
      6b  0.284096D+00 -0.529139D-01  0.794339D-01 -0.117463D-01  0.210670D+00
      7a  0.682162D-01 -0.163124D+00  0.579020D-01  0.102661D+00 -0.859279D-01
      7b -0.227657D+00  0.233986D-01 -0.153530D+00 -0.110798D+00  0.219971D+00
      8a  0.902214D-01 -0.227204D+00  0.789410D-01  0.303020D+00 -0.107460D+00
      8b -0.286161D+00 -0.235346D-01 -0.180597D+00 -0.824019D-01  0.296513D+00
      9a -0.448678D-01  0.802950D-01 -0.281641D-01 -0.298939D+00  0.755245D-01
      9b  0.353049D-01 -0.132360D-01  0.635659D-01  0.350815D-01 -0.238882D+00
     10a  0.354018D-01 -0.335759D-01 -0.573070D-02 -0.727563D-01  0.149601D+00
     10b -0.179802D+00 -0.604833D-01  0.463678D-01  0.122709D+00 -0.527684D+00
                11            12            13            14            15 
      1a -0.543625D+00 -0.750880D-02  0.614644D-01 -0.534518D-01 -0.152511D+00
      1b -0.182742D-01 -0.514287D-01  0.322202D-01 -0.416701D-01  0.905406D-01
      2a -0.272505D+00  0.449416D-01  0.748444D-01 -0.136859D-01  0.667758D-01
      2b  0.147039D+00 -0.282275D+00 -0.906273D-02  0.787509D-01  0.489429D-01
      3a  0.345376D+00  0.536857D-02 -0.196728D+00 -0.523633D-01 -0.362738D+00
      3b -0.579458D-01  0.284096D+00  0.682162D-01 -0.227657D+00  0.902214D-01
      4a  0.245695D+00 -0.529139D-01 -0.163124D+00  0.233986D-01 -0.227204D+00
      4b  0.280661D-01  0.794339D-01  0.579020D-01 -0.153530D+00  0.789410D-01
      5a  0.220441D+00 -0.117463D-01  0.102661D+00 -0.110798D+00  0.303020D+00
      5b -0.410036D-01  0.210670D+00 -0.859279D-01  0.219971D+00 -0.107460D+00
      6a  0.773276D+00 -0.874255D-01 -0.204694D+00  0.564180D-01  0.204848D-01
      6b -0.874255D-01  0.414135D+00  0.792584D-01 -0.287413D+00 -0.110774D+00
      7a -0.204694D+00  0.792584D-01  0.451973D+00 -0.207955D+00  0.356113D+00
      7b  0.564180D-01 -0.287413D+00 -0.207955D+00  0.730395D+00  0.540904D-01
      8a  0.204848D-01 -0.110774D+00  0.356113D+00  0.540904D-01  0.857841D+00
      8b -0.151411D+00  0.250149D+00  0.372999D-01 -0.324640D-01 -0.174604D+00
      9a -0.203159D+00  0.834051D-01  0.333508D+00 -0.106929D+00 -0.406247D+00
      9b  0.257500D-01 -0.167737D+00 -0.287864D-01  0.192187D+00  0.618894D-01
     10a -0.160085D+00  0.506017D-01  0.290928D+00 -0.792916D-01  0.194344D+00
     10b -0.374947D-01 -0.249140D+00 -0.706435D-01  0.351115D+00  0.601993D-01
                16            17            18            19            20 
      1a  0.726863D-01  0.879949D-01 -0.349121D-01  0.794144D-01 -0.111201D-02
      1b -0.163636D+00 -0.467046D-01  0.657752D-01  0.510813D-03  0.745036D-01
      2a -0.882709D-02 -0.201292D-01  0.161077D-01  0.715627D-01  0.181518D-01
      2b -0.232808D-02  0.146471D-01  0.181745D-01  0.259492D-02  0.127106D+00
      3a  0.643033D-01  0.662731D-01 -0.634973D-01 -0.175657D+00 -0.823353D-01
      3b -0.286161D+00 -0.448678D-01  0.353049D-01  0.354018D-01 -0.179802D+00
      4a -0.235346D-01  0.802950D-01 -0.132360D-01 -0.335759D-01 -0.604833D-01
      4b -0.180597D+00 -0.281641D-01  0.635659D-01 -0.573070D-02  0.463678D-01
      5a -0.824019D-01 -0.298939D+00  0.350815D-01 -0.727563D-01  0.122709D+00
      5b  0.296513D+00  0.755245D-01 -0.238882D+00  0.149601D+00 -0.527684D+00
      6a -0.151411D+00 -0.203159D+00  0.257500D-01 -0.160085D+00 -0.374947D-01
      6b  0.250149D+00  0.834051D-01 -0.167737D+00  0.506017D-01 -0.249140D+00
      7a  0.372999D-01  0.333508D+00 -0.287864D-01  0.290928D+00 -0.706435D-01
      7b -0.324640D-01 -0.106929D+00  0.192187D+00 -0.792916D-01  0.351115D+00
      8a -0.174604D+00 -0.406247D+00  0.618894D-01  0.194344D+00  0.601993D-01
      8b  0.641708D+00  0.974840D-01 -0.225108D+00  0.278763D-01 -0.414025D-01
      9a  0.974840D-01  0.140732D+01  0.145352D-01  0.353931D+00 -0.183921D+00
      9b -0.225108D+00  0.145352D-01  0.260963D+00 -0.939522D-01  0.391746D+00
     10a  0.278763D-01  0.353931D+00 -0.939522D-01  0.303143D+00 -0.304657D+00
     10b -0.414025D-01 -0.183921D+00  0.391746D+00 -0.304657D+00  0.108299D+01
 jaja non-ortho density matrix               [Gau-style] (imaginary):
                 1             2             3             4             5 
      1a  0.000000D+00  0.233400D+00 -0.110243D+00  0.257958D+00 -0.281526D-01
      1b -0.233400D+00  0.000000D+00 -0.112278D+00  0.949886D-01 -0.111835D-01
      2a  0.110243D+00  0.112278D+00  0.000000D+00  0.165457D+00 -0.598425D-01
      2b -0.257958D+00 -0.949886D-01 -0.165457D+00  0.000000D+00  0.135365D+00
      3a  0.281526D-01  0.111835D-01  0.598425D-01 -0.135365D+00  0.000000D+00
      3b  0.430722D-01 -0.404088D-02  0.107351D+00 -0.582814D-01 -0.236258D+00
      4a -0.113695D-01  0.865838D-01 -0.617723D-01  0.118155D+00  0.759538D-03
      4b -0.921438D-01 -0.120080D-01 -0.561578D-01  0.315766D-01 -0.308061D-01
      5a  0.102433D-02 -0.577238D-01  0.273506D-01 -0.103099D+00  0.211095D-01
      5b -0.476895D-01  0.915282D-02  0.238393D-01  0.145284D-01 -0.120205D+00
      6a -0.486890D-01 -0.113141D+00  0.395264D-01 -0.152810D+00  0.555499D-02
      6b  0.920246D-01  0.369950D-01  0.548985D-01 -0.175646D-01 -0.911395D-01
      7a  0.508429D-02 -0.127353D-01 -0.139247D-01  0.364697D-01 -0.141883D-02
      7b -0.823320D-01 -0.156195D-01 -0.212200D-01  0.857606D-02 -0.421983D-01
      8a -0.782718D-01 -0.770476D-01 -0.469806D-01  0.387460D-01  0.112518D-01
      8b -0.631222D-01  0.412917D-01 -0.846911D-01  0.832972D-01  0.975774D-01
      9a  0.107548D-01  0.868439D-02  0.624724D-01 -0.367436D-01 -0.929699D-01
      9b  0.164515D-01  0.202668D-02  0.390469D-01 -0.486131D-01 -0.561646D-01
     10a -0.226072D-01 -0.829107D-02 -0.627479D-02  0.525501D-01 -0.429212D-01
     10b -0.139242D-02  0.187666D-01 -0.265879D-01 -0.112335D-01  0.380959D-01
                 6             7             8             9            10 
      1a -0.430722D-01  0.113695D-01  0.921438D-01 -0.102433D-02  0.476895D-01
      1b  0.404088D-02 -0.865838D-01  0.120080D-01  0.577238D-01 -0.915282D-02
      2a -0.107351D+00  0.617723D-01  0.561578D-01 -0.273506D-01 -0.238393D-01
      2b  0.582814D-01 -0.118155D+00 -0.315766D-01  0.103099D+00 -0.145284D-01
      3a  0.236258D+00 -0.759538D-03  0.308061D-01 -0.211095D-01  0.120205D+00
      3b  0.000000D+00 -0.281628D-01 -0.256688D-01 -0.665485D-01  0.693488D-02
      4a  0.281628D-01  0.000000D+00  0.196088D+00  0.721711D-01 -0.451171D-01
      4b  0.256688D-01 -0.196088D+00  0.000000D+00  0.988592D-01 -0.530191D-01
      5a  0.665485D-01 -0.721711D-01 -0.988592D-01  0.000000D+00  0.167009D+00
      5b -0.693488D-02  0.451171D-01  0.530191D-01 -0.167009D+00  0.000000D+00
      6a  0.142694D+00 -0.340316D-01  0.640544D-01  0.411149D-01  0.609512D-01
      6b  0.232677D-01 -0.121281D+00  0.188354D-02 -0.143796D-01 -0.371211D-01
      7a -0.122771D+00 -0.659522D-01 -0.922383D-01  0.194757D-02  0.392886D-02
      7b  0.301446D-01  0.296965D-01  0.626385D-01 -0.988415D-01  0.286230D-01
      8a -0.159631D+00 -0.256172D-01 -0.110408D+00 -0.329878D-01  0.115355D+00
      8b -0.673111D-02 -0.667303D-01  0.551365D-02 -0.327674D-01 -0.669727D-02
      9a -0.134235D-01 -0.112206D-01  0.238135D-01  0.297520D-01 -0.195280D+00
      9b  0.369749D-01 -0.187493D-01  0.982823D-02  0.551549D-01 -0.328717D-01
     10a -0.120412D+00  0.215861D-01 -0.292980D-01 -0.427418D-01 -0.526789D-01
     10b  0.818584D-01 -0.856637D-01 -0.426608D-02  0.553510D-01  0.462751D-01
                11            12            13            14            15 
      1a  0.486890D-01 -0.920246D-01 -0.508429D-02  0.823320D-01  0.782718D-01
      1b  0.113141D+00 -0.369950D-01  0.127353D-01  0.156195D-01  0.770476D-01
      2a -0.395264D-01 -0.548985D-01  0.139247D-01  0.212200D-01  0.469806D-01
      2b  0.152810D+00  0.175646D-01 -0.364697D-01 -0.857606D-02 -0.387460D-01
      3a -0.555499D-02  0.911395D-01  0.141883D-02  0.421983D-01 -0.112518D-01
      3b -0.142694D+00 -0.232677D-01  0.122771D+00 -0.301446D-01  0.159631D+00
      4a  0.340316D-01  0.121281D+00  0.659522D-01 -0.296965D-01  0.256172D-01
      4b -0.640544D-01 -0.188354D-02  0.922383D-01 -0.626385D-01  0.110408D+00
      5a -0.411149D-01  0.143796D-01 -0.194757D-02  0.988415D-01  0.329878D-01
      5b -0.609512D-01  0.371211D-01 -0.392886D-02 -0.286230D-01 -0.115355D+00
      6a  0.000000D+00  0.198707D+00  0.540474D-01 -0.133980D-01 -0.616617D-02
      6b -0.198707D+00  0.000000D+00  0.881169D-01 -0.662398D-01  0.323604D-01
      7a -0.540474D-01 -0.881169D-01  0.000000D+00  0.105515D+00  0.304773D-01
      7b  0.133980D-01  0.662398D-01 -0.105515D+00  0.000000D+00 -0.123179D+00
      8a  0.616617D-02 -0.323604D-01 -0.304773D-01  0.123179D+00  0.000000D+00
      8b -0.136133D-01 -0.202288D-01 -0.897841D-01  0.287635D-02 -0.186090D+00
      9a -0.182631D-01 -0.425926D-01 -0.252880D-01  0.117890D-01  0.630390D-01
      9b  0.522968D-02 -0.187505D-01 -0.643133D-01  0.459469D-01  0.106011D+00
     10a -0.829830D-02 -0.557855D-01  0.147544D-01  0.554979D-01 -0.189901D-02
     10b -0.187480D-01  0.543267D-02 -0.854355D-01  0.773160D-02  0.117784D-03
                16            17            18            19            20 
      1a  0.631222D-01 -0.107548D-01 -0.164515D-01  0.226072D-01  0.139242D-02
      1b -0.412917D-01 -0.868439D-02 -0.202668D-02  0.829107D-02 -0.187666D-01
      2a  0.846911D-01 -0.624724D-01 -0.390469D-01  0.627479D-02  0.265879D-01
      2b -0.832972D-01  0.367436D-01  0.486131D-01 -0.525501D-01  0.112335D-01
      3a -0.975774D-01  0.929699D-01  0.561646D-01  0.429212D-01 -0.380959D-01
      3b  0.673111D-02  0.134235D-01 -0.369749D-01  0.120412D+00 -0.818584D-01
      4a  0.667303D-01  0.112206D-01  0.187493D-01 -0.215861D-01  0.856637D-01
      4b -0.551365D-02 -0.238135D-01 -0.982823D-02  0.292980D-01  0.426608D-02
      5a  0.327674D-01 -0.297520D-01 -0.551549D-01  0.427418D-01 -0.553510D-01
      5b  0.669727D-02  0.195280D+00  0.328717D-01  0.526789D-01 -0.462751D-01
      6a  0.136133D-01  0.182631D-01 -0.522968D-02  0.829830D-02  0.187480D-01
      6b  0.202288D-01  0.425926D-01  0.187505D-01  0.557855D-01 -0.543267D-02
      7a  0.897841D-01  0.252880D-01  0.643133D-01 -0.147544D-01  0.854355D-01
      7b -0.287635D-02 -0.117890D-01 -0.459469D-01 -0.554979D-01 -0.773160D-02
      8a  0.186090D+00 -0.630390D-01 -0.106011D+00  0.189901D-02 -0.117784D-03
      8b  0.000000D+00  0.781827D-01  0.465152D-01 -0.617820D-01  0.296353D-01
      9a -0.781827D-01  0.000000D+00  0.292980D+00 -0.110532D+00  0.213646D+00
      9b -0.465152D-01 -0.292980D+00  0.000000D+00 -0.858052D-01  0.905631D-01
     10a  0.617820D-01  0.110532D+00  0.858052D-01  0.000000D+00  0.894696D-01
     10b -0.296353D-01 -0.213646D+00 -0.905631D-01 -0.894696D-01  0.000000D+00
FORTRAN STOP
