 Entering Gaussian System, Link 0=gdv
 AtFile(1): H.gbs
            H     0
            S   10   1.00
               1000.000000000000            0.000068713567
                316.227766000000            0.000169141320
                100.000000000000            0.000823394812
                 31.622776600000            0.003425569236
                 10.000000000000            0.013951996000
                  3.162277660000            0.056909313560
                  1.000000000000            0.198286399900
                  0.316227766000            0.496922426700
                  0.100000000000            0.369846276400
                  0.031622776600            0.003752720039
            ****
 Initial command:
 /users/lcj1/GHF_hess/exe-dir/l1.exe "/users/lcj1/GHF_hess/h10_2rows/mixrmY/Gau-13416.inp" -scrdir="/users/lcj1/GHF_hess/h10_2rows/mixrmY/"
 Entering Link 1 = /users/lcj1/GHF_hess/exe-dir/l1.exe PID=     13417.
  
 Copyright (c) 1988,1990,1992,1993,1995,1998,2003,2009,2012,
            Gaussian, Inc.  All Rights Reserved.
  
 This is the private, development version of
 the Gaussian(R) DV system of programs. It is based on
 the Gaussian(R) 09 system (copyright 2009, Gaussian, Inc.),
 the Gaussian(R) 03 system (copyright 2003, Gaussian, Inc.),
 the Gaussian(R) 98 system (copyright 1998, Gaussian, Inc.),
 the Gaussian(R) 94 system (copyright 1995, Gaussian, Inc.),
 the Gaussian 92(TM) system (copyright 1992, Gaussian, Inc.),
 the Gaussian 90(TM) system (copyright 1990, Gaussian, Inc.),
 the Gaussian 88(TM) system (copyright 1988, Gaussian, Inc.),
 the Gaussian 86(TM) system (copyright 1986, Carnegie Mellon
 University), and the Gaussian 82(TM) system (copyright 1983,
 Carnegie Mellon University). Gaussian is a federally registered
 trademark of Gaussian, Inc.
  
 This software contains proprietary and confidential information,
 including trade secrets, belonging to Gaussian, Inc.
  
 This software is provided under written license and may be
 used, copied, transmitted, or stored only in accord with that
 written license.
  
 The following legend is applicable only to US Government
 contracts under FAR:
  
                    RESTRICTED RIGHTS LEGEND
  
 Use, reproduction and disclosure by the US Government is
 subject to restrictions as set forth in subparagraphs (a)
 and (c) of the Commercial Computer Software - Restricted
 Rights clause in FAR 52.227-19.
  
 Gaussian, Inc.
 340 Quinnipiac St., Bldg. 40, Wallingford CT 06492
  
  
 ---------------------------------------------------------------
 Warning -- This program may not be used in any manner that
 competes with the business of Gaussian, Inc. or will provide
 assistance to any competitor of Gaussian, Inc.  The licensee
 of this program is prohibited from giving any competitor of
 Gaussian, Inc. access to this program.  By using this program,
 the user acknowledges that Gaussian, Inc. is engaged in the
 business of creating and licensing software in the field of
 computational chemistry and represents and warrants to the
 licensee that it is not a competitor of Gaussian, Inc. and that
 it will not use this program in any manner prohibited above.
 ---------------------------------------------------------------
  

 Cite this work as:
 Gaussian Development Version, Revision H.21,
 M. J. Frisch, G. W. Trucks, H. B. Schlegel, G. E. Scuseria, 
 M. A. Robb, J. R. Cheeseman, G. Scalmani, V. Barone, B. Mennucci, 
 G. A. Petersson, H. Nakatsuji, M. Caricato, X. Li, H. P. Hratchian, 
 A. F. Izmaylov, J. Bloino, G. Zheng, J. L. Sonnenberg, W. Liang, 
 M. Hada, M. Ehara, K. Toyota, R. Fukuda, J. Hasegawa, M. Ishida, 
 T. Nakajima, Y. Honda, O. Kitao, H. Nakai, T. Vreven, 
 J. A. Montgomery, Jr., J. E. Peralta, F. Ogliaro, M. Bearpark, 
 J. J. Heyd, E. Brothers, K. N. Kudin, V. N. Staroverov, T. Keith, 
 R. Kobayashi, J. Normand, K. Raghavachari, A. Rendell, J. C. Burant, 
 S. S. Iyengar, J. Tomasi, M. Cossi, N. Rega, J. M. Millam, M. Klene, 
 J. E. Knox, J. B. Cross, V. Bakken, C. Adamo, J. Jaramillo, 
 R. Gomperts, R. E. Stratmann, O. Yazyev, A. J. Austin, R. Cammi, 
 C. Pomelli, J. W. Ochterski, R. L. Martin, K. Morokuma, 
 V. G. Zakrzewski, G. A. Voth, P. Salvador, J. J. Dannenberg, 
 S. Dapprich, P. V. Parandekar, N. J. Mayhall, A. D. Daniels, 
 O. Farkas, J. B. Foresman, J. V. Ortiz, J. Cioslowski, 
 and D. J. Fox, Gaussian, Inc., Wallingford CT, 2010.
 
 ******************************************
 Gaussian DV:  EM64L-GDVRevH.21 13-May-2012
                28-Feb-2017 
 ******************************************
 %chk=h10.chk
 ----------------------------------------------------------------------
 #ghf/gen scf(tight,novaracc,noincfock,fulldiag) stable guess=mix geom=
 nocrowd use=l802 use=l902 test
 ----------------------------------------------------------------------
 ********************************************
   THE COMPLEX ERI TRANSFORMATION WITH L802  
        COMPLEX STABILITY WITH L902          
 ********************************************
 1/38=1/1;
 2/12=1,17=6,18=5,40=1/2;
 3/5=7,16=1,25=20,28=1,116=7/1,2,3,20;
 4/13=-1/1;
 5/5=100001,16=1,32=2,38=1/2;
 8/6=1,10=90,11=11/1,2;
 9/8=4,13=1/1,2;
 6/7=2,8=2,9=2,10=2,28=1/1;
 99/5=1,9=1/99;
 ----------------------------------------------------------------------
 hf stability analysis of h10 triangular lattice, y= 0.5715322184328752
 7 alpha= 29.500000000000000
 ----------------------------------------------------------------------
 Symbolic Z-Matrix:
 Charge =  0 Multiplicity = 1
 H
 H                    1     1.16065 
 H                    1     1.16065  2     121. 
 H                    2     1.16065  1     59.      3     0.       0
 H                    3     1.16065  1     180.     2     0.       0
 H                    4     1.16065  2     180.     1     0.       0
 H                    5     1.16065  3     180.     2     0.       0
 H                    6     1.16065  4     180.     1     0.       0
 H                    7     1.16065  5     180.     2     0.       0
 H                    8     1.16065  6     180.     1     0.       0
 
                          Input orientation:                          
 ---------------------------------------------------------------------
 Center     Atomic      Atomic             Coordinates (Angstroms)
 Number     Number       Type             X           Y           Z
 ---------------------------------------------------------------------
      1          1           0        0.000000    0.000000    0.000000
      2          1           0        0.000000    0.000000    1.160652
      3          1           0        0.994873    0.000000   -0.597780
      4          1           0        0.994873    0.000000    0.562872
      5          1           0        1.989745    0.000000   -1.195560
      6          1           0        1.989745    0.000000   -0.034908
      7          1           0        2.984618    0.000000   -1.793339
      8          1           0        2.984618    0.000000   -0.632688
      9          1           0        3.979490    0.000000   -2.391119
     10          1           0        3.979490    0.000000   -1.230467
 ---------------------------------------------------------------------
                    Distance matrix (angstroms):
                    1          2          3          4          5
     1  H    0.000000
     2  H    1.160652   0.000000
     3  H    1.160652   2.020360   0.000000
     4  H    1.143064   1.160652   1.160652   0.000000
     5  H    2.321303   3.083961   1.160652   2.020360   0.000000
     6  H    1.990051   2.321303   1.143064   1.160652   1.160652
     7  H    3.481955   4.199286   2.321303   3.083961   1.160652
     8  H    3.050940   3.481955   1.990051   2.321303   1.143064
     9  H    4.642606   5.333987   3.481955   4.199286   2.321303
    10  H    4.165380   4.642606   3.050940   3.481955   1.990051
                    6          7          8          9         10
     6  H    0.000000
     7  H    2.020360   0.000000
     8  H    1.160652   1.160652   0.000000
     9  H    3.083961   1.160652   2.020360   0.000000
    10  H    2.321303   1.143064   1.160652   1.160652   0.000000
 Stoichiometry    H10
 Framework group  C2H[SGH(H10)]
 Deg. of freedom     9
 Full point group                 C2H     NOp   4
 Largest Abelian subgroup         C2H     NOp   4
 Largest concise Abelian subgroup C2      NOp   2
                         Standard orientation:                         
 ---------------------------------------------------------------------
 Center     Atomic      Atomic             Coordinates (Angstroms)
 Number     Number       Type             X           Y           Z
 ---------------------------------------------------------------------
      1          1           0        1.989745   -0.615234    0.000000
      2          1           0        1.989745   -1.775885    0.000000
      3          1           0        0.994873   -0.017454    0.000000
      4          1           0        0.994873   -1.178106    0.000000
      5          1           0        0.000000    0.580326    0.000000
      6          1           0        0.000000   -0.580326    0.000000
      7          1           0       -0.994873    1.178106    0.000000
      8          1           0       -0.994873    0.017454    0.000000
      9          1           0       -1.989745    1.775885    0.000000
     10          1           0       -1.989745    0.615234    0.000000
 ---------------------------------------------------------------------
 Rotational constants (GHZ):    210.0279095     17.9588440     16.5442000
 General basis read from cards:  (5D, 7F)
 There are     5 symmetry adapted cartesian basis functions of AG  symmetry.
 There are     0 symmetry adapted cartesian basis functions of BG  symmetry.
 There are     0 symmetry adapted cartesian basis functions of AU  symmetry.
 There are     5 symmetry adapted cartesian basis functions of BU  symmetry.
 There are     5 symmetry adapted basis functions of AG  symmetry.
 There are     0 symmetry adapted basis functions of BG  symmetry.
 There are     0 symmetry adapted basis functions of AU  symmetry.
 There are     5 symmetry adapted basis functions of BU  symmetry.
    10 basis functions,   100 primitive gaussians,    10 cartesian basis functions
     5 alpha electrons        5 beta electrons
       nuclear repulsion energy        13.1679265383 Hartrees.
 NAtoms=   10 NActive=   10 NUniq=    5 SFac= 4.00D+00 NAtFMM=   60 NAOKFM=F Big=F
 Integral buffers will be    131072 words long.
 Regular integral format.
 Two-electron integral symmetry is turned off.
 One-electron integrals computed using PRISM.
 NBasis=    10 RedAO= T EigKep=  1.94D-01  NBF=     5     0     0     5
 NBsUse=    10 1.00D-06 EigRej= -1.00D+00 NBFU=     5     0     0     5
 IOp(28)                       1
                        1                       0
                        2                       1
                        3                       1
                        4                      20
                        5                       0
                        6                       0
                        7                      10
                        8                       1
                        9                       4
                       10                       0
                       11              1073741824
                       12                      20
                       13                       2
                       14                  131070
                       15                       1
                       16                       1
                       17                  131073
                       18                       0
                       19                       0
                       20                       0
                       21                       2
                       22                  131070
                       23                       0
                       24                       0
                       25                       0
                       26                       0
                       27                   65535
                       28                       2
                       29                  131072
                       30                       0
 IHMeth                       1
 ib3: ISMode =                        0                       4
 Enter DskPsm, NBasis=  10 NBas6D=  10 NShell=  10 IDoSP=4.
 Out2e will use a cutoff of  1.00D-10
 FoFCou: FMM=F IPFlag=           0 FMFlag=           0 FMFlg1=           0
         NFxFlg=           0 DoJE=F BraDBF=F KetDBF=F FulRan=T
         wScrn=  0.000000 ICntrl=     600 IOpCl=  9 I1Cent=           0 NGrid=           0
         NMat0=    0 NMatS0=      0 NMatT0=    0 NMatD0=    0 NMtDS0=    0 NMtDT0=    0
 Symmetry not used in FoFCou.
 Entering PrmDigJobTyp =                      20
 LenSav and NKeep                       0                       0
 Entered Stor2E with KNTT1,2                       2                  131070
 Leave Stor2X
 Entering PrmDigJobTyp =                      20
 LenSav and NKeep                       0                       0
 Entered Stor2E with KNTT1,2                       2                  131056
 Leave Stor2X
 Entering PrmDigJobTyp =                      20
 LenSav and NKeep                       0                       0
 Entered Stor2E with KNTT1,2                       2                  131042
 Leave Stor2X
 Entering PrmDigJobTyp =                      20
 LenSav and NKeep                       0                       0
 Entered Stor2E with KNTT1,2                       2                  131028
 Leave Stor2X
 Entering PrmDigJobTyp =                      20
 LenSav and NKeep                       0                       0
 Entered Stor2E with KNTT1,2                       2                  131014
 Leave Stor2X
 Entering PrmDigJobTyp =                      20
 LenSav and NKeep                       0                       0
 Entered Stor2E with KNTT1,2                       2                  131000
 Leave Stor2X
 Entering PrmDigJobTyp =                      20
 LenSav and NKeep                       0                       0
 Entered Stor2E with KNTT1,2                       2                  130986
 Leave Stor2X
 Entering PrmDigJobTyp =                      20
 LenSav and NKeep                       0                       0
 Entered Stor2E with KNTT1,2                       2                  130972
 Leave Stor2X
 Entering PrmDigJobTyp =                      20
 LenSav and NKeep                       0                       0
 Entered Stor2E with KNTT1,2                       2                  130960
 Leave Stor2X
 Entering PrmDigJobTyp =                      20
 LenSav and NKeep                       0                       0
 Entered Stor2E with KNTT1,2                       2                  130946
 Leave Stor2X
 Entering PrmDigJobTyp =                      20
 LenSav and NKeep                       0                       0
 Entered Stor2E with KNTT1,2                       2                  130932
 Leave Stor2X
 Entering PrmDigJobTyp =                      20
 LenSav and NKeep                       0                       0
 Entered Stor2E with KNTT1,2                       2                  130918
 Leave Stor2X
 Entering PrmDigJobTyp =                      20
 LenSav and NKeep                       0                       0
 Entered Stor2E with KNTT1,2                       2                  130904
 Leave Stor2X
 Entering PrmDigJobTyp =                      20
 LenSav and NKeep                       0                       0
 Entered Stor2E with KNTT1,2                       2                  130890
 Leave Stor2X
 Entering PrmDigJobTyp =                      20
 LenSav and NKeep                       0                       0
 Entered Stor2E with KNTT1,2                       2                  130876
 Leave Stor2X
 Entering PrmDigJobTyp =                      20
 LenSav and NKeep                       0                       0
 Entered Stor2E with KNTT1,2                       2                  130862
 Leave Stor2X
 Entering PrmDigJobTyp =                      20
 LenSav and NKeep                       0                       0
 Entered Stor2E with KNTT1,2                       2                  130848
 Leave Stor2X
 Entering PrmDigJobTyp =                      20
 LenSav and NKeep                       0                       0
 Entered Stor2E with KNTT1,2                       2                  130834
 Leave Stor2X
 Entering PrmDigJobTyp =                      20
 LenSav and NKeep                       0                       0
 Entered Stor2E with KNTT1,2                       2                  130820
 Leave Stor2X
 Entering PrmDigJobTyp =                      20
 LenSav and NKeep                       0                       0
 Entered Stor2E with KNTT1,2                       2                  130806
 Leave Stor2X
 Entering PrmDigJobTyp =                      20
 LenSav and NKeep                       0                       0
 Entered Stor2E with KNTT1,2                       2                  130792
 Leave Stor2X
 Entering PrmDigJobTyp =                      20
 LenSav and NKeep                       0                       0
 Entered Stor2E with KNTT1,2                       2                  130778
 Leave Stor2X
 Entering PrmDigJobTyp =                      20
 LenSav and NKeep                       0                       0
 Entered Stor2E with KNTT1,2                       2                  130764
 Leave Stor2X
 Entering PrmDigJobTyp =                      20
 LenSav and NKeep                       0                       0
 Entered Stor2E with KNTT1,2                       2                  130750
 Leave Stor2X
 Entering PrmDigJobTyp =                      20
 LenSav and NKeep                       0                       0
 Entered Stor2E with KNTT1,2                       2                  130736
 Leave Stor2X
 Entering PrmDigJobTyp =                      20
 LenSav and NKeep                       0                       0
 Entered Stor2E with KNTT1,2                       2                  130722
 Leave Stor2X
 Entering PrmDigJobTyp =                      20
 LenSav and NKeep                       0                       0
 Entered Stor2E with KNTT1,2                       2                  130708
 Leave Stor2X
 Entering PrmDigJobTyp =                      20
 LenSav and NKeep                       0                       0
 Entered Stor2E with KNTT1,2                       2                  130700
 Leave Stor2X
 Entering PrmDigJobTyp =                      20
 LenSav and NKeep                       0                       0
 Entered Stor2E with KNTT1,2                       6                  130684
 Leave Stor2X
 Entering PrmDigJobTyp =                      20
 LenSav and NKeep                       0                       0
 Entered Stor2E with KNTT1,2                      16                  130674
 Leave Stor2X
 Entering PrmDigJobTyp =                      20
 LenSav and NKeep                       0                       0
 Entered Stor2E with KNTT1,2                      28                  130666
 Leave Stor2X
 Entering PrmDigJobTyp =                      20
 LenSav and NKeep                       0                       0
 Entered Stor2E with KNTT1,2                      42                  130660
 Leave Stor2X
 Entering PrmDigJobTyp =                      20
 LenSav and NKeep                       0                       0
 Entered Stor2E with KNTT1,2                      56                  130654
 Leave Stor2X
 Entering PrmDigJobTyp =                      20
 LenSav and NKeep                       0                       0
 Entered Stor2E with KNTT1,2                      70                  130648
 Leave Stor2X
 Entering PrmDigJobTyp =                      20
 LenSav and NKeep                       0                       0
 Entered Stor2E with KNTT1,2                      84                  130642
 Leave Stor2X
 Entering PrmDigJobTyp =                      20
 LenSav and NKeep                       0                       0
 Entered Stor2E with KNTT1,2                      98                  130636
 Leave Stor2X
 Entering PrmDigJobTyp =                      20
 LenSav and NKeep                       0                       0
 Entered Stor2E with KNTT1,2                     114                  130632
 Leave Stor2X
 Entering PrmDigJobTyp =                      20
 LenSav and NKeep                       0                       0
 Entered Stor2E with KNTT1,2                     114                  130630
 Leave Stor2X
 Entering PrmDigJobTyp =                      20
 LenSav and NKeep                       0                       0
 Entered Stor2E with KNTT1,2                     114                  130614
 Leave Stor2X
 Entering PrmDigJobTyp =                      20
 LenSav and NKeep                       0                       0
 Entered Stor2E with KNTT1,2                     114                  130598
 Leave Stor2X
 Entering PrmDigJobTyp =                      20
 LenSav and NKeep                       0                       0
 Entered Stor2E with KNTT1,2                     114                  130582
 Leave Stor2X
 Entering PrmDigJobTyp =                      20
 LenSav and NKeep                       0                       0
 Entered Stor2E with KNTT1,2                     114                  130566
 Leave Stor2X
 Entering PrmDigJobTyp =                      20
 LenSav and NKeep                       0                       0
 Entered Stor2E with KNTT1,2                     114                  130550
 Leave Stor2X
 Entering PrmDigJobTyp =                      20
 LenSav and NKeep                       0                       0
 Entered Stor2E with KNTT1,2                     114                  130534
 Leave Stor2X
 Entering PrmDigJobTyp =                      20
 LenSav and NKeep                       0                       0
 Entered Stor2E with KNTT1,2                     114                  130518
 Leave Stor2X
 Entering PrmDigJobTyp =                      20
 LenSav and NKeep                       0                       0
 Entered Stor2E with KNTT1,2                     114                  130502
 Leave Stor2X
 Entering PrmDigJobTyp =                      20
 LenSav and NKeep                       0                       0
 Entered Stor2E with KNTT1,2                     114                  130490
 Leave Stor2X
 Entering PrmDigJobTyp =                      20
 LenSav and NKeep                       0                       0
 Entered Stor2E with KNTT1,2                     126                  130480
 Leave Stor2X
 Entering PrmDigJobTyp =                      20
 LenSav and NKeep                       0                       0
 Entered Stor2E with KNTT1,2                     136                  130468
 Leave Stor2X
 Entering PrmDigJobTyp =                      20
 LenSav and NKeep                       0                       0
 Entered Stor2E with KNTT1,2                     150                  130460
 Leave Stor2X
 Entering PrmDigJobTyp =                      20
 LenSav and NKeep                       0                       0
 Entered Stor2E with KNTT1,2                     170                  130458
 Leave Stor2X
 Entering PrmDigJobTyp =                      20
 LenSav and NKeep                       0                       0
 Entered Stor2E with KNTT1,2                     178                  130444
 Leave Stor2X
 Entering PrmDigJobTyp =                      20
 LenSav and NKeep                       0                       0
 Entered Stor2E with KNTT1,2                     190                  130434
 Leave Stor2X
 Entering PrmDigJobTyp =                      20
 LenSav and NKeep                       0                       0
 Entered Stor2E with KNTT1,2                     204                  130426
 Leave Stor2X
 Entering PrmDigJobTyp =                      20
 LenSav and NKeep                       0                       0
 Entered Stor2E with KNTT1,2                     218                  130418
 Leave Stor2X
 Entering PrmDigJobTyp =                      20
 LenSav and NKeep                       0                       0
 Entered Stor2E with KNTT1,2                     220                  130414
 Leave Stor2X
 Entering PrmDigJobTyp =                      20
 LenSav and NKeep                       0                       0
 Entered Stor2E with KNTT1,2                     234                  130402
 Leave Stor2X
 Entering PrmDigJobTyp =                      20
 LenSav and NKeep                       0                       0
 Entered Stor2E with KNTT1,2                     252                  130394
 Leave Stor2X
 Entering PrmDigJobTyp =                      20
 LenSav and NKeep                       0                       0
 Entered Stor2E with KNTT1,2                     254                  130392
 Leave Stor2X
 Entering PrmDigJobTyp =                      20
 LenSav and NKeep                       0                       0
 Entered Stor2E with KNTT1,2                     254                  130378
 Leave Stor2X
 Entering PrmDigJobTyp =                      20
 LenSav and NKeep                       0                       0
 Entered Stor2E with KNTT1,2                     254                  130364
 Leave Stor2X
 Entering PrmDigJobTyp =                      20
 LenSav and NKeep                       0                       0
 Entered Stor2E with KNTT1,2                     254                  130350
 Leave Stor2X
 Entering PrmDigJobTyp =                      20
 LenSav and NKeep                       0                       0
 Entered Stor2E with KNTT1,2                     254                  130336
 Leave Stor2X
 Entering PrmDigJobTyp =                      20
 LenSav and NKeep                       0                       0
 Entered Stor2E with KNTT1,2                     254                  130322
 Leave Stor2X
 Entering PrmDigJobTyp =                      20
 LenSav and NKeep                       0                       0
 Entered Stor2E with KNTT1,2                     254                  130312
 Leave Stor2X
 Entering PrmDigJobTyp =                      20
 LenSav and NKeep                       0                       0
 Entered Stor2E with KNTT1,2                     264                  130302
 Leave Stor2X
 Entering PrmDigJobTyp =                      20
 LenSav and NKeep                       0                       0
 Entered Stor2E with KNTT1,2                     274                  130292
 Leave Stor2X
 Entering PrmDigJobTyp =                      20
 LenSav and NKeep                       0                       0
 Entered Stor2E with KNTT1,2                     292                  130290
 Leave Stor2X
 Entering PrmDigJobTyp =                      20
 LenSav and NKeep                       0                       0
 Entered Stor2E with KNTT1,2                     300                  130278
 Leave Stor2X
 Entering PrmDigJobTyp =                      20
 LenSav and NKeep                       0                       0
 Entered Stor2E with KNTT1,2                     314                  130272
 Leave Stor2X
 Entering PrmDigJobTyp =                      20
 LenSav and NKeep                       0                       0
 Entered Stor2E with KNTT1,2                     314                  130268
 Leave Stor2X
 Entering PrmDigJobTyp =                      20
 LenSav and NKeep                       0                       0
 Entered Stor2E with KNTT1,2                     326                  130258
 Leave Stor2X
 Entering PrmDigJobTyp =                      20
 LenSav and NKeep                       0                       0
 Entered Stor2E with KNTT1,2                     338                  130248
 Leave Stor2X
 Entering PrmDigJobTyp =                      20
 LenSav and NKeep                       0                       0
 Entered Stor2E with KNTT1,2                     346                  130244
 Leave Stor2X
 Entering PrmDigJobTyp =                      20
 LenSav and NKeep                       0                       0
 Entered Stor2E with KNTT1,2                     358                  130236
 Leave Stor2X
 Entering PrmDigJobTyp =                      20
 LenSav and NKeep                       0                       0
 Entered Stor2E with KNTT1,2                     358                  130218
 Leave Stor2X
 Entering PrmDigJobTyp =                      20
 LenSav and NKeep                       0                       0
 Entered Stor2E with KNTT1,2                     358                  130200
 Leave Stor2X
 Entering PrmDigJobTyp =                      20
 LenSav and NKeep                       0                       0
 Entered Stor2E with KNTT1,2                     358                  130182
 Leave Stor2X
 Entering PrmDigJobTyp =                      20
 LenSav and NKeep                       0                       0
 Entered Stor2E with KNTT1,2                     358                  130164
 Leave Stor2X
 Entering PrmDigJobTyp =                      20
 LenSav and NKeep                       0                       0
 Entered Stor2E with KNTT1,2                     358                  130146
 Leave Stor2X
 Entering PrmDigJobTyp =                      20
 LenSav and NKeep                       0                       0
 Entered Stor2E with KNTT1,2                     358                  130128
 Leave Stor2X
 Entering PrmDigJobTyp =                      20
 LenSav and NKeep                       0                       0
 Entered Stor2E with KNTT1,2                     358                  130116
 Leave Stor2X
 Entering PrmDigJobTyp =                      20
 LenSav and NKeep                       0                       0
 Entered Stor2E with KNTT1,2                     372                  130106
 Leave Stor2X
 Entering PrmDigJobTyp =                      20
 LenSav and NKeep                       0                       0
 Entered Stor2E with KNTT1,2                     386                  130096
 Leave Stor2X
 Entering PrmDigJobTyp =                      20
 LenSav and NKeep                       0                       0
 Entered Stor2E with KNTT1,2                     400                  130086
 Leave Stor2X
 Entering PrmDigJobTyp =                      20
 LenSav and NKeep                       0                       0
 Entered Stor2E with KNTT1,2                     414                  130076
 Leave Stor2X
 Entering PrmDigJobTyp =                      20
 LenSav and NKeep                       0                       0
 Entered Stor2E with KNTT1,2                     428                  130066
 Leave Stor2X
 Entering PrmDigJobTyp =                      20
 LenSav and NKeep                       0                       0
 Entered Stor2E with KNTT1,2                     444                  130058
 Leave Stor2X
 Entering PrmDigJobTyp =                      20
 LenSav and NKeep                       0                       0
 Entered Stor2E with KNTT1,2                     450                  130052
 Leave Stor2X
 Entering PrmDigJobTyp =                      20
 LenSav and NKeep                       0                       0
 Entered Stor2E with KNTT1,2                     466                  130040
 Leave Stor2X
 Entering PrmDigJobTyp =                      20
 LenSav and NKeep                       0                       0
 Entered Stor2E with KNTT1,2                     482                  130028
 Leave Stor2X
 Entering PrmDigJobTyp =                      20
 LenSav and NKeep                       0                       0
 Entered Stor2E with KNTT1,2                     498                  130016
 Leave Stor2X
 Entering PrmDigJobTyp =                      20
 LenSav and NKeep                       0                       0
 Entered Stor2E with KNTT1,2                     512                  130006
 Leave Stor2X
 Entering PrmDigJobTyp =                      20
 LenSav and NKeep                       0                       0
 Entered Stor2E with KNTT1,2                     526                  129996
 Leave Stor2X
 Entering PrmDigJobTyp =                      20
 LenSav and NKeep                       0                       0
 Entered Stor2E with KNTT1,2                     544                  129984
 Leave Stor2X
 Entering PrmDigJobTyp =                      20
 LenSav and NKeep                       0                       0
 Entered Stor2E with KNTT1,2                     552                  129980
 Leave Stor2X
 Entering PrmDigJobTyp =                      20
 LenSav and NKeep                       0                       0
 Entered Stor2E with KNTT1,2                     552                  129960
 Leave Stor2X
 Entering PrmDigJobTyp =                      20
 LenSav and NKeep                       0                       0
 Entered Stor2E with KNTT1,2                     552                  129940
 Leave Stor2X
 Entering PrmDigJobTyp =                      20
 LenSav and NKeep                       0                       0
 Entered Stor2E with KNTT1,2                     552                  129920
 Leave Stor2X
 Entering PrmDigJobTyp =                      20
 LenSav and NKeep                       0                       0
 Entered Stor2E with KNTT1,2                     552                  129900
 Leave Stor2X
 Entering PrmDigJobTyp =                      20
 LenSav and NKeep                       0                       0
 Entered Stor2E with KNTT1,2                     552                  129880
 Leave Stor2X
 Entering PrmDigJobTyp =                      20
 LenSav and NKeep                       0                       0
 Entered Stor2E with KNTT1,2                     570                  129870
 Leave Stor2X
 Entering PrmDigJobTyp =                      20
 LenSav and NKeep                       0                       0
 Entered Stor2E with KNTT1,2                     582                  129854
 Leave Stor2X
 Entering PrmDigJobTyp =                      20
 LenSav and NKeep                       0                       0
 Entered Stor2E with KNTT1,2                     604                  129848
 Leave Stor2X
 Entering PrmDigJobTyp =                      20
 LenSav and NKeep                       0                       0
 Entered Stor2E with KNTT1,2                     618                  129834
 Leave Stor2X
 Entering PrmDigJobTyp =                      20
 LenSav and NKeep                       0                       0
 Entered Stor2E with KNTT1,2                     630                  129828
 Leave Stor2X
 Entering PrmDigJobTyp =                      20
 LenSav and NKeep                       0                       0
 Entered Stor2E with KNTT1,2                     652                  129818
 Leave Stor2X
 Entering PrmDigJobTyp =                      20
 LenSav and NKeep                       0                       0
 Entered Stor2E with KNTT1,2                     670                  129804
 Leave Stor2X
 Entering PrmDigJobTyp =                      20
 LenSav and NKeep                       0                       0
 Entered Stor2E with KNTT1,2                     672                  129800
 Leave Stor2X
 Entering PrmDigJobTyp =                      20
 LenSav and NKeep                       0                       0
 Entered Stor2E with KNTT1,2                     688                  129788
 Leave Stor2X
 Entering PrmDigJobTyp =                      20
 LenSav and NKeep                       0                       0
 Entered Stor2E with KNTT1,2                     696                  129784
 Leave Stor2X
 Entering PrmDigJobTyp =                      20
 LenSav and NKeep                       0                       0
 Entered Stor2E with KNTT1,2                     716                  129770
 Leave Stor2X
 Entering PrmDigJobTyp =                      20
 LenSav and NKeep                       0                       0
 Entered Stor2E with KNTT1,2                     732                  129760
 Leave Stor2X
 Entering PrmDigJobTyp =                      20
 LenSav and NKeep                       0                       0
 Entered Stor2E with KNTT1,2                     752                  129750
 Leave Stor2X
 Entering PrmDigJobTyp =                      20
 LenSav and NKeep                       0                       0
 Entered Stor2E with KNTT1,2                     752                  129728
 Leave Stor2X
 Entering PrmDigJobTyp =                      20
 LenSav and NKeep                       0                       0
 Entered Stor2E with KNTT1,2                     752                  129706
 Leave Stor2X
 Entering PrmDigJobTyp =                      20
 LenSav and NKeep                       0                       0
 Entered Stor2E with KNTT1,2                     752                  129684
 Leave Stor2X
 Entering PrmDigJobTyp =                      20
 LenSav and NKeep                       0                       0
 Entered Stor2E with KNTT1,2                     752                  129670
 Leave Stor2X
 Entering PrmDigJobTyp =                      20
 LenSav and NKeep                       0                       0
 Entered Stor2E with KNTT1,2                     768                  129658
 Leave Stor2X
 Entering PrmDigJobTyp =                      20
 LenSav and NKeep                       0                       0
 Entered Stor2E with KNTT1,2                     786                  129648
 Leave Stor2X
 Entering PrmDigJobTyp =                      20
 LenSav and NKeep                       0                       0
 Entered Stor2E with KNTT1,2                     804                  129638
 Leave Stor2X
 Entering PrmDigJobTyp =                      20
 LenSav and NKeep                       0                       0
 Entered Stor2E with KNTT1,2                     816                  129630
 Leave Stor2X
 Entering PrmDigJobTyp =                      20
 LenSav and NKeep                       0                       0
 Entered Stor2E with KNTT1,2                     838                  129618
 Leave Stor2X
 Entering PrmDigJobTyp =                      20
 LenSav and NKeep                       0                       0
 Entered Stor2E with KNTT1,2                     852                  129610
 Leave Stor2X
 Entering PrmDigJobTyp =                      20
 LenSav and NKeep                       0                       0
 Entered Stor2E with KNTT1,2                     870                  129600
 Leave Stor2X
 Entering PrmDigJobTyp =                      20
 LenSav and NKeep                       0                       0
 Entered Stor2E with KNTT1,2                     872                  129598
 Leave Stor2X
 Entering PrmDigJobTyp =                      20
 LenSav and NKeep                       0                       0
 Entered Stor2E with KNTT1,2                     896                  129586
 Leave Stor2X
 Entering PrmDigJobTyp =                      20
 LenSav and NKeep                       0                       0
 Entered Stor2E with KNTT1,2                     904                  129582
 Leave Stor2X
 Entering PrmDigJobTyp =                      20
 LenSav and NKeep                       0                       0
 Entered Stor2E with KNTT1,2                     928                  129566
 Leave Stor2X
 Entering PrmDigJobTyp =                      20
 LenSav and NKeep                       0                       0
 Entered Stor2E with KNTT1,2                     940                  129558
 Leave Stor2X
 Entering PrmDigJobTyp =                      20
 LenSav and NKeep                       0                       0
 Entered Stor2E with KNTT1,2                     940                  129536
 Leave Stor2X
 Entering PrmDigJobTyp =                      20
 LenSav and NKeep                       0                       0
 Entered Stor2E with KNTT1,2                     940                  129514
 Leave Stor2X
 Entering PrmDigJobTyp =                      20
 LenSav and NKeep                       0                       0
 Entered Stor2E with KNTT1,2                     940                  129498
 Leave Stor2X
 Entering PrmDigJobTyp =                      20
 LenSav and NKeep                       0                       0
 Entered Stor2E with KNTT1,2                     960                  129488
 Leave Stor2X
 Entering PrmDigJobTyp =                      20
 LenSav and NKeep                       0                       0
 Entered Stor2E with KNTT1,2                     976                  129474
 Leave Stor2X
 Entering PrmDigJobTyp =                      20
 LenSav and NKeep                       0                       0
 Entered Stor2E with KNTT1,2                     990                  129470
 Leave Stor2X
 Entering PrmDigJobTyp =                      20
 LenSav and NKeep                       0                       0
 Entered Stor2E with KNTT1,2                    1016                  129460
 Leave Stor2X
 Entering PrmDigJobTyp =                      20
 LenSav and NKeep                       0                       0
 Entered Stor2E with KNTT1,2                    1020                  129458
 Leave Stor2X
 Entering PrmDigJobTyp =                      20
 LenSav and NKeep                       0                       0
 Entered Stor2E with KNTT1,2                    1036                  129450
 Leave Stor2X
 Entering PrmDigJobTyp =                      20
 LenSav and NKeep                       0                       0
 Entered Stor2E with KNTT1,2                    1060                  129438
 Leave Stor2X
 Entering PrmDigJobTyp =                      20
 LenSav and NKeep                       0                       0
 Entered Stor2E with KNTT1,2                    1078                  129426
 Leave Stor2X
 Entering PrmDigJobTyp =                      20
 LenSav and NKeep                       0                       0
 Entered Stor2E with KNTT1,2                    1090                  129414
 Leave Stor2X
 Entering PrmDigJobTyp =                      20
 LenSav and NKeep                       0                       0
 Entered Stor2E with KNTT1,2                    1096                  129408
 Leave Stor2X
 Entering PrmDigJobTyp =                      20
 LenSav and NKeep                       0                       0
 Entered Stor2E with KNTT1,2                    1096                  129382
 Leave Stor2X
 Entering PrmDigJobTyp =                      20
 LenSav and NKeep                       0                       0
 Entered Stor2E with KNTT1,2                    1096                  129368
 Leave Stor2X
 Entering PrmDigJobTyp =                      20
 LenSav and NKeep                       0                       0
 Entered Stor2E with KNTT1,2                    1120                  129356
 Leave Stor2X
 Entering PrmDigJobTyp =                      20
 LenSav and NKeep                       0                       0
 Entered Stor2E with KNTT1,2                    1132                  129352
 Leave Stor2X
 Entering PrmDigJobTyp =                      20
 LenSav and NKeep                       0                       0
 Entered Stor2E with KNTT1,2                    1152                  129344
 Leave Stor2X
 Entering PrmDigJobTyp =                      20
 LenSav and NKeep                       0                       0
 Entered Stor2E with KNTT1,2                    1164                  129340
 Leave Stor2X
 Entering PrmDigJobTyp =                      20
 LenSav and NKeep                       0                       0
 Entered Stor2E with KNTT1,2                    1180                  129332
 Leave Stor2X
 Entering PrmDigJobTyp =                      20
 LenSav and NKeep                       0                       0
 Entered Stor2E with KNTT1,2                    1192                  129324
 Leave Stor2X
 Entering PrmDigJobTyp =                      20
 LenSav and NKeep                       0                       0
 Entered Stor2E with KNTT1,2                    1200                  129316
 Leave Stor2X
 Entering PrmDigJobTyp =                      20
 LenSav and NKeep                       0                       0
 Entered Stor2E with KNTT1,2                    1204                  129308
 Leave Stor2X
 Entering PrmDigJobTyp =                      20
 LenSav and NKeep                       0                       0
 Entered Stor2E with KNTT1,2                    1206                  129304
 Leave Stor2X
 Entering PrmDigJobTyp =                      20
 LenSav and NKeep                       0                       0
 Entered Stor2E with KNTT1,2                    1206                  129284
 Leave Stor2X
 Entering PrmDigJobTyp =                      20
 LenSav and NKeep                       0                       0
 Entered Stor2E with KNTT1,2                    1224                  129276
 Leave Stor2X
 Entering PrmDigJobTyp =                      20
 LenSav and NKeep                       0                       0
 Entered Stor2E with KNTT1,2                    1234                  129272
 Leave Stor2X
 Entering PrmDigJobTyp =                      20
 LenSav and NKeep                       0                       0
 Entered Stor2E with KNTT1,2                    1242                  129272
 Leave Stor2X
 Entering PrmDigJobTyp =                      20
 LenSav and NKeep                       0                       0
 Entered Stor2E with KNTT1,2                    1250                  129268
 Leave Stor2X
 Entering PrmDigJobTyp =                      20
 LenSav and NKeep                       0                       0
 Entered Stor2E with KNTT1,2                    1256                  129264
 Leave Stor2X
 Entering PrmDigJobTyp =                      20
 LenSav and NKeep                       0                       0
 Entered Stor2E with KNTT1,2                    1260                  129260
 Leave Stor2X
 Entering PrmDigJobTyp =                      20
 LenSav and NKeep                       0                       0
 Entered Stor2E with KNTT1,2                    1262                  129256
 Leave Stor2X
 Entering PrmDigJobTyp =                      20
 LenSav and NKeep                       0                       0
 Entered Stor2E with KNTT1,2                    1262                  129252
 Leave Stor2X
 In PrSumR
 Called IWRITE
         1540 integrals produced for a total of         1540.
 ExpMin= 3.16D-02 ExpMax= 1.00D+03 ExpMxC= 1.00D+01 IAcc=3 IRadAn=         5 AccDes= 0.00D+00
 Harris functional with IExCor=  205 and IRadAn=       5 diagonalized for initial guess.
 HarFok:  IExCor=  205 AccDes= 0.00D+00 IRadAn=         5 IDoV= 1 UseB2=F ITyADJ=14
 ICtDFT=  3500011 ScaDFX=  1.000000  1.000000  1.000000  1.000000
 FoFCou: FMM=F IPFlag=           0 FMFlag=      100000 FMFlg1=           0
         NFxFlg=           0 DoJE=T BraDBF=F KetDBF=T FulRan=T
         wScrn=  0.000000 ICntrl=     500 IOpCl=  0 I1Cent=   200000004 NGrid=           0
         NMat0=    1 NMatS0=      1 NMatT0=    0 NMatD0=    1 NMtDS0=    0 NMtDT0=    0
 Petite list used in FoFCou.
 Mixing orbitals, IMix= 3 IMixAn=  0 NRI=2 NE=   10 Coef=  7.07106781D-01  7.07106781D-01
 Also mixing orbitals    10 and    12 Coef=  3.82683432D-01  9.23879533D-01
 Initial guess <Sx>=-0.0025 <Sy>= 0.2500 <Sz>=-0.4268 <S**2>= 1.0000 S= 0.6180
 Two-electron integrals will be kept in memory, NGetB=      152788.
 Requested convergence on RMS density matrix=1.00D-08 within 128 cycles.
 Requested convergence on MAX density matrix=1.00D-06.
 Requested convergence on             energy=1.00D-06.
 No special actions if energy rises.
 ************************************************
 *READING THE YAODEN.PDM FILE TO GET NEW DENSITY*
 ************************************************
 Rare condition: small coef for last iteration:  0.000D+00
 EnCoef did   100 forward-backward iterations
 Rare condition: small coef for last iteration:  0.000D+00
 EnCoef did   100 forward-backward iterations
 Rare condition: small coef for last iteration:  0.000D+00
 EnCoef did   100 forward-backward iterations
 Rare condition: small coef for last iteration:  0.000D+00
 EnCoef did   100 forward-backward iterations
 Rare condition: small coef for last iteration:  0.000D+00
 EnCoef did   100 forward-backward iterations
 Rare condition: small coef for last iteration:  0.000D+00
 EnCoef did   100 forward-backward iterations
 Rare condition: small coef for last iteration:  0.000D+00
 EnCoef did   100 forward-backward iterations
 Rare condition: small coef for last iteration:  0.000D+00
 EnCoef did   100 forward-backward iterations
 Rare condition: small coef for last iteration:  0.000D+00
 SCF Done:  E(GHF) =  -4.89072329178     A.U. after   38 cycles
            NFock= 38  Conv=0.56D-08     -V/T= 1.9468
 <Sx>= 0.0000 <Sy>= 0.0000 <Sz>= 0.0000 <S**2>= 1.0391 S= 0.6354
 <L.S>= 0.000000000000E+00
 Range of M.O.s used for correlation:     1    10
 NBasis=    10 NAE=    10 NBE=     0 NFC=     0 NFV=     0
 NROrb=     20 NOA=    10 NOB=     0 NVA=    10 NVB=     0
 jaja DoHack is true or false? T
 jaja in hckghf.F, NBasis=                      10
 jaja in hckGHF/FixOG, LC =                      800
 jaja in hckGHF/FixOG, IRwC=                      548
 bfr conversion (real):
                 1             2             3             4             5 
      1a  0.140223D+00  0.331235D-01 -0.435359D-01 -0.187264D+00  0.335200D+00
      1b  0.904648D-02  0.665485D-01  0.129616D+00 -0.488233D-01  0.484924D-01
      2a  0.366323D-01  0.109806D-02 -0.397688D-01 -0.541952D-01  0.189641D+00
      2b -0.905094D-02  0.505266D-01  0.179320D+00 -0.282925D-01 -0.994351D-02
      3a  0.179040D+00  0.227980D-01 -0.493761D-01 -0.602148D-01 -0.108307D+00
      3b -0.179017D-01  0.170486D+00  0.226327D+00 -0.341404D-01 -0.393689D-02
      4a  0.245916D+00  0.592365D-01 -0.560254D-01 -0.218371D+00  0.124280D+00
      4b  0.175968D-01  0.111682D+00  0.178589D+00 -0.596742D-01  0.976612D-02
      5a  0.184155D+00  0.160524D-01  0.140795D-01  0.785614D-01 -0.270105D+00
      5b -0.295883D-01  0.207804D+00 -0.325349D-01  0.183010D-01 -0.255373D-01
      6a  0.207804D+00  0.295883D-01 -0.183010D-01 -0.325349D-01 -0.258037D+00
      6b -0.160524D-01  0.184155D+00  0.785614D-01 -0.140795D-01 -0.217738D-01
      7a  0.111682D+00 -0.175968D-01  0.596742D-01  0.178589D+00  0.136578D+00
      7b -0.592365D-01  0.245916D+00 -0.218371D+00  0.560254D-01  0.136016D-01
      8a  0.170486D+00  0.179017D-01  0.341404D-01  0.226327D+00 -0.160180D+00
      8b -0.227980D-01  0.179040D+00 -0.602148D-01  0.493761D-01 -0.201143D-01
      9a  0.505266D-01  0.905094D-02  0.282925D-01  0.179320D+00  0.431955D+00
      9b -0.109806D-02  0.366323D-01 -0.541952D-01  0.397688D-01  0.656262D-01
     10a  0.665485D-01 -0.904648D-02  0.488233D-01  0.129616D+00  0.169063D+00
     10b -0.331235D-01  0.140223D+00 -0.187264D+00  0.435359D-01 -0.332030D-02
                 6             7             8             9            10 
      1a  0.332030D-02 -0.168184D+00 -0.325857D+00  0.373434D+00 -0.363632D-01
      1b  0.169063D+00  0.607087D-01 -0.111685D+00  0.778159D-01  0.104195D+00
      2a -0.656262D-01  0.159651D-01  0.422878D-01  0.275925D+00  0.934650D-01
      2b  0.431955D+00  0.150642D-01  0.374449D-02  0.314439D-01 -0.535369D+00
      3a  0.201143D-01 -0.183794D+00 -0.322722D+00 -0.328923D+00 -0.978430D-01
      3b -0.160180D+00  0.127569D+00 -0.142211D+00 -0.404225D-01  0.569123D+00
      4a -0.136016D-01  0.224071D+00  0.468181D+00 -0.177228D+00 -0.721669D-02
      4b  0.136578D+00 -0.184448D-01  0.128241D+00 -0.316317D-01  0.750960D-01
      5a  0.217738D-01 -0.231452D+00 -0.346272D+00 -0.370716D-01  0.543154D-01
      5b -0.258037D+00  0.270937D+00 -0.215400D+00 -0.187031D-01 -0.268377D+00
      6a  0.255373D-01  0.215400D+00  0.270937D+00 -0.268377D+00  0.187031D-01
      6b -0.270105D+00 -0.346272D+00  0.231452D+00 -0.543155D-01 -0.370716D-01
      7a -0.976612D-02 -0.128241D+00 -0.184448D-01  0.750960D-01  0.316317D-01
      7b  0.124280D+00  0.468181D+00 -0.224071D+00  0.721670D-02 -0.177228D+00
      8a  0.393689D-02  0.142211D+00  0.127569D+00  0.569123D+00  0.404225D-01
      8b -0.108307D+00 -0.322722D+00  0.183794D+00  0.978430D-01 -0.328923D+00
      9a  0.994351D-02 -0.374449D-02  0.150642D-01 -0.535369D+00 -0.314439D-01
      9b  0.189641D+00  0.422878D-01 -0.159651D-01 -0.934650D-01  0.275925D+00
     10a -0.484924D-01  0.111685D+00  0.607087D-01  0.104195D+00 -0.778159D-01
     10b  0.335200D+00 -0.325857D+00  0.168184D+00  0.363632D-01  0.373434D+00
                11            12            13            14            15 
      1a  0.892188D-01 -0.407602D+00 -0.227217D+00 -0.147534D+00 -0.644788D-01
      1b -0.495154D+00 -0.720619D-01 -0.151189D+00  0.397779D+00  0.722997D+00
      2a  0.102794D-01  0.563078D+00 -0.311594D+00  0.450606D-01 -0.897825D-01
      2b -0.288669D-01  0.105718D+00  0.632674D-01 -0.538241D+00  0.112831D-01
      3a  0.410814D-01 -0.435677D+00  0.217847D+00  0.105338D+00 -0.115029D-01
      3b -0.239454D+00 -0.795332D-01  0.105453D+00 -0.223176D+00 -0.197893D+00
      4a -0.904939D-01  0.261920D+00  0.611550D+00  0.499431D-01  0.178641D+00
      4b  0.495232D+00  0.447741D-01  0.271973D-01  0.450155D+00 -0.771824D+00
      5a  0.347188D-01  0.525185D+00 -0.951719D-01  0.852036D-01 -0.144714D-01
      5b -0.161096D+00  0.997647D-01  0.974695D-01 -0.477365D+00 -0.172218D+00
      6a -0.997647D-01 -0.161096D+00 -0.477365D+00 -0.974695D-01 -0.626815D-01
      6b  0.525185D+00 -0.347188D-01 -0.852036D-01 -0.951719D-01  0.426936D+00
      7a -0.447741D-01  0.495232D+00  0.450155D+00 -0.271973D-01  0.138747D+00
      7b  0.261920D+00  0.904939D-01 -0.499431D-01  0.611550D+00 -0.276020D+00
      8a  0.795332D-01 -0.239454D+00 -0.223176D+00 -0.105453D+00 -0.631917D-01
      8b -0.435677D+00 -0.410814D-01 -0.105338D+00  0.217847D+00  0.444495D+00
      9a -0.105718D+00 -0.288669D-01 -0.538241D+00 -0.632674D-01 -0.152267D+00
      9b  0.563078D+00 -0.102794D-01 -0.450606D-01 -0.311594D+00  0.787834D+00
     10a  0.720619D-01 -0.495154D+00  0.397779D+00  0.151189D+00  0.473105D-01
     10b -0.407601D+00 -0.892188D-01  0.147534D+00 -0.227217D+00 -0.666316D+00
                16            17            18            19            20 
      1a -0.666316D+00  0.257741D+00 -0.188845D+00  0.481758D+00 -0.229042D+00
      1b -0.473105D-01  0.207294D+00  0.579429D+00  0.218219D+00  0.366674D+00
      2a  0.787834D+00  0.228468D+00  0.520099D-01 -0.507324D+00  0.124313D+00
      2b  0.152267D+00 -0.961752D-01 -0.541630D+00 -0.621564D-01  0.153602D+00
      3a  0.444495D+00 -0.226751D+00  0.279884D+00 -0.100190D+01  0.364836D+00
      3b  0.631917D-01 -0.327488D+00 -0.105682D+01 -0.293908D+00 -0.247703D+00
      4a -0.276020D+00 -0.720695D+00  0.586501D-01  0.542343D+00 -0.124548D-01
      4b -0.138747D+00  0.192371D-01  0.637403D+00 -0.106295D+00 -0.720353D+00
      5a  0.426936D+00 -0.231935D+00 -0.175444D+00  0.109439D+01 -0.300865D+00
      5b  0.626815D-01  0.254108D+00  0.113972D+01  0.180984D+00 -0.180345D+00
      6a -0.172218D+00  0.113972D+01 -0.254108D+00 -0.180345D+00 -0.180984D+00
      6b  0.144714D-01  0.175444D+00 -0.231935D+00  0.300865D+00  0.109439D+01
      7a -0.771824D+00  0.637403D+00 -0.192371D-01 -0.720353D+00  0.106295D+00
      7b -0.178641D+00 -0.586501D-01 -0.720695D+00  0.124548D-01  0.542343D+00
      8a -0.197893D+00 -0.105682D+01  0.327488D+00 -0.247703D+00  0.293908D+00
      8b  0.115029D-01 -0.279884D+00 -0.226751D+00 -0.364836D+00 -0.100190D+01
      9a  0.112831D-01 -0.541630D+00  0.961752D-01  0.153602D+00  0.621564D-01
      9b  0.897825D-01 -0.520099D-01  0.228468D+00 -0.124313D+00 -0.507324D+00
     10a  0.722997D+00  0.579429D+00 -0.207294D+00  0.366674D+00 -0.218219D+00
     10b  0.644788D-01  0.188845D+00  0.257741D+00  0.229042D+00  0.481758D+00
 bfr conversion (imaginary):
                 1             2             3             4             5 
      1a  0.261088D-03 -0.772404D-01  0.177983D+00  0.114937D-01  0.310187D-02
      1b -0.207912D-01 -0.100184D-01  0.220066D-01 -0.139160D+00 -0.858854D-01
      2a  0.308659D-02 -0.153384D-01  0.747209D-01  0.237527D-01  0.493876D-01
      2b -0.259842D-01 -0.124645D-02  0.934361D-03 -0.158987D+00 -0.311647D+00
      3a  0.812177D-02 -0.861334D-01  0.874544D-01  0.302930D-01 -0.159523D-01
      3b -0.795792D-01 -0.925467D-02  0.000000D+00 -0.199324D+00  0.110314D+00
      4a  0.000000D+00 -0.136195D+00  0.212040D+00  0.173557D-01  0.116163D-01
      4b -0.333449D-01 -0.177777D-01  0.246106D-01 -0.185249D+00 -0.896440D-01
      5a  0.113090D-01 -0.838556D-01 -0.710926D-01 -0.167570D-02 -0.197514D-01
      5b -0.101975D+00 -0.817702D-02 -0.100693D-01  0.400956D-01  0.164482D+00
      6a  0.817702D-02 -0.101975D+00  0.400956D-01  0.100693D-01 -0.222110D-01
      6b -0.838556D-01 -0.113090D-01  0.167570D-02 -0.710926D-01  0.175590D+00
      7a  0.177777D-01 -0.333449D-01 -0.185249D+00 -0.246106D-01  0.910965D-02
      7b -0.136195D+00  0.000000D+00 -0.173557D-01  0.212040D+00 -0.783234D-01
      8a  0.925467D-02 -0.795792D-01 -0.199324D+00  0.000000D+00 -0.537979D-02
      8b -0.861334D-01 -0.812177D-02 -0.302930D-01  0.874544D-01  0.625660D-01
      9a  0.124645D-02 -0.259842D-01 -0.158987D+00 -0.934361D-03  0.000000D+00
      9b -0.153384D-01 -0.308659D-02 -0.237527D-01  0.747209D-01 -0.886009D-01
     10a  0.100184D-01 -0.207912D-01 -0.139160D+00 -0.220066D-01  0.369633D-01
     10b -0.772404D-01 -0.261089D-03 -0.114937D-01  0.177983D+00 -0.238812D+00
                 6             7             8             9            10 
      1a -0.238812D+00  0.291132D+00  0.561269D-02 -0.466757D-01  0.299859D+00
      1b -0.369633D-01  0.379252D-01 -0.121877D+00  0.125890D+00  0.632493D-01
      2a -0.886009D-01 -0.328479D-01  0.196155D-02  0.548256D-01  0.146478D+00
      2b  0.000000D+00 -0.502771D-02 -0.376214D-02 -0.377741D+00 -0.488471D-02
      3a  0.625660D-01  0.302833D+00  0.134663D-01 -0.552811D-01 -0.183083D+00
      3b  0.537979D-02  0.372488D-01 -0.178259D+00  0.397191D+00  0.000000D+00
      4a -0.783234D-01 -0.403499D+00  0.000000D+00  0.398653D-02 -0.127039D+00
      4b -0.910965D-02 -0.548074D-01  0.116415D+00  0.360006D-01 -0.195188D-01
      5a  0.175590D+00  0.353759D+00  0.301670D-01  0.422682D-01 -0.614062D-01
      5b  0.222110D-01  0.393477D-01 -0.305670D+00 -0.210864D+00 -0.280298D-01
      6a  0.164482D+00 -0.305670D+00 -0.393477D-01  0.280298D-01 -0.210864D+00
      6b  0.197514D-01 -0.301670D-01  0.353759D+00 -0.614062D-01 -0.422682D-01
      7a -0.896440D-01  0.116415D+00  0.548074D-01  0.195188D-01  0.360006D-01
      7b -0.116163D-01  0.000000D+00 -0.403499D+00 -0.127039D+00 -0.398653D-02
      8a  0.110314D+00 -0.178259D+00 -0.372488D-01  0.000000D+00  0.397191D+00
      8b  0.159523D-01 -0.134663D-01  0.302833D+00 -0.183083D+00  0.552811D-01
      9a -0.311647D+00 -0.376213D-02  0.502771D-02  0.488471D-02 -0.377741D+00
      9b -0.493876D-01 -0.196155D-02 -0.328479D-01  0.146478D+00 -0.548256D-01
     10a -0.858854D-01 -0.121877D+00 -0.379252D-01 -0.632493D-01  0.125890D+00
     10b -0.310187D-02 -0.561269D-02  0.291132D+00  0.299859D+00  0.466758D-01
                11            12            13            14            15 
      1a -0.173272D+00  0.308481D-01  0.105915D+00  0.310296D+00 -0.101090D+00
      1b -0.258827D-01 -0.192908D+00 -0.453422D+00  0.974773D-01 -0.258425D-01
      2a  0.174725D+00  0.000000D+00 -0.578995D-01  0.218092D+00  0.201066D+00
      2b  0.335708D-01  0.419647D-01  0.495045D+00 -0.158581D-01  0.300818D-01
      3a -0.158929D+00  0.156491D-01 -0.718927D-01 -0.267219D+00  0.942118D-01
      3b -0.267774D-01 -0.114921D+00  0.271691D+00 -0.716291D-01  0.170838D-01
      4a  0.127397D+00 -0.304063D-01  0.000000D+00 -0.544073D+00 -0.142734D+00
      4b  0.171745D-01  0.179723D+00 -0.346855D+00 -0.525228D-01 -0.101192D-01
      5a  0.150801D+00  0.802041D-02 -0.763503D-01  0.670983D-02  0.921713D-01
      5b  0.309004D-01 -0.311691D-02  0.473734D+00 -0.480268D-01  0.163992D-01
      6a -0.311692D-02 -0.309004D-01  0.480268D-01  0.473734D+00 -0.352740D-02
      6b -0.802041D-02  0.150801D+00  0.670983D-02  0.763503D-01 -0.681065D-02
      7a  0.179723D+00 -0.171745D-01  0.525228D-01 -0.346855D+00 -0.221925D+00
      7b  0.304063D-01  0.127397D+00 -0.544073D+00  0.000000D+00 -0.293256D-01
      8a -0.114921D+00  0.267774D-01  0.716291D-01  0.271691D+00 -0.839228D-02
      8b -0.156491D-01 -0.158929D+00 -0.267219D+00  0.718928D-01 -0.780079D-02
      9a  0.419647D-01 -0.335708D-01  0.158581D-01  0.495045D+00  0.770332D-01
      9b  0.000000D+00  0.174725D+00  0.218092D+00  0.578995D-01  0.000000D+00
     10a -0.192908D+00  0.258827D-01 -0.974773D-01 -0.453422D+00  0.120815D+00
     10b -0.308481D-01 -0.173272D+00  0.310296D+00 -0.105915D+00  0.279762D-01
                16            17            18            19            20 
      1a -0.279762D-01 -0.282240D-01  0.154601D+00 -0.279420D-01  0.272945D+00
      1b  0.120815D+00  0.233403D+00  0.167793D-01  0.233344D+00  0.339630D-01
      2a  0.000000D+00  0.221162D-01  0.217518D-01 -0.438484D-02 -0.219255D+00
      2b  0.770333D-01 -0.166893D+00  0.528161D-02  0.817647D-02 -0.301939D-01
      3a  0.780079D-02  0.492659D-01 -0.195781D+00  0.258588D-01 -0.502604D+00
      3b -0.839228D-02 -0.399117D+00 -0.197345D-01 -0.243077D+00 -0.653173D-01
      4a  0.293256D-01 -0.219198D-01 -0.185643D+00  0.395254D-01  0.164141D+00
      4b -0.221925D+00  0.147040D+00 -0.263973D-01 -0.270366D+00  0.265371D-01
      5a  0.681065D-02 -0.487992D-01  0.423633D-01  0.000000D+00  0.492044D+00
      5b -0.352739D-02  0.378366D+00  0.000000D+00  0.533960D-01  0.666922D-01
      6a -0.163992D-01  0.000000D+00  0.378366D+00 -0.666922D-01  0.533960D-01
      6b  0.921713D-01  0.423633D-01  0.487992D-01  0.492044D+00  0.000000D+00
      7a  0.101192D-01  0.263973D-01  0.147040D+00 -0.265371D-01 -0.270366D+00
      7b -0.142734D+00 -0.185643D+00  0.219198D-01  0.164141D+00 -0.395254D-01
      8a -0.170838D-01  0.197345D-01 -0.399117D+00  0.653173D-01 -0.243077D+00
      8b  0.942118D-01 -0.195781D+00 -0.492659D-01 -0.502604D+00 -0.258588D-01
      9a -0.300818D-01 -0.528161D-02 -0.166893D+00  0.301939D-01  0.817648D-02
      9b  0.201066D+00  0.217518D-01 -0.221162D-01 -0.219255D+00  0.438484D-02
     10a  0.258426D-01 -0.167793D-01  0.233403D+00 -0.339630D-01  0.233344D+00
     10b -0.101090D+00  0.154601D+00  0.282240D-01  0.272945D+00  0.279420D-01
 afr conversion (alpha, real):
                 1             2             3             4             5 
      1   0.140223D+00  0.331235D-01 -0.435359D-01 -0.187264D+00  0.335200D+00
      2   0.366323D-01  0.109806D-02 -0.397688D-01 -0.541952D-01  0.189641D+00
      3   0.179040D+00  0.227980D-01 -0.493761D-01 -0.602148D-01 -0.108307D+00
      4   0.245916D+00  0.592365D-01 -0.560254D-01 -0.218371D+00  0.124280D+00
      5   0.184155D+00  0.160524D-01  0.140795D-01  0.785614D-01 -0.270105D+00
      6   0.207804D+00  0.295883D-01 -0.183010D-01 -0.325349D-01 -0.258037D+00
      7   0.111682D+00 -0.175968D-01  0.596742D-01  0.178589D+00  0.136578D+00
      8   0.170486D+00  0.179017D-01  0.341404D-01  0.226327D+00 -0.160180D+00
      9   0.505266D-01  0.905094D-02  0.282925D-01  0.179320D+00  0.431955D+00
     10   0.665485D-01 -0.904648D-02  0.488233D-01  0.129616D+00  0.169063D+00
                 6             7             8             9            10 
      1   0.332030D-02 -0.168184D+00 -0.325857D+00  0.373434D+00 -0.363632D-01
      2  -0.656262D-01  0.159651D-01  0.422878D-01  0.275925D+00  0.934650D-01
      3   0.201143D-01 -0.183794D+00 -0.322722D+00 -0.328923D+00 -0.978430D-01
      4  -0.136016D-01  0.224071D+00  0.468181D+00 -0.177228D+00 -0.721669D-02
      5   0.217738D-01 -0.231452D+00 -0.346272D+00 -0.370716D-01  0.543154D-01
      6   0.255373D-01  0.215400D+00  0.270937D+00 -0.268377D+00  0.187031D-01
      7  -0.976612D-02 -0.128241D+00 -0.184448D-01  0.750960D-01  0.316317D-01
      8   0.393689D-02  0.142211D+00  0.127569D+00  0.569123D+00  0.404225D-01
      9   0.994351D-02 -0.374449D-02  0.150642D-01 -0.535369D+00 -0.314439D-01
     10  -0.484924D-01  0.111685D+00  0.607087D-01  0.104195D+00 -0.778159D-01
                11            12            13            14            15 
      1   0.892188D-01 -0.407602D+00 -0.227217D+00 -0.147534D+00 -0.644788D-01
      2   0.102794D-01  0.563078D+00 -0.311594D+00  0.450606D-01 -0.897825D-01
      3   0.410814D-01 -0.435677D+00  0.217847D+00  0.105338D+00 -0.115029D-01
      4  -0.904939D-01  0.261920D+00  0.611550D+00  0.499431D-01  0.178641D+00
      5   0.347188D-01  0.525185D+00 -0.951719D-01  0.852036D-01 -0.144714D-01
      6  -0.997647D-01 -0.161096D+00 -0.477365D+00 -0.974695D-01 -0.626815D-01
      7  -0.447741D-01  0.495232D+00  0.450155D+00 -0.271973D-01  0.138747D+00
      8   0.795332D-01 -0.239454D+00 -0.223176D+00 -0.105453D+00 -0.631917D-01
      9  -0.105718D+00 -0.288669D-01 -0.538241D+00 -0.632674D-01 -0.152267D+00
     10   0.720619D-01 -0.495154D+00  0.397779D+00  0.151189D+00  0.473105D-01
                16            17            18            19            20 
      1  -0.666316D+00  0.257741D+00 -0.188845D+00  0.481758D+00 -0.229042D+00
      2   0.787834D+00  0.228468D+00  0.520099D-01 -0.507324D+00  0.124313D+00
      3   0.444495D+00 -0.226751D+00  0.279884D+00 -0.100190D+01  0.364836D+00
      4  -0.276020D+00 -0.720695D+00  0.586501D-01  0.542343D+00 -0.124548D-01
      5   0.426936D+00 -0.231935D+00 -0.175444D+00  0.109439D+01 -0.300865D+00
      6  -0.172218D+00  0.113972D+01 -0.254108D+00 -0.180345D+00 -0.180984D+00
      7  -0.771824D+00  0.637403D+00 -0.192371D-01 -0.720353D+00  0.106295D+00
      8  -0.197893D+00 -0.105682D+01  0.327488D+00 -0.247703D+00  0.293908D+00
      9   0.112831D-01 -0.541630D+00  0.961752D-01  0.153602D+00  0.621564D-01
     10   0.722997D+00  0.579429D+00 -0.207294D+00  0.366674D+00 -0.218219D+00
 afr conversion (alpha, imaginary):
                 1             2             3             4             5 
      1   0.261088D-03 -0.772404D-01  0.177983D+00  0.114937D-01  0.310187D-02
      2   0.308659D-02 -0.153384D-01  0.747209D-01  0.237527D-01  0.493876D-01
      3   0.812177D-02 -0.861334D-01  0.874544D-01  0.302930D-01 -0.159523D-01
      4   0.000000D+00 -0.136195D+00  0.212040D+00  0.173557D-01  0.116163D-01
      5   0.113090D-01 -0.838556D-01 -0.710926D-01 -0.167570D-02 -0.197514D-01
      6   0.817702D-02 -0.101975D+00  0.400956D-01  0.100693D-01 -0.222110D-01
      7   0.177777D-01 -0.333449D-01 -0.185249D+00 -0.246106D-01  0.910965D-02
      8   0.925467D-02 -0.795792D-01 -0.199324D+00  0.000000D+00 -0.537979D-02
      9   0.124645D-02 -0.259842D-01 -0.158987D+00 -0.934361D-03  0.000000D+00
     10   0.100184D-01 -0.207912D-01 -0.139160D+00 -0.220066D-01  0.369633D-01
                 6             7             8             9            10 
      1  -0.238812D+00  0.291132D+00  0.561269D-02 -0.466757D-01  0.299859D+00
      2  -0.886009D-01 -0.328479D-01  0.196155D-02  0.548256D-01  0.146478D+00
      3   0.625660D-01  0.302833D+00  0.134663D-01 -0.552811D-01 -0.183083D+00
      4  -0.783234D-01 -0.403499D+00  0.000000D+00  0.398653D-02 -0.127039D+00
      5   0.175590D+00  0.353759D+00  0.301670D-01  0.422682D-01 -0.614062D-01
      6   0.164482D+00 -0.305670D+00 -0.393477D-01  0.280298D-01 -0.210864D+00
      7  -0.896440D-01  0.116415D+00  0.548074D-01  0.195188D-01  0.360006D-01
      8   0.110314D+00 -0.178259D+00 -0.372488D-01  0.000000D+00  0.397191D+00
      9  -0.311647D+00 -0.376213D-02  0.502771D-02  0.488471D-02 -0.377741D+00
     10  -0.858854D-01 -0.121877D+00 -0.379252D-01 -0.632493D-01  0.125890D+00
                11            12            13            14            15 
      1  -0.173272D+00  0.308481D-01  0.105915D+00  0.310296D+00 -0.101090D+00
      2   0.174725D+00  0.000000D+00 -0.578995D-01  0.218092D+00  0.201066D+00
      3  -0.158929D+00  0.156491D-01 -0.718927D-01 -0.267219D+00  0.942118D-01
      4   0.127397D+00 -0.304063D-01  0.000000D+00 -0.544073D+00 -0.142734D+00
      5   0.150801D+00  0.802041D-02 -0.763503D-01  0.670983D-02  0.921713D-01
      6  -0.311692D-02 -0.309004D-01  0.480268D-01  0.473734D+00 -0.352740D-02
      7   0.179723D+00 -0.171745D-01  0.525228D-01 -0.346855D+00 -0.221925D+00
      8  -0.114921D+00  0.267774D-01  0.716291D-01  0.271691D+00 -0.839228D-02
      9   0.419647D-01 -0.335708D-01  0.158581D-01  0.495045D+00  0.770332D-01
     10  -0.192908D+00  0.258827D-01 -0.974773D-01 -0.453422D+00  0.120815D+00
                16            17            18            19            20 
      1  -0.279762D-01 -0.282240D-01  0.154601D+00 -0.279420D-01  0.272945D+00
      2   0.000000D+00  0.221162D-01  0.217518D-01 -0.438484D-02 -0.219255D+00
      3   0.780079D-02  0.492659D-01 -0.195781D+00  0.258588D-01 -0.502604D+00
      4   0.293256D-01 -0.219198D-01 -0.185643D+00  0.395254D-01  0.164141D+00
      5   0.681065D-02 -0.487992D-01  0.423633D-01  0.000000D+00  0.492044D+00
      6  -0.163992D-01  0.000000D+00  0.378366D+00 -0.666922D-01  0.533960D-01
      7   0.101192D-01  0.263973D-01  0.147040D+00 -0.265371D-01 -0.270366D+00
      8  -0.170838D-01  0.197345D-01 -0.399117D+00  0.653173D-01 -0.243077D+00
      9  -0.300818D-01 -0.528161D-02 -0.166893D+00  0.301939D-01  0.817648D-02
     10   0.258426D-01 -0.167793D-01  0.233403D+00 -0.339630D-01  0.233344D+00
 afr conversion (beta, real):
                 1             2             3             4             5 
      1   0.904648D-02  0.665485D-01  0.129616D+00 -0.488233D-01  0.484924D-01
      2  -0.905094D-02  0.505266D-01  0.179320D+00 -0.282925D-01 -0.994351D-02
      3  -0.179017D-01  0.170486D+00  0.226327D+00 -0.341404D-01 -0.393689D-02
      4   0.175968D-01  0.111682D+00  0.178589D+00 -0.596742D-01  0.976612D-02
      5  -0.295883D-01  0.207804D+00 -0.325349D-01  0.183010D-01 -0.255373D-01
      6  -0.160524D-01  0.184155D+00  0.785614D-01 -0.140795D-01 -0.217738D-01
      7  -0.592365D-01  0.245916D+00 -0.218371D+00  0.560254D-01  0.136016D-01
      8  -0.227980D-01  0.179040D+00 -0.602148D-01  0.493761D-01 -0.201143D-01
      9  -0.109806D-02  0.366323D-01 -0.541952D-01  0.397688D-01  0.656262D-01
     10  -0.331235D-01  0.140223D+00 -0.187264D+00  0.435359D-01 -0.332030D-02
                 6             7             8             9            10 
      1   0.169063D+00  0.607087D-01 -0.111685D+00  0.778159D-01  0.104195D+00
      2   0.431955D+00  0.150642D-01  0.374449D-02  0.314439D-01 -0.535369D+00
      3  -0.160180D+00  0.127569D+00 -0.142211D+00 -0.404225D-01  0.569123D+00
      4   0.136578D+00 -0.184448D-01  0.128241D+00 -0.316317D-01  0.750960D-01
      5  -0.258037D+00  0.270937D+00 -0.215400D+00 -0.187031D-01 -0.268377D+00
      6  -0.270105D+00 -0.346272D+00  0.231452D+00 -0.543155D-01 -0.370716D-01
      7   0.124280D+00  0.468181D+00 -0.224071D+00  0.721670D-02 -0.177228D+00
      8  -0.108307D+00 -0.322722D+00  0.183794D+00  0.978430D-01 -0.328923D+00
      9   0.189641D+00  0.422878D-01 -0.159651D-01 -0.934650D-01  0.275925D+00
     10   0.335200D+00 -0.325857D+00  0.168184D+00  0.363632D-01  0.373434D+00
                11            12            13            14            15 
      1  -0.495154D+00 -0.720619D-01 -0.151189D+00  0.397779D+00  0.722997D+00
      2  -0.288669D-01  0.105718D+00  0.632674D-01 -0.538241D+00  0.112831D-01
      3  -0.239454D+00 -0.795332D-01  0.105453D+00 -0.223176D+00 -0.197893D+00
      4   0.495232D+00  0.447741D-01  0.271973D-01  0.450155D+00 -0.771824D+00
      5  -0.161096D+00  0.997647D-01  0.974695D-01 -0.477365D+00 -0.172218D+00
      6   0.525185D+00 -0.347188D-01 -0.852036D-01 -0.951719D-01  0.426936D+00
      7   0.261920D+00  0.904939D-01 -0.499431D-01  0.611550D+00 -0.276020D+00
      8  -0.435677D+00 -0.410814D-01 -0.105338D+00  0.217847D+00  0.444495D+00
      9   0.563078D+00 -0.102794D-01 -0.450606D-01 -0.311594D+00  0.787834D+00
     10  -0.407601D+00 -0.892188D-01  0.147534D+00 -0.227217D+00 -0.666316D+00
                16            17            18            19            20 
      1  -0.473105D-01  0.207294D+00  0.579429D+00  0.218219D+00  0.366674D+00
      2   0.152267D+00 -0.961752D-01 -0.541630D+00 -0.621564D-01  0.153602D+00
      3   0.631917D-01 -0.327488D+00 -0.105682D+01 -0.293908D+00 -0.247703D+00
      4  -0.138747D+00  0.192371D-01  0.637403D+00 -0.106295D+00 -0.720353D+00
      5   0.626815D-01  0.254108D+00  0.113972D+01  0.180984D+00 -0.180345D+00
      6   0.144714D-01  0.175444D+00 -0.231935D+00  0.300865D+00  0.109439D+01
      7  -0.178641D+00 -0.586501D-01 -0.720695D+00  0.124548D-01  0.542343D+00
      8   0.115029D-01 -0.279884D+00 -0.226751D+00 -0.364836D+00 -0.100190D+01
      9   0.897825D-01 -0.520099D-01  0.228468D+00 -0.124313D+00 -0.507324D+00
     10   0.644788D-01  0.188845D+00  0.257741D+00  0.229042D+00  0.481758D+00
 afr conversion (beta, imaginary):
                 1             2             3             4             5 
      1  -0.207912D-01 -0.100184D-01  0.220066D-01 -0.139160D+00 -0.858854D-01
      2  -0.259842D-01 -0.124645D-02  0.934361D-03 -0.158987D+00 -0.311647D+00
      3  -0.795792D-01 -0.925467D-02  0.000000D+00 -0.199324D+00  0.110314D+00
      4  -0.333449D-01 -0.177777D-01  0.246106D-01 -0.185249D+00 -0.896440D-01
      5  -0.101975D+00 -0.817702D-02 -0.100693D-01  0.400956D-01  0.164482D+00
      6  -0.838556D-01 -0.113090D-01  0.167570D-02 -0.710926D-01  0.175590D+00
      7  -0.136195D+00  0.000000D+00 -0.173557D-01  0.212040D+00 -0.783234D-01
      8  -0.861334D-01 -0.812177D-02 -0.302930D-01  0.874544D-01  0.625660D-01
      9  -0.153384D-01 -0.308659D-02 -0.237527D-01  0.747209D-01 -0.886009D-01
     10  -0.772404D-01 -0.261089D-03 -0.114937D-01  0.177983D+00 -0.238812D+00
                 6             7             8             9            10 
      1  -0.369633D-01  0.379252D-01 -0.121877D+00  0.125890D+00  0.632493D-01
      2   0.000000D+00 -0.502771D-02 -0.376214D-02 -0.377741D+00 -0.488471D-02
      3   0.537979D-02  0.372488D-01 -0.178259D+00  0.397191D+00  0.000000D+00
      4  -0.910965D-02 -0.548074D-01  0.116415D+00  0.360006D-01 -0.195188D-01
      5   0.222110D-01  0.393477D-01 -0.305670D+00 -0.210864D+00 -0.280298D-01
      6   0.197514D-01 -0.301670D-01  0.353759D+00 -0.614062D-01 -0.422682D-01
      7  -0.116163D-01  0.000000D+00 -0.403499D+00 -0.127039D+00 -0.398653D-02
      8   0.159523D-01 -0.134663D-01  0.302833D+00 -0.183083D+00  0.552811D-01
      9  -0.493876D-01 -0.196155D-02 -0.328479D-01  0.146478D+00 -0.548256D-01
     10  -0.310187D-02 -0.561269D-02  0.291132D+00  0.299859D+00  0.466758D-01
                11            12            13            14            15 
      1  -0.258827D-01 -0.192908D+00 -0.453422D+00  0.974773D-01 -0.258425D-01
      2   0.335708D-01  0.419647D-01  0.495045D+00 -0.158581D-01  0.300818D-01
      3  -0.267774D-01 -0.114921D+00  0.271691D+00 -0.716291D-01  0.170838D-01
      4   0.171745D-01  0.179723D+00 -0.346855D+00 -0.525228D-01 -0.101192D-01
      5   0.309004D-01 -0.311691D-02  0.473734D+00 -0.480268D-01  0.163992D-01
      6  -0.802041D-02  0.150801D+00  0.670983D-02  0.763503D-01 -0.681065D-02
      7   0.304063D-01  0.127397D+00 -0.544073D+00  0.000000D+00 -0.293256D-01
      8  -0.156491D-01 -0.158929D+00 -0.267219D+00  0.718928D-01 -0.780079D-02
      9   0.000000D+00  0.174725D+00  0.218092D+00  0.578995D-01  0.000000D+00
     10  -0.308481D-01 -0.173272D+00  0.310296D+00 -0.105915D+00  0.279762D-01
                16            17            18            19            20 
      1   0.120815D+00  0.233403D+00  0.167793D-01  0.233344D+00  0.339630D-01
      2   0.770333D-01 -0.166893D+00  0.528161D-02  0.817647D-02 -0.301939D-01
      3  -0.839228D-02 -0.399117D+00 -0.197345D-01 -0.243077D+00 -0.653173D-01
      4  -0.221925D+00  0.147040D+00 -0.263973D-01 -0.270366D+00  0.265371D-01
      5  -0.352739D-02  0.378366D+00  0.000000D+00  0.533960D-01  0.666922D-01
      6   0.921713D-01  0.423633D-01  0.487992D-01  0.492044D+00  0.000000D+00
      7  -0.142734D+00 -0.185643D+00  0.219198D-01  0.164141D+00 -0.395254D-01
      8   0.942118D-01 -0.195781D+00 -0.492659D-01 -0.502604D+00 -0.258588D-01
      9   0.201066D+00  0.217518D-01 -0.221162D-01 -0.219255D+00  0.438484D-02
     10  -0.101090D+00  0.154601D+00  0.282240D-01  0.272945D+00  0.279420D-01
 jaja in hckghf.F, ISPECT =                     548
Spin block MO for GHF transformation
NOA =   10   NOB =   10
NVA =   10   NVB =   10
 NOAvA in Hack                     100
 jaja in tranN3.F, ISPECT =                     548
 in l802/tranN3.F, LSPECT =                      800
 NMat, NBtSiz,MDV                    8372                   16000
                133954722
 TranN3:  NGot= 134217728 NBasic=    263006 NTTT=       550 NMat=      8372.
 Defined bucket =                      51                   10000
 Defined bucket =                      52                   10000
 Defined bucket =                      53                   10000
 Defined bucket =                      55                   10000
 Defined bucket =                      57                   10000
 Defined bucket =                      58                   10000
 Defined bucket =                      60                   10000
 Defined bucket =                      72                   10000
 Defined bucket =                      73                   10000
 Defined bucket =                      74                   10000
 Defined bucket =                      75                   10000
 Defined bucket =                      76                   10000
 (IK/LS) integrals will be saved in memory.
 TrCghf made   2 passes through the AO integrals.
 jaja DoHack is true or false? F
 jaja in hckghf.F, NBasis=                      10
 jaja in hckGHF/FixOG, LC =                      800
 jaja in hckGHF/FixOG, IRwC=                      548
 bfr conversion (alpha, real):
                 1             2             3             4             5 
      1   0.140223D+00  0.331235D-01 -0.435359D-01 -0.187264D+00  0.335200D+00
      2   0.366323D-01  0.109806D-02 -0.397688D-01 -0.541952D-01  0.189641D+00
      3   0.179040D+00  0.227980D-01 -0.493761D-01 -0.602148D-01 -0.108307D+00
      4   0.245916D+00  0.592365D-01 -0.560254D-01 -0.218371D+00  0.124280D+00
      5   0.184155D+00  0.160524D-01  0.140795D-01  0.785614D-01 -0.270105D+00
      6   0.207804D+00  0.295883D-01 -0.183010D-01 -0.325349D-01 -0.258037D+00
      7   0.111682D+00 -0.175968D-01  0.596742D-01  0.178589D+00  0.136578D+00
      8   0.170486D+00  0.179017D-01  0.341404D-01  0.226327D+00 -0.160180D+00
      9   0.505266D-01  0.905094D-02  0.282925D-01  0.179320D+00  0.431955D+00
     10   0.665485D-01 -0.904648D-02  0.488233D-01  0.129616D+00  0.169063D+00
                 6             7             8             9            10 
      1   0.332030D-02 -0.168184D+00 -0.325857D+00  0.373434D+00 -0.363632D-01
      2  -0.656262D-01  0.159651D-01  0.422878D-01  0.275925D+00  0.934650D-01
      3   0.201143D-01 -0.183794D+00 -0.322722D+00 -0.328923D+00 -0.978430D-01
      4  -0.136016D-01  0.224071D+00  0.468181D+00 -0.177228D+00 -0.721669D-02
      5   0.217738D-01 -0.231452D+00 -0.346272D+00 -0.370716D-01  0.543154D-01
      6   0.255373D-01  0.215400D+00  0.270937D+00 -0.268377D+00  0.187031D-01
      7  -0.976612D-02 -0.128241D+00 -0.184448D-01  0.750960D-01  0.316317D-01
      8   0.393689D-02  0.142211D+00  0.127569D+00  0.569123D+00  0.404225D-01
      9   0.994351D-02 -0.374449D-02  0.150642D-01 -0.535369D+00 -0.314439D-01
     10  -0.484924D-01  0.111685D+00  0.607087D-01  0.104195D+00 -0.778159D-01
[...]
      6b-0.434446D-01 -0.180914D+00  0.101567D+00 -0.308551D+00 -0.341932D-01
      7a 0.472713D-01  0.276220D-02  0.921850D-01 -0.763276D-01 -0.181929D+00
      7b 0.407390D-01 -0.934601D-01 -0.816260D-01  0.159205D+00  0.134113D+00
      8a 0.134885D-01 -0.128125D+00  0.900716D-01  0.118365D+00 -0.369506D+00
      8b-0.152976D+00 -0.181550D+00 -0.147695D+00  0.408726D-01  0.245774D+00
      9a-0.786110D-01  0.162484D+00 -0.381089D-01 -0.760508D-01  0.615163D-01
      9b 0.104825D+00  0.684547D-01  0.109869D+00 -0.116526D-01 -0.140892D+00
     10a 0.135980D+00 -0.109947D+00  0.222655D-01  0.147649D+00 -0.127640D+00
     10b 0.448316D-01  0.144138D+00  0.950418D-01  0.103123D-01 -0.137072D+00
                3b            4a            4b            5a            5b
      3b 0.116805D+01
      4a 0.156145D+00  0.890492D+00
      4b 0.244368D+00 -0.121773D+00  0.375756D+00
      5a 0.114773D+00 -0.310039D+00  0.833113D-01  0.624831D+00
      5b-0.866941D-01 -0.183537D-01 -0.218699D+00 -0.131959D+00  0.593043D+00
      6a 0.484429D-01  0.351671D+00 -0.113488D+00  0.211527D+00 -0.261738D-01
      6b 0.168468D+00 -0.866880D-01  0.248530D-01  0.118545D+00  0.257350D+00
      7a 0.122460D+00 -0.206298D+00  0.127247D+00  0.842485D-01 -0.135903D+00
      7b-0.445156D+00 -0.124795D+00 -0.208579D+00 -0.110389D+00  0.237783D+00
      8a-0.238891D+00 -0.457447D+00  0.625716D-01  0.186013D+00  0.446744D-01
      8b-0.387438D+00  0.719372D-01 -0.159111D+00 -0.247445D-01  0.253988D+00
      9a 0.148410D+00  0.187660D+00 -0.687510D-01 -0.295620D+00 -0.532810D-01
      9b 0.694040D-01 -0.742179D-01  0.698711D-01  0.948270D-01 -0.263644D+00
     10a-0.119853D+00 -0.958224D-01 -0.205368D-01 -0.200275D+00  0.269692D+00
     10b-0.457902D-01  0.167781D-01  0.524320D-01  0.327942D-01 -0.554158D+00
                6a            6b            7a            7b            8a
      6a 0.664941D+00
      6b-0.125799D+00  0.586208D+00
      7a-0.219957D+00  0.101680D+00  0.425010D+00
      7b-0.546327D-02 -0.305716D+00 -0.168550D+00  0.762973D+00
      8a-0.114193D+00  0.110939D+00  0.254280D+00  0.154487D+00  0.124447D+01
      8b 0.509951D-01  0.265479D+00 -0.101097D+00  0.935994D-01 -0.132887D+00
      9a-0.959518D-01 -0.313216D+00  0.362485D+00  0.198617D+00 -0.628335D+00
      9b 0.109408D-02 -0.195245D+00 -0.431507D-01  0.106145D+00  0.215254D+00
     10a-0.202704D+00  0.104763D+00  0.190655D+00  0.572421D-01  0.288966D+00
     10b-0.201329D-01 -0.399797D+00  0.143987D+00  0.273906D+00  0.350745D-01
                8b            9a            9b           10a           10b
      8b 0.476839D+00
      9a-0.369145D-01  0.169339D+01
      9b-0.213849D+00 -0.267764D+00  0.354785D+00
     10a 0.267508D-01  0.218404D+00 -0.226489D+00  0.445096D+00
     10b-0.152215D+00  0.418966D+00  0.442921D+00 -0.344003D+00  0.119374D+01
 jaja lower-tri density matrix (imaginary):
                1a            1b            2a            2b            3a
      1a 0.000000D+00
      1b 0.547228D-03  0.000000D+00
      2a 0.533968D-01 -0.120183D-01  0.000000D+00
      2b-0.480831D-01 -0.946148D-01  0.145937D+00  0.000000D+00
      3a 0.491428D-01  0.129554D-01  0.148085D-01  0.745277D-01  0.000000D+00
      3b-0.140967D+00  0.313668D-01 -0.112363D+00 -0.450162D-01  0.234825D-01
      4a 0.195000D-01  0.151043D-01 -0.493001D-01  0.990069D-01 -0.365471D-01
      4b-0.515580D-01 -0.470315D-02  0.397477D-02  0.544256D-02  0.173783D-01
      5a-0.448225D-02  0.475206D-01  0.125303D-01 -0.635502D-01  0.240632D-01
      5b-0.568239D-01  0.154546D-01  0.201404D-01 -0.336055D-01 -0.995718D-01
      6a-0.371504D-01  0.445524D-01 -0.823565D-02  0.765411D-01 -0.196814D-01
      6b 0.393032D-02  0.256484D-01 -0.395077D-01 -0.414097D-01  0.361084D-01
      7a 0.212009D-01 -0.298623D-01  0.106148D-01 -0.928373D-01  0.567435D-01
      7b-0.147841D-01 -0.726844D-02  0.588913D-01  0.993158D-02 -0.959902D-01
      8a-0.169024D-01 -0.284816D-01  0.945372D-02 -0.321736D-01  0.341890D-01
      8b 0.943291D-01 -0.187974D-01  0.224852D-01  0.560141D-01 -0.846537D-02
      9a-0.676040D-02 -0.509731D-01  0.358848D-01 -0.540544D-01  0.163926D-02
      9b-0.116944D-01  0.264763D-01 -0.186961D-01 -0.244059D-01  0.289121D-01
     10a-0.173961D-01 -0.513145D-01  0.207262D-01  0.418992D-02 -0.350623D-01
     10b 0.802639D-01 -0.413182D-01 -0.220225D-01 -0.168537D-01  0.121307D+00
                3b            4a            4b            5a            5b
      3b 0.000000D+00
      4a 0.291839D-01  0.000000D+00
      4b 0.406180D-01 -0.634857D-01  0.000000D+00
      5a 0.703844D-01 -0.420937D-01 -0.238808D-03  0.000000D+00
      5b-0.125996D-01  0.446828D-01 -0.370677D-02 -0.229050D-01  0.000000D+00
      6a-0.344234D-01  0.539508D-01  0.117096D-01 -0.533991D-02 -0.372275D-01
      6b 0.355322D-02 -0.123393D+00  0.210980D-01  0.633964D-01 -0.276447D-01
      7a 0.995291D-02 -0.949828D-01 -0.764441D-02  0.568121D-01 -0.105539D-01
      7b-0.166027D-02  0.147467D+00 -0.115271D-01 -0.934668D-01  0.166869D-01
      8a-0.467422D-01  0.363435D-01 -0.100329D-01 -0.141119D-01 -0.458591D-01
      8b-0.825549D-01 -0.111233D+00  0.273314D-01  0.646133D-01 -0.328491D-02
      9a-0.730650D-01  0.161510D-01 -0.818402D-01 -0.147743D-01  0.651299D-01
      9b 0.672469D-01  0.552086D-01  0.360555D-02 -0.420994D-01 -0.340738D-01
     10a-0.734675D-01  0.214134D-01 -0.359746D-01 -0.390884D-01  0.597575D-01
     10b 0.948397D-02 -0.110323D-01 -0.792566D-02 -0.272549D-03  0.279320D-01
                6a            6b            7a            7b            8a
      6a 0.000000D+00
      6b-0.245804D-01  0.000000D+00
      7a-0.362554D-01  0.882127D-02  0.000000D+00
      7b 0.394715D-01 -0.120380D-01 -0.252136D-01  0.000000D+00
      8a 0.506846D-02 -0.158866D-01 -0.318848D-01  0.631248D-01  0.000000D+00
      8b-0.752722D-01  0.170192D-01  0.120695D-01  0.329608D-01  0.372128D-01
      9a 0.254425D-01  0.342551D-02 -0.518032D-01  0.523559D-01  0.143223D-01
      9b 0.111910D-01 -0.551910D-01 -0.257592D-03  0.116530D-01 -0.102754D+00
     10a-0.173860D-02  0.385052D-01  0.199366D-01  0.261290D-01  0.610925D-01
     10b-0.472830D-01  0.108326D-01 -0.563296D-01 -0.575916D-02 -0.153385D+00
                8b            9a            9b           10a           10b
      8b 0.000000D+00
      9a 0.895708D-01  0.000000D+00
      9b-0.436627D-01  0.110239D+00  0.000000D+00
     10a 0.344637D-01  0.491981D-01 -0.288858D-01  0.000000D+00
     10b 0.133647D-01 -0.163371D-01 -0.904120D-01  0.420086D-01  0.000000D+00
 jaja non-ortho density matrix               [Gau-style] (real):
                 1             2             3             4             5 
      1a  0.130271D+01 -0.212357D+00  0.403240D+00  0.423169D+00 -0.102033D+00
      1b -0.212357D+00  0.361462D+00 -0.204513D+00  0.263890D+00 -0.466851D-01
      2a  0.403240D+00 -0.204513D+00  0.488007D+00 -0.480335D+00 -0.257629D+00
      2b  0.423169D+00  0.263890D+00 -0.480335D+00  0.155903D+01  0.595471D-01
      3a -0.102033D+00 -0.466851D-01 -0.257629D+00  0.595471D-01  0.574160D+00
      3b -0.266832D-01  0.286856D+00  0.285308D+00 -0.589324D+00 -0.287060D+00
      4a  0.194644D+00  0.688149D-01  0.961380D-01  0.100270D+00  0.904580D-01
      4b  0.149161D+00  0.234405D+00 -0.101712D+00  0.396102D+00 -0.128372D+00
      5a -0.328883D+00  0.610413D-01 -0.137168D+00 -0.257111D+00  0.248684D+00
      5b -0.612449D-01 -0.216545D+00  0.185981D-01 -0.190479D+00  0.839928D-01
      6a -0.584372D+00  0.205436D+00 -0.259235D+00 -0.495722D-01  0.247169D+00
      6b -0.434446D-01 -0.180914D+00  0.101567D+00 -0.308551D+00 -0.341932D-01
      7a  0.472713D-01  0.276220D-02  0.921850D-01 -0.763276D-01 -0.181929D+00
      7b  0.407390D-01 -0.934601D-01 -0.816260D-01  0.159205D+00  0.134113D+00
      8a  0.134885D-01 -0.128125D+00  0.900716D-01  0.118365D+00 -0.369506D+00
      8b -0.152976D+00 -0.181550D+00 -0.147695D+00  0.408726D-01  0.245774D+00
      9a -0.786110D-01  0.162484D+00 -0.381089D-01 -0.760508D-01  0.615163D-01
      9b  0.104825D+00  0.684547D-01  0.109869D+00 -0.116526D-01 -0.140892D+00
     10a  0.135980D+00 -0.109947D+00  0.222655D-01  0.147649D+00 -0.127640D+00
     10b  0.448316D-01  0.144138D+00  0.950418D-01  0.103123D-01 -0.137072D+00
                 6             7             8             9            10 
      1a -0.266832D-01  0.194644D+00  0.149161D+00 -0.328883D+00 -0.612449D-01
      1b  0.286856D+00  0.688149D-01  0.234405D+00  0.610413D-01 -0.216545D+00
      2a  0.285308D+00  0.961380D-01 -0.101712D+00 -0.137168D+00  0.185981D-01
      2b -0.589324D+00  0.100270D+00  0.396102D+00 -0.257111D+00 -0.190479D+00
      3a -0.287060D+00  0.904580D-01 -0.128372D+00  0.248684D+00  0.839928D-01
      3b  0.116805D+01  0.156145D+00  0.244368D+00  0.114773D+00 -0.866941D-01
      4a  0.156145D+00  0.890492D+00 -0.121773D+00 -0.310039D+00 -0.183537D-01
      4b  0.244368D+00 -0.121773D+00  0.375756D+00  0.833113D-01 -0.218699D+00
      5a  0.114773D+00 -0.310039D+00  0.833113D-01  0.624831D+00 -0.131959D+00
      5b -0.866941D-01 -0.183537D-01 -0.218699D+00 -0.131959D+00  0.593043D+00
      6a  0.484429D-01  0.351671D+00 -0.113488D+00  0.211527D+00 -0.261738D-01
      6b  0.168468D+00 -0.866880D-01  0.248530D-01  0.118545D+00  0.257350D+00
      7a  0.122460D+00 -0.206298D+00  0.127247D+00  0.842485D-01 -0.135903D+00
      7b -0.445156D+00 -0.124795D+00 -0.208579D+00 -0.110389D+00  0.237783D+00
      8a -0.238891D+00 -0.457447D+00  0.625716D-01  0.186013D+00  0.446744D-01
      8b -0.387438D+00  0.719372D-01 -0.159111D+00 -0.247445D-01  0.253988D+00
      9a  0.148410D+00  0.187660D+00 -0.687510D-01 -0.295620D+00 -0.532810D-01
      9b  0.694040D-01 -0.742179D-01  0.698711D-01  0.948270D-01 -0.263644D+00
     10a -0.119853D+00 -0.958224D-01 -0.205368D-01 -0.200275D+00  0.269692D+00
     10b -0.457902D-01  0.167781D-01  0.524320D-01  0.327942D-01 -0.554158D+00
                11            12            13            14            15 
      1a -0.584372D+00 -0.434446D-01  0.472713D-01  0.407390D-01  0.134885D-01
      1b  0.205436D+00 -0.180914D+00  0.276220D-02 -0.934601D-01 -0.128125D+00
      2a -0.259235D+00  0.101567D+00  0.921850D-01 -0.816260D-01  0.900716D-01
      2b -0.495722D-01 -0.308551D+00 -0.763276D-01  0.159205D+00  0.118365D+00
      3a  0.247169D+00 -0.341932D-01 -0.181929D+00  0.134113D+00 -0.369506D+00
      3b  0.484429D-01  0.168468D+00  0.122460D+00 -0.445156D+00 -0.238891D+00
      4a  0.351671D+00 -0.866880D-01 -0.206298D+00 -0.124795D+00 -0.457447D+00
      4b -0.113488D+00  0.248530D-01  0.127247D+00 -0.208579D+00  0.625716D-01
      5a  0.211527D+00  0.118545D+00  0.842485D-01 -0.110389D+00  0.186013D+00
      5b -0.261738D-01  0.257350D+00 -0.135903D+00  0.237783D+00  0.446744D-01
      6a  0.664941D+00 -0.125799D+00 -0.219957D+00 -0.546327D-02 -0.114193D+00
      6b -0.125799D+00  0.586208D+00  0.101680D+00 -0.305716D+00  0.110939D+00
      7a -0.219957D+00  0.101680D+00  0.425010D+00 -0.168550D+00  0.254280D+00
      7b -0.546327D-02 -0.305716D+00 -0.168550D+00  0.762973D+00  0.154487D+00
      8a -0.114193D+00  0.110939D+00  0.254280D+00  0.154487D+00  0.124447D+01
      8b  0.509951D-01  0.265479D+00 -0.101097D+00  0.935994D-01 -0.132887D+00
      9a -0.959518D-01 -0.313216D+00  0.362485D+00  0.198617D+00 -0.628335D+00
      9b  0.109408D-02 -0.195245D+00 -0.431507D-01  0.106145D+00  0.215254D+00
     10a -0.202704D+00  0.104763D+00  0.190655D+00  0.572421D-01  0.288966D+00
     10b -0.201329D-01 -0.399797D+00  0.143987D+00  0.273906D+00  0.350745D-01
                16            17            18            19            20 
      1a -0.152976D+00 -0.786110D-01  0.104825D+00  0.135980D+00  0.448316D-01
      1b -0.181550D+00  0.162484D+00  0.684547D-01 -0.109947D+00  0.144138D+00
      2a -0.147695D+00 -0.381089D-01  0.109869D+00  0.222655D-01  0.950418D-01
      2b  0.408726D-01 -0.760508D-01 -0.116526D-01  0.147649D+00  0.103123D-01
      3a  0.245774D+00  0.615163D-01 -0.140892D+00 -0.127640D+00 -0.137072D+00
      3b -0.387438D+00  0.148410D+00  0.694040D-01 -0.119853D+00 -0.457902D-01
      4a  0.719372D-01  0.187660D+00 -0.742179D-01 -0.958224D-01  0.167781D-01
      4b -0.159111D+00 -0.687510D-01  0.698711D-01 -0.205368D-01  0.524320D-01
      5a -0.247445D-01 -0.295620D+00  0.948270D-01 -0.200275D+00  0.327942D-01
      5b  0.253988D+00 -0.532810D-01 -0.263644D+00  0.269692D+00 -0.554158D+00
      6a  0.509951D-01 -0.959518D-01  0.109408D-02 -0.202704D+00 -0.201329D-01
      6b  0.265479D+00 -0.313216D+00 -0.195245D+00  0.104763D+00 -0.399797D+00
      7a -0.101097D+00  0.362485D+00 -0.431507D-01  0.190655D+00  0.143987D+00
      7b  0.935994D-01  0.198617D+00  0.106145D+00  0.572421D-01  0.273906D+00
      8a -0.132887D+00 -0.628335D+00  0.215254D+00  0.288966D+00  0.350745D-01
      8b  0.476839D+00 -0.369145D-01 -0.213849D+00  0.267508D-01 -0.152215D+00
      9a -0.369145D-01  0.169339D+01 -0.267764D+00  0.218404D+00  0.418966D+00
      9b -0.213849D+00 -0.267764D+00  0.354785D+00 -0.226489D+00  0.442921D+00
     10a  0.267508D-01  0.218404D+00 -0.226489D+00  0.445096D+00 -0.344003D+00
     10b -0.152215D+00  0.418966D+00  0.442921D+00 -0.344003D+00  0.119374D+01
 jaja non-ortho density matrix               [Gau-style] (imaginary):
                 1             2             3             4             5 
      1a  0.000000D+00 -0.547228D-03 -0.533968D-01  0.480831D-01 -0.491428D-01
      1b  0.547228D-03  0.000000D+00  0.120183D-01  0.946148D-01 -0.129554D-01
      2a  0.533968D-01 -0.120183D-01  0.000000D+00 -0.145937D+00 -0.148085D-01
      2b -0.480831D-01 -0.946148D-01  0.145937D+00  0.000000D+00 -0.745277D-01
      3a  0.491428D-01  0.129554D-01  0.148085D-01  0.745277D-01  0.000000D+00
      3b -0.140967D+00  0.313668D-01 -0.112363D+00 -0.450162D-01  0.234825D-01
      4a  0.195000D-01  0.151043D-01 -0.493001D-01  0.990069D-01 -0.365471D-01
      4b -0.515580D-01 -0.470315D-02  0.397477D-02  0.544256D-02  0.173783D-01
      5a -0.448225D-02  0.475206D-01  0.125303D-01 -0.635502D-01  0.240632D-01
      5b -0.568239D-01  0.154546D-01  0.201404D-01 -0.336055D-01 -0.995718D-01
      6a -0.371504D-01  0.445524D-01 -0.823565D-02  0.765411D-01 -0.196814D-01
      6b  0.393032D-02  0.256484D-01 -0.395077D-01 -0.414097D-01  0.361084D-01
      7a  0.212009D-01 -0.298623D-01  0.106148D-01 -0.928373D-01  0.567435D-01
      7b -0.147841D-01 -0.726844D-02  0.588913D-01  0.993158D-02 -0.959902D-01
      8a -0.169024D-01 -0.284816D-01  0.945372D-02 -0.321736D-01  0.341890D-01
      8b  0.943291D-01 -0.187974D-01  0.224852D-01  0.560141D-01 -0.846537D-02
      9a -0.676040D-02 -0.509731D-01  0.358848D-01 -0.540544D-01  0.163926D-02
      9b -0.116944D-01  0.264763D-01 -0.186961D-01 -0.244059D-01  0.289121D-01
     10a -0.173961D-01 -0.513145D-01  0.207262D-01  0.418992D-02 -0.350623D-01
     10b  0.802639D-01 -0.413182D-01 -0.220225D-01 -0.168537D-01  0.121307D+00
                 6             7             8             9            10 
      1a  0.140967D+00 -0.195000D-01  0.515580D-01  0.448225D-02  0.568239D-01
      1b -0.313668D-01 -0.151043D-01  0.470315D-02 -0.475206D-01 -0.154546D-01
      2a  0.112363D+00  0.493001D-01 -0.397477D-02 -0.125303D-01 -0.201404D-01
      2b  0.450162D-01 -0.990069D-01 -0.544256D-02  0.635502D-01  0.336055D-01
      3a -0.234825D-01  0.365471D-01 -0.173783D-01 -0.240632D-01  0.995718D-01
      3b  0.000000D+00 -0.291839D-01 -0.406180D-01 -0.703844D-01  0.125996D-01
      4a  0.291839D-01  0.000000D+00  0.634857D-01  0.420937D-01 -0.446828D-01
      4b  0.406180D-01 -0.634857D-01  0.000000D+00  0.238808D-03  0.370677D-02
      5a  0.703844D-01 -0.420937D-01 -0.238808D-03  0.000000D+00  0.229050D-01
      5b -0.125996D-01  0.446828D-01 -0.370677D-02 -0.229050D-01  0.000000D+00
      6a -0.344234D-01  0.539508D-01  0.117096D-01 -0.533991D-02 -0.372275D-01
      6b  0.355322D-02 -0.123393D+00  0.210980D-01  0.633964D-01 -0.276447D-01
      7a  0.995291D-02 -0.949828D-01 -0.764441D-02  0.568121D-01 -0.105539D-01
      7b -0.166027D-02  0.147467D+00 -0.115271D-01 -0.934668D-01  0.166869D-01
      8a -0.467422D-01  0.363435D-01 -0.100329D-01 -0.141119D-01 -0.458591D-01
      8b -0.825549D-01 -0.111233D+00  0.273314D-01  0.646133D-01 -0.328491D-02
      9a -0.730650D-01  0.161510D-01 -0.818402D-01 -0.147743D-01  0.651299D-01
      9b  0.672469D-01  0.552086D-01  0.360555D-02 -0.420994D-01 -0.340738D-01
     10a -0.734675D-01  0.214134D-01 -0.359746D-01 -0.390884D-01  0.597575D-01
     10b  0.948397D-02 -0.110323D-01 -0.792566D-02 -0.272549D-03  0.279320D-01
                11            12            13            14            15 
      1a  0.371504D-01 -0.393032D-02 -0.212009D-01  0.147841D-01  0.169024D-01
      1b -0.445524D-01 -0.256484D-01  0.298623D-01  0.726844D-02  0.284816D-01
      2a  0.823565D-02  0.395077D-01 -0.106148D-01 -0.588913D-01 -0.945372D-02
      2b -0.765411D-01  0.414097D-01  0.928373D-01 -0.993158D-02  0.321736D-01
      3a  0.196814D-01 -0.361084D-01 -0.567435D-01  0.959902D-01 -0.341890D-01
      3b  0.344234D-01 -0.355322D-02 -0.995291D-02  0.166027D-02  0.467422D-01
      4a -0.539508D-01  0.123393D+00  0.949828D-01 -0.147467D+00 -0.363435D-01
      4b -0.117096D-01 -0.210980D-01  0.764441D-02  0.115271D-01  0.100329D-01
      5a  0.533991D-02 -0.633964D-01 -0.568121D-01  0.934668D-01  0.141119D-01
      5b  0.372275D-01  0.276447D-01  0.105539D-01 -0.166869D-01  0.458591D-01
      6a  0.000000D+00  0.245804D-01  0.362554D-01 -0.394715D-01 -0.506846D-02
      6b -0.245804D-01  0.000000D+00 -0.882127D-02  0.120380D-01  0.158866D-01
      7a -0.362554D-01  0.882127D-02  0.000000D+00  0.252136D-01  0.318848D-01
      7b  0.394715D-01 -0.120380D-01 -0.252136D-01  0.000000D+00 -0.631248D-01
      8a  0.506846D-02 -0.158866D-01 -0.318848D-01  0.631248D-01  0.000000D+00
      8b -0.752722D-01  0.170192D-01  0.120695D-01  0.329608D-01  0.372128D-01
      9a  0.254425D-01  0.342551D-02 -0.518032D-01  0.523559D-01  0.143223D-01
      9b  0.111910D-01 -0.551910D-01 -0.257592D-03  0.116530D-01 -0.102754D+00
     10a -0.173860D-02  0.385052D-01  0.199366D-01  0.261290D-01  0.610925D-01
     10b -0.472830D-01  0.108326D-01 -0.563296D-01 -0.575916D-02 -0.153385D+00
                16            17            18            19            20 
      1a -0.943291D-01  0.676040D-02  0.116944D-01  0.173961D-01 -0.802639D-01
      1b  0.187974D-01  0.509731D-01 -0.264763D-01  0.513145D-01  0.413182D-01
      2a -0.224852D-01 -0.358848D-01  0.186961D-01 -0.207262D-01  0.220225D-01
      2b -0.560141D-01  0.540544D-01  0.244059D-01 -0.418992D-02  0.168537D-01
      3a  0.846537D-02 -0.163926D-02 -0.289121D-01  0.350623D-01 -0.121307D+00
      3b  0.825549D-01  0.730650D-01 -0.672469D-01  0.734675D-01 -0.948397D-02
      4a  0.111233D+00 -0.161510D-01 -0.552086D-01 -0.214134D-01  0.110323D-01
      4b -0.273314D-01  0.818402D-01 -0.360555D-02  0.359746D-01  0.792566D-02
      5a -0.646133D-01  0.147743D-01  0.420994D-01  0.390884D-01  0.272549D-03
      5b  0.328491D-02 -0.651299D-01  0.340738D-01 -0.597575D-01 -0.279320D-01
      6a  0.752722D-01 -0.254425D-01 -0.111910D-01  0.173860D-02  0.472830D-01
      6b -0.170192D-01 -0.342551D-02  0.551910D-01 -0.385052D-01 -0.108326D-01
      7a -0.120695D-01  0.518032D-01  0.257592D-03 -0.199366D-01  0.563296D-01
      7b -0.329608D-01 -0.523559D-01 -0.116530D-01 -0.261290D-01  0.575916D-02
      8a -0.372128D-01 -0.143223D-01  0.102754D+00 -0.610925D-01  0.153385D+00
      8b  0.000000D+00 -0.895708D-01  0.436627D-01 -0.344637D-01 -0.133647D-01
      9a  0.895708D-01  0.000000D+00 -0.110239D+00 -0.491981D-01  0.163371D-01
      9b -0.436627D-01  0.110239D+00  0.000000D+00  0.288858D-01  0.904120D-01
     10a  0.344637D-01  0.491981D-01 -0.288858D-01  0.000000D+00 -0.420086D-01
     10b  0.133647D-01 -0.163371D-01 -0.904120D-01  0.420086D-01  0.000000D+00
FORTRAN STOP
