 Entering Gaussian System, Link 0=gdv
 AtFile(1): H.gbs
            H     0
            S   10   1.00
               1000.000000000000            0.000068713567
                316.227766000000            0.000169141320
                100.000000000000            0.000823394812
                 31.622776600000            0.003425569236
                 10.000000000000            0.013951996000
                  3.162277660000            0.056909313560
                  1.000000000000            0.198286399900
                  0.316227766000            0.496922426700
                  0.100000000000            0.369846276400
                  0.031622776600            0.003752720039
            ****
 Initial command:
 /users/lcj1/GHF_hess/exe-dir/l1.exe "/users/lcj1/GHF_hess/h10_2rows/mixrmY/Gau-10456.inp" -scrdir="/users/lcj1/GHF_hess/h10_2rows/mixrmY/"
 Entering Link 1 = /users/lcj1/GHF_hess/exe-dir/l1.exe PID=     10457.
  
 Copyright (c) 1988,1990,1992,1993,1995,1998,2003,2009,2012,
            Gaussian, Inc.  All Rights Reserved.
  
 This is the private, development version of
 the Gaussian(R) DV system of programs. It is based on
 the Gaussian(R) 09 system (copyright 2009, Gaussian, Inc.),
 the Gaussian(R) 03 system (copyright 2003, Gaussian, Inc.),
 the Gaussian(R) 98 system (copyright 1998, Gaussian, Inc.),
 the Gaussian(R) 94 system (copyright 1995, Gaussian, Inc.),
 the Gaussian 92(TM) system (copyright 1992, Gaussian, Inc.),
 the Gaussian 90(TM) system (copyright 1990, Gaussian, Inc.),
 the Gaussian 88(TM) system (copyright 1988, Gaussian, Inc.),
 the Gaussian 86(TM) system (copyright 1986, Carnegie Mellon
 University), and the Gaussian 82(TM) system (copyright 1983,
 Carnegie Mellon University). Gaussian is a federally registered
 trademark of Gaussian, Inc.
  
 This software contains proprietary and confidential information,
 including trade secrets, belonging to Gaussian, Inc.
  
 This software is provided under written license and may be
 used, copied, transmitted, or stored only in accord with that
 written license.
  
 The following legend is applicable only to US Government
 contracts under FAR:
  
                    RESTRICTED RIGHTS LEGEND
  
 Use, reproduction and disclosure by the US Government is
 subject to restrictions as set forth in subparagraphs (a)
 and (c) of the Commercial Computer Software - Restricted
 Rights clause in FAR 52.227-19.
  
 Gaussian, Inc.
 340 Quinnipiac St., Bldg. 40, Wallingford CT 06492
  
  
 ---------------------------------------------------------------
 Warning -- This program may not be used in any manner that
 competes with the business of Gaussian, Inc. or will provide
 assistance to any competitor of Gaussian, Inc.  The licensee
 of this program is prohibited from giving any competitor of
 Gaussian, Inc. access to this program.  By using this program,
 the user acknowledges that Gaussian, Inc. is engaged in the
 business of creating and licensing software in the field of
 computational chemistry and represents and warrants to the
 licensee that it is not a competitor of Gaussian, Inc. and that
 it will not use this program in any manner prohibited above.
 ---------------------------------------------------------------
  

 Cite this work as:
 Gaussian Development Version, Revision H.21,
 M. J. Frisch, G. W. Trucks, H. B. Schlegel, G. E. Scuseria, 
 M. A. Robb, J. R. Cheeseman, G. Scalmani, V. Barone, B. Mennucci, 
 G. A. Petersson, H. Nakatsuji, M. Caricato, X. Li, H. P. Hratchian, 
 A. F. Izmaylov, J. Bloino, G. Zheng, J. L. Sonnenberg, W. Liang, 
 M. Hada, M. Ehara, K. Toyota, R. Fukuda, J. Hasegawa, M. Ishida, 
 T. Nakajima, Y. Honda, O. Kitao, H. Nakai, T. Vreven, 
 J. A. Montgomery, Jr., J. E. Peralta, F. Ogliaro, M. Bearpark, 
 J. J. Heyd, E. Brothers, K. N. Kudin, V. N. Staroverov, T. Keith, 
 R. Kobayashi, J. Normand, K. Raghavachari, A. Rendell, J. C. Burant, 
 S. S. Iyengar, J. Tomasi, M. Cossi, N. Rega, J. M. Millam, M. Klene, 
 J. E. Knox, J. B. Cross, V. Bakken, C. Adamo, J. Jaramillo, 
 R. Gomperts, R. E. Stratmann, O. Yazyev, A. J. Austin, R. Cammi, 
 C. Pomelli, J. W. Ochterski, R. L. Martin, K. Morokuma, 
 V. G. Zakrzewski, G. A. Voth, P. Salvador, J. J. Dannenberg, 
 S. Dapprich, P. V. Parandekar, N. J. Mayhall, A. D. Daniels, 
 O. Farkas, J. B. Foresman, J. V. Ortiz, J. Cioslowski, 
 and D. J. Fox, Gaussian, Inc., Wallingford CT, 2010.
 
 ******************************************
 Gaussian DV:  EM64L-GDVRevH.21 13-May-2012
                28-Feb-2017 
 ******************************************
 %chk=h10.chk
 ----------------------------------------------------------------------
 #ghf/gen scf(tight,novaracc,noincfock,fulldiag) stable guess=mix geom=
 nocrowd use=l802 use=l902 test
 ----------------------------------------------------------------------
 ********************************************
   THE COMPLEX ERI TRANSFORMATION WITH L802  
        COMPLEX STABILITY WITH L902          
 ********************************************
 1/38=1/1;
 2/12=1,17=6,18=5,40=1/2;
 3/5=7,16=1,25=20,28=1,116=7/1,2,3,20;
 4/13=-1/1;
 5/5=100001,16=1,32=2,38=1/2;
 8/6=1,10=90,11=11/1,2;
 9/8=4,13=1/1,2;
 6/7=2,8=2,9=2,10=2,28=1/1;
 99/5=1,9=1/99;
 ----------------------------------------------------------------------
 hf stability analysis of h10 triangular lattice, y= 0.2303281107335596
 6 alpha= 5.2500000000000000
 ----------------------------------------------------------------------
 Symbolic Z-Matrix:
 Charge =  0 Multiplicity = 1
 H
 H                    1     2.5172 
 H                    1     2.5172   2     169.5 
 H                    2     2.5172   1     10.5     3     0.       0
 H                    3     2.5172   1     180.     2     0.       0
 H                    4     2.5172   2     180.     1     0.       0
 H                    5     2.5172   3     180.     2     0.       0
 H                    6     2.5172   4     180.     1     0.       0
 H                    7     2.5172   5     180.     2     0.       0
 H                    8     2.5172   6     180.     1     0.       0
 
                          Input orientation:                          
 ---------------------------------------------------------------------
 Center     Atomic      Atomic             Coordinates (Angstroms)
 Number     Number       Type             X           Y           Z
 ---------------------------------------------------------------------
      1          1           0        0.000000    0.000000    0.000000
      2          1           0        0.000000    0.000000    2.517203
      3          1           0        0.458724    0.000000   -2.475052
      4          1           0        0.458724    0.000000    0.042151
      5          1           0        0.917447    0.000000   -4.950103
      6          1           0        0.917447    0.000000   -2.432901
      7          1           0        1.376171    0.000000   -7.425155
      8          1           0        1.376171    0.000000   -4.907953
      9          1           0        1.834895    0.000000   -9.900207
     10          1           0        1.834895    0.000000   -7.383004
 ---------------------------------------------------------------------
                    Distance matrix (angstroms):
                    1          2          3          4          5
     1  H    0.000000
     2  H    2.517203   0.000000
     3  H    2.517203   5.013285   0.000000
     4  H    0.460656   2.517203   2.517203   0.000000
     5  H    5.034405   7.523455   2.517203   5.013285   0.000000
     6  H    2.600138   5.034405   0.460656   2.517203   2.517203
     7  H    7.551608  10.037147   5.034405   7.523455   2.517203
     8  H    5.097239   7.551608   2.600138   5.034405   0.460656
     9  H   10.068810  12.552247   7.551608  10.037147   5.034405
    10  H    7.607601  10.068810   5.097239   7.551608   2.600138
                    6          7          8          9         10
     6  H    0.000000
     7  H    5.013285   0.000000
     8  H    2.517203   2.517203   0.000000
     9  H    7.523455   2.517203   5.013285   0.000000
    10  H    5.034405   0.460656   2.517203   2.517203   0.000000
 Stoichiometry    H10
 Framework group  C2H[SGH(H10)]
 Deg. of freedom     9
 Full point group                 C2H     NOp   4
 Largest Abelian subgroup         C2H     NOp   4
 Largest concise Abelian subgroup C2      NOp   2
                         Standard orientation:                         
 ---------------------------------------------------------------------
 Center     Atomic      Atomic             Coordinates (Angstroms)
 Number     Number       Type             X           Y           Z
 ---------------------------------------------------------------------
      1          1           0        0.917447   -3.691502    0.000000
      2          1           0        0.917447   -6.208705    0.000000
      3          1           0        0.458724   -1.216450    0.000000
      4          1           0        0.458724   -3.733653    0.000000
      5          1           0        0.000000    1.258601    0.000000
      6          1           0        0.000000   -1.258601    0.000000
      7          1           0       -0.458724    3.733653    0.000000
      8          1           0       -0.458724    1.216450    0.000000
      9          1           0       -0.917447    6.208705    0.000000
     10          1           0       -0.917447    3.691502    0.000000
 ---------------------------------------------------------------------
 Rotational constants (GHZ):   1068.8349189      3.5289440      3.5173309
 General basis read from cards:  (5D, 7F)
 There are     5 symmetry adapted cartesian basis functions of AG  symmetry.
 There are     0 symmetry adapted cartesian basis functions of BG  symmetry.
 There are     0 symmetry adapted cartesian basis functions of AU  symmetry.
 There are     5 symmetry adapted cartesian basis functions of BU  symmetry.
 There are     5 symmetry adapted basis functions of AG  symmetry.
 There are     0 symmetry adapted basis functions of BG  symmetry.
 There are     0 symmetry adapted basis functions of AU  symmetry.
 There are     5 symmetry adapted basis functions of BU  symmetry.
    10 basis functions,   100 primitive gaussians,    10 cartesian basis functions
     5 alpha electrons        5 beta electrons
       nuclear repulsion energy        10.0125678038 Hartrees.
 NAtoms=   10 NActive=   10 NUniq=    5 SFac= 4.00D+00 NAtFMM=   60 NAOKFM=F Big=F
 Integral buffers will be    131072 words long.
 Regular integral format.
 Two-electron integral symmetry is turned off.
 One-electron integrals computed using PRISM.
 NBasis=    10 RedAO= T EigKep=  1.01D-01  NBF=     5     0     0     5
 NBsUse=    10 1.00D-06 EigRej= -1.00D+00 NBFU=     5     0     0     5
 IOp(28)                       1
                        1                       0
                        2                       1
                        3                       1
                        4                      20
                        5                       0
                        6                       0
                        7                      10
                        8                       1
                        9                       4
                       10                       0
                       11              1073741824
                       12                      20
                       13                       2
                       14                  131070
                       15                       1
                       16                       1
                       17                  131073
                       18                       0
                       19                       0
                       20                       0
                       21                       2
                       22                  131070
                       23                       0
                       24                       0
                       25                       0
                       26                       0
                       27                   65535
                       28                       2
                       29                  131072
                       30                       0
 IHMeth                       1
 ib3: ISMode =                        0                       4
 Enter DskPsm, NBasis=  10 NBas6D=  10 NShell=  10 IDoSP=4.
 Out2e will use a cutoff of  1.00D-10
 FoFCou: FMM=F IPFlag=           0 FMFlag=           0 FMFlg1=           0
         NFxFlg=           0 DoJE=F BraDBF=F KetDBF=F FulRan=T
         wScrn=  0.000000 ICntrl=     600 IOpCl=  9 I1Cent=           0 NGrid=           0
         NMat0=    0 NMatS0=      0 NMatT0=    0 NMatD0=    0 NMtDS0=    0 NMtDT0=    0
 Symmetry not used in FoFCou.
 Entering PrmDigJobTyp =                      20
 LenSav and NKeep                       0                       0
 Entered Stor2E with KNTT1,2                       2                  131070
 Leave Stor2X
 Entering PrmDigJobTyp =                      20
 LenSav and NKeep                       0                       0
 Entered Stor2E with KNTT1,2                       2                  131056
 Leave Stor2X
 Entering PrmDigJobTyp =                      20
 LenSav and NKeep                       0                       0
 Entered Stor2E with KNTT1,2                       2                  131042
 Leave Stor2X
 Entering PrmDigJobTyp =                      20
 LenSav and NKeep                       0                       0
 Entered Stor2E with KNTT1,2                       2                  131028
 Leave Stor2X
 Entering PrmDigJobTyp =                      20
 LenSav and NKeep                       0                       0
 Entered Stor2E with KNTT1,2                       2                  131014
 Leave Stor2X
 Entering PrmDigJobTyp =                      20
 LenSav and NKeep                       0                       0
 Entered Stor2E with KNTT1,2                       2                  131000
 Leave Stor2X
 Entering PrmDigJobTyp =                      20
 LenSav and NKeep                       0                       0
 Entered Stor2E with KNTT1,2                       2                  130986
 Leave Stor2X
 Entering PrmDigJobTyp =                      20
 LenSav and NKeep                       0                       0
 Entered Stor2E with KNTT1,2                       2                  130972
 Leave Stor2X
 Entering PrmDigJobTyp =                      20
 LenSav and NKeep                       0                       0
 Entered Stor2E with KNTT1,2                       2                  130960
 Leave Stor2X
 Entering PrmDigJobTyp =                      20
 LenSav and NKeep                       0                       0
 Entered Stor2E with KNTT1,2                       2                  130940
 Leave Stor2X
 Entering PrmDigJobTyp =                      20
 LenSav and NKeep                       0                       0
 Entered Stor2E with KNTT1,2                       2                  130920
 Leave Stor2X
 Entering PrmDigJobTyp =                      20
 LenSav and NKeep                       0                       0
 Entered Stor2E with KNTT1,2                       2                  130900
 Leave Stor2X
 Entering PrmDigJobTyp =                      20
 LenSav and NKeep                       0                       0
 Entered Stor2E with KNTT1,2                       2                  130880
 Leave Stor2X
 Entering PrmDigJobTyp =                      20
 LenSav and NKeep                       0                       0
 Entered Stor2E with KNTT1,2                       2                  130860
 Leave Stor2X
 Entering PrmDigJobTyp =                      20
 LenSav and NKeep                       0                       0
 Entered Stor2E with KNTT1,2                       2                  130840
 Leave Stor2X
 Entering PrmDigJobTyp =                      20
 LenSav and NKeep                       0                       0
 Entered Stor2E with KNTT1,2                       2                  130820
 Leave Stor2X
 Entering PrmDigJobTyp =                      20
 LenSav and NKeep                       0                       0
 Entered Stor2E with KNTT1,2                       2                  130800
 Leave Stor2X
 Entering PrmDigJobTyp =                      20
 LenSav and NKeep                       0                       0
 Entered Stor2E with KNTT1,2                       2                  130780
 Leave Stor2X
 Entering PrmDigJobTyp =                      20
 LenSav and NKeep                       0                       0
 Entered Stor2E with KNTT1,2                       2                  130760
 Leave Stor2X
 Entering PrmDigJobTyp =                      20
 LenSav and NKeep                       0                       0
 Entered Stor2E with KNTT1,2                       2                  130740
 Leave Stor2X
 Entering PrmDigJobTyp =                      20
 LenSav and NKeep                       0                       0
 Entered Stor2E with KNTT1,2                       2                  130720
 Leave Stor2X
 Entering PrmDigJobTyp =                      20
 LenSav and NKeep                       0                       0
 Entered Stor2E with KNTT1,2                       2                  130700
 Leave Stor2X
 Entering PrmDigJobTyp =                      20
 LenSav and NKeep                       0                       0
 Entered Stor2E with KNTT1,2                       2                  130680
 Leave Stor2X
 Entering PrmDigJobTyp =                      20
 LenSav and NKeep                       0                       0
 Entered Stor2E with KNTT1,2                       2                  130660
 Leave Stor2X
 Entering PrmDigJobTyp =                      20
 LenSav and NKeep                       0                       0
 Entered Stor2E with KNTT1,2                       2                  130640
 Leave Stor2X
 Entering PrmDigJobTyp =                      20
 LenSav and NKeep                       0                       0
 Entered Stor2E with KNTT1,2                      10                  130614
 Leave Stor2X
 Entering PrmDigJobTyp =                      20
 LenSav and NKeep                       0                       0
 Entered Stor2E with KNTT1,2                      30                  130600
 Leave Stor2X
 Entering PrmDigJobTyp =                      20
 LenSav and NKeep                       0                       0
 Entered Stor2E with KNTT1,2                      48                  130584
 Leave Stor2X
 Entering PrmDigJobTyp =                      20
 LenSav and NKeep                       0                       0
 Entered Stor2E with KNTT1,2                      70                  130572
 Leave Stor2X
 Entering PrmDigJobTyp =                      20
 LenSav and NKeep                       0                       0
 Entered Stor2E with KNTT1,2                      96                  130564
 Leave Stor2X
 Entering PrmDigJobTyp =                      20
 LenSav and NKeep                       0                       0
 Entered Stor2E with KNTT1,2                     118                  130552
 Leave Stor2X
 Entering PrmDigJobTyp =                      20
 LenSav and NKeep                       0                       0
 Entered Stor2E with KNTT1,2                     142                  130542
 Leave Stor2X
 Entering PrmDigJobTyp =                      20
 LenSav and NKeep                       0                       0
 Entered Stor2E with KNTT1,2                     166                  130532
 Leave Stor2X
 Entering PrmDigJobTyp =                      20
 LenSav and NKeep                       0                       0
 Entered Stor2E with KNTT1,2                     166                  130504
 Leave Stor2X
 Entering PrmDigJobTyp =                      20
 LenSav and NKeep                       0                       0
 Entered Stor2E with KNTT1,2                     166                  130476
 Leave Stor2X
 Entering PrmDigJobTyp =                      20
 LenSav and NKeep                       0                       0
 Entered Stor2E with KNTT1,2                     166                  130448
 Leave Stor2X
 Entering PrmDigJobTyp =                      20
 LenSav and NKeep                       0                       0
 Entered Stor2E with KNTT1,2                     166                  130420
 Leave Stor2X
 Entering PrmDigJobTyp =                      20
 LenSav and NKeep                       0                       0
 Entered Stor2E with KNTT1,2                     166                  130392
 Leave Stor2X
 Entering PrmDigJobTyp =                      20
 LenSav and NKeep                       0                       0
 Entered Stor2E with KNTT1,2                     166                  130364
 Leave Stor2X
 Entering PrmDigJobTyp =                      20
 LenSav and NKeep                       0                       0
 Entered Stor2E with KNTT1,2                     166                  130336
 Leave Stor2X
 Entering PrmDigJobTyp =                      20
 LenSav and NKeep                       0                       0
 Entered Stor2E with KNTT1,2                     166                  130308
 Leave Stor2X
 Entering PrmDigJobTyp =                      20
 LenSav and NKeep                       0                       0
 Entered Stor2E with KNTT1,2                     166                  130292
 Leave Stor2X
 Entering PrmDigJobTyp =                      20
 LenSav and NKeep                       0                       0
 Entered Stor2E with KNTT1,2                     192                  130270
 Leave Stor2X
 Entering PrmDigJobTyp =                      20
 LenSav and NKeep                       0                       0
 Entered Stor2E with KNTT1,2                     222                  130252
 Leave Stor2X
 Entering PrmDigJobTyp =                      20
 LenSav and NKeep                       0                       0
 Entered Stor2E with KNTT1,2                     252                  130234
 Leave Stor2X
 Entering PrmDigJobTyp =                      20
 LenSav and NKeep                       0                       0
 Entered Stor2E with KNTT1,2                     278                  130212
 Leave Stor2X
 Entering PrmDigJobTyp =                      20
 LenSav and NKeep                       0                       0
 Entered Stor2E with KNTT1,2                     306                  130192
 Leave Stor2X
 Entering PrmDigJobTyp =                      20
 LenSav and NKeep                       0                       0
 Entered Stor2E with KNTT1,2                     334                  130172
 Leave Stor2X
 Entering PrmDigJobTyp =                      20
 LenSav and NKeep                       0                       0
 Entered Stor2E with KNTT1,2                     364                  130154
 Leave Stor2X
 Entering PrmDigJobTyp =                      20
 LenSav and NKeep                       0                       0
 Entered Stor2E with KNTT1,2                     390                  130132
 Leave Stor2X
 Entering PrmDigJobTyp =                      20
 LenSav and NKeep                       0                       0
 Entered Stor2E with KNTT1,2                     430                  130104
 Leave Stor2X
 Entering PrmDigJobTyp =                      20
 LenSav and NKeep                       0                       0
 Entered Stor2E with KNTT1,2                     474                  130080
 Leave Stor2X
 Entering PrmDigJobTyp =                      20
 LenSav and NKeep                       0                       0
 Entered Stor2E with KNTT1,2                     486                  130072
 Leave Stor2X
 Entering PrmDigJobTyp =                      20
 LenSav and NKeep                       0                       0
 Entered Stor2E with KNTT1,2                     486                  130058
 Leave Stor2X
 Entering PrmDigJobTyp =                      20
 LenSav and NKeep                       0                       0
 Entered Stor2E with KNTT1,2                     486                  130044
 Leave Stor2X
 Entering PrmDigJobTyp =                      20
 LenSav and NKeep                       0                       0
 Entered Stor2E with KNTT1,2                     486                  130030
 Leave Stor2X
 Entering PrmDigJobTyp =                      20
 LenSav and NKeep                       0                       0
 Entered Stor2E with KNTT1,2                     486                  130016
 Leave Stor2X
 Entering PrmDigJobTyp =                      20
 LenSav and NKeep                       0                       0
 Entered Stor2E with KNTT1,2                     486                  130002
 Leave Stor2X
 Entering PrmDigJobTyp =                      20
 LenSav and NKeep                       0                       0
 Entered Stor2E with KNTT1,2                     486                  129992
 Leave Stor2X
 Entering PrmDigJobTyp =                      20
 LenSav and NKeep                       0                       0
 Entered Stor2E with KNTT1,2                     496                  129980
 Leave Stor2X
 Entering PrmDigJobTyp =                      20
 LenSav and NKeep                       0                       0
 Entered Stor2E with KNTT1,2                     510                  129972
 Leave Stor2X
 Entering PrmDigJobTyp =                      20
 LenSav and NKeep                       0                       0
 Entered Stor2E with KNTT1,2                     524                  129964
 Leave Stor2X
 Entering PrmDigJobTyp =                      20
 LenSav and NKeep                       0                       0
 Entered Stor2E with KNTT1,2                     534                  129952
 Leave Stor2X
 Entering PrmDigJobTyp =                      20
 LenSav and NKeep                       0                       0
 Entered Stor2E with KNTT1,2                     552                  129948
 Leave Stor2X
 Entering PrmDigJobTyp =                      20
 LenSav and NKeep                       0                       0
 Entered Stor2E with KNTT1,2                     558                  129936
 Leave Stor2X
 Entering PrmDigJobTyp =                      20
 LenSav and NKeep                       0                       0
 Entered Stor2E with KNTT1,2                     578                  129924
 Leave Stor2X
 Entering PrmDigJobTyp =                      20
 LenSav and NKeep                       0                       0
 Entered Stor2E with KNTT1,2                     594                  129908
 Leave Stor2X
 Entering PrmDigJobTyp =                      20
 LenSav and NKeep                       0                       0
 Entered Stor2E with KNTT1,2                     614                  129896
 Leave Stor2X
 Entering PrmDigJobTyp =                      20
 LenSav and NKeep                       0                       0
 Entered Stor2E with KNTT1,2                     622                  129890
 Leave Stor2X
 Entering PrmDigJobTyp =                      20
 LenSav and NKeep                       0                       0
 Entered Stor2E with KNTT1,2                     626                  129888
 Leave Stor2X
 Entering PrmDigJobTyp =                      20
 LenSav and NKeep                       0                       0
 Entered Stor2E with KNTT1,2                     626                  129852
 Leave Stor2X
 Entering PrmDigJobTyp =                      20
 LenSav and NKeep                       0                       0
 Entered Stor2E with KNTT1,2                     626                  129816
 Leave Stor2X
 Entering PrmDigJobTyp =                      20
 LenSav and NKeep                       0                       0
 Entered Stor2E with KNTT1,2                     626                  129780
 Leave Stor2X
 Entering PrmDigJobTyp =                      20
 LenSav and NKeep                       0                       0
 Entered Stor2E with KNTT1,2                     626                  129744
 Leave Stor2X
 Entering PrmDigJobTyp =                      20
 LenSav and NKeep                       0                       0
 Entered Stor2E with KNTT1,2                     626                  129728
 Leave Stor2X
 Entering PrmDigJobTyp =                      20
 LenSav and NKeep                       0                       0
 Entered Stor2E with KNTT1,2                     664                  129704
 Leave Stor2X
 Entering PrmDigJobTyp =                      20
 LenSav and NKeep                       0                       0
 Entered Stor2E with KNTT1,2                     704                  129682
 Leave Stor2X
 Entering PrmDigJobTyp =                      20
 LenSav and NKeep                       0                       0
 Entered Stor2E with KNTT1,2                     742                  129658
 Leave Stor2X
 Entering PrmDigJobTyp =                      20
 LenSav and NKeep                       0                       0
 Entered Stor2E with KNTT1,2                     784                  129638
 Leave Stor2X
 Entering PrmDigJobTyp =                      20
 LenSav and NKeep                       0                       0
 Entered Stor2E with KNTT1,2                     786                  129632
 Leave Stor2X
 Entering PrmDigJobTyp =                      20
 LenSav and NKeep                       0                       0
 Entered Stor2E with KNTT1,2                     840                  129598
 Leave Stor2X
 Entering PrmDigJobTyp =                      20
 LenSav and NKeep                       0                       0
 Entered Stor2E with KNTT1,2                     896                  129566
 Leave Stor2X
 Entering PrmDigJobTyp =                      20
 LenSav and NKeep                       0                       0
 Entered Stor2E with KNTT1,2                     906                  129560
 Leave Stor2X
 Entering PrmDigJobTyp =                      20
 LenSav and NKeep                       0                       0
 Entered Stor2E with KNTT1,2                     932                  129546
 Leave Stor2X
 Entering PrmDigJobTyp =                      20
 LenSav and NKeep                       0                       0
 Entered Stor2E with KNTT1,2                     946                  129536
 Leave Stor2X
 Entering PrmDigJobTyp =                      20
 LenSav and NKeep                       0                       0
 Entered Stor2E with KNTT1,2                     950                  129526
 Leave Stor2X
 Entering PrmDigJobTyp =                      20
 LenSav and NKeep                       0                       0
 Entered Stor2E with KNTT1,2                     962                  129524
 Leave Stor2X
 Entering PrmDigJobTyp =                      20
 LenSav and NKeep                       0                       0
 Entered Stor2E with KNTT1,2                     970                  129518
 Leave Stor2X
 Entering PrmDigJobTyp =                      20
 LenSav and NKeep                       0                       0
 Entered Stor2E with KNTT1,2                     980                  129514
 Leave Stor2X
 Entering PrmDigJobTyp =                      20
 LenSav and NKeep                       0                       0
 Entered Stor2E with KNTT1,2                     990                  129510
 Leave Stor2X
 Entering PrmDigJobTyp =                      20
 LenSav and NKeep                       0                       0
 Entered Stor2E with KNTT1,2                     990                  129508
 Leave Stor2X
 Entering PrmDigJobTyp =                      20
 LenSav and NKeep                       0                       0
 Entered Stor2E with KNTT1,2                     990                  129456
 Leave Stor2X
 Entering PrmDigJobTyp =                      20
 LenSav and NKeep                       0                       0
 Entered Stor2E with KNTT1,2                     990                  129428
 Leave Stor2X
 Entering PrmDigJobTyp =                      20
 LenSav and NKeep                       0                       0
 Entered Stor2E with KNTT1,2                    1052                  129400
 Leave Stor2X
 Entering PrmDigJobTyp =                      20
 LenSav and NKeep                       0                       0
 Entered Stor2E with KNTT1,2                    1078                  129388
 Leave Stor2X
 Entering PrmDigJobTyp =                      20
 LenSav and NKeep                       0                       0
 Entered Stor2E with KNTT1,2                    1086                  129380
 Leave Stor2X
 Entering PrmDigJobTyp =                      20
 LenSav and NKeep                       0                       0
 Entered Stor2E with KNTT1,2                    1100                  129378
 Leave Stor2X
 Entering PrmDigJobTyp =                      20
 LenSav and NKeep                       0                       0
 Entered Stor2E with KNTT1,2                    1110                  129372
 Leave Stor2X
 Entering PrmDigJobTyp =                      20
 LenSav and NKeep                       0                       0
 Entered Stor2E with KNTT1,2                    1122                  129368
 Leave Stor2X
 Entering PrmDigJobTyp =                      20
 LenSav and NKeep                       0                       0
 Entered Stor2E with KNTT1,2                    1130                  129360
 Leave Stor2X
 Entering PrmDigJobTyp =                      20
 LenSav and NKeep                       0                       0
 Entered Stor2E with KNTT1,2                    1142                  129356
 Leave Stor2X
 Entering PrmDigJobTyp =                      20
 LenSav and NKeep                       0                       0
 Entered Stor2E with KNTT1,2                    1166                  129348
 Leave Stor2X
 Entering PrmDigJobTyp =                      20
 LenSav and NKeep                       0                       0
 Entered Stor2E with KNTT1,2                    1166                  129348
 Leave Stor2X
 Entering PrmDigJobTyp =                      20
 LenSav and NKeep                       0                       0
 Entered Stor2E with KNTT1,2                    1166                  129348
 Leave Stor2X
 Entering PrmDigJobTyp =                      20
 LenSav and NKeep                       0                       0
 Entered Stor2E with KNTT1,2                    1166                  129348
 Leave Stor2X
 Entering PrmDigJobTyp =                      20
 LenSav and NKeep                       0                       0
 Entered Stor2E with KNTT1,2                    1166                  129348
 Leave Stor2X
 Entering PrmDigJobTyp =                      20
 LenSav and NKeep                       0                       0
 Entered Stor2E with KNTT1,2                    1166                  129328
 Leave Stor2X
 Entering PrmDigJobTyp =                      20
 LenSav and NKeep                       0                       0
 Entered Stor2E with KNTT1,2                    1182                  129328
 Leave Stor2X
 Entering PrmDigJobTyp =                      20
 LenSav and NKeep                       0                       0
 Entered Stor2E with KNTT1,2                    1190                  129328
 Leave Stor2X
 Entering PrmDigJobTyp =                      20
 LenSav and NKeep                       0                       0
 Entered Stor2E with KNTT1,2                    1190                  129328
 Leave Stor2X
 In PrSumR
 Called IWRITE
         1469 integrals produced for a total of         1469.
 ExpMin= 3.16D-02 ExpMax= 1.00D+03 ExpMxC= 1.00D+01 IAcc=3 IRadAn=         5 AccDes= 0.00D+00
 Harris functional with IExCor=  205 and IRadAn=       5 diagonalized for initial guess.
 HarFok:  IExCor=  205 AccDes= 0.00D+00 IRadAn=         5 IDoV= 1 UseB2=F ITyADJ=14
 ICtDFT=  3500011 ScaDFX=  1.000000  1.000000  1.000000  1.000000
 FoFCou: FMM=F IPFlag=           0 FMFlag=      100000 FMFlg1=           0
         NFxFlg=           0 DoJE=T BraDBF=F KetDBF=T FulRan=T
         wScrn=  0.000000 ICntrl=     500 IOpCl=  0 I1Cent=   200000004 NGrid=           0
         NMat0=    1 NMatS0=      1 NMatT0=    0 NMatD0=    1 NMtDS0=    0 NMtDT0=    0
 Petite list used in FoFCou.
 Mixing orbitals, IMix= 3 IMixAn=  0 NRI=2 NE=   10 Coef=  7.07106781D-01  7.07106781D-01
 Also mixing orbitals    10 and    12 Coef=  3.82683432D-01  9.23879533D-01
 Initial guess <Sx>= 0.0000 <Sy>=-0.2500 <Sz>=-0.1464 <S**2>= 0.7197 S= 0.4847
 Two-electron integrals will be kept in memory, NGetB=      152788.
 Requested convergence on RMS density matrix=1.00D-08 within 128 cycles.
 Requested convergence on MAX density matrix=1.00D-06.
 Requested convergence on             energy=1.00D-06.
 No special actions if energy rises.
 ************************************************
 *READING THE YAODEN.PDM FILE TO GET NEW DENSITY*
 ************************************************
 EnCoef did   100 forward-backward iterations
 EnCoef did   100 forward-backward iterations
 EnCoef did   100 forward-backward iterations
 Rare condition: small coef for last iteration:  0.447D-15
 EnCoef did   100 forward-backward iterations
 Rare condition: small coef for last iteration:  0.000D+00
 SCF Done:  E(GHF) =  -4.60821785780     A.U. after   10 cycles
            NFock= 10  Conv=0.46D-08     -V/T= 1.9854
 <Sx>=-0.4110 <Sy>=-0.0373 <Sz>= 0.5242 <S**2>= 1.4451 S= 0.8019
 <L.S>= 0.000000000000E+00
 Range of M.O.s used for correlation:     1    10
 NBasis=    10 NAE=    10 NBE=     0 NFC=     0 NFV=     0
 NROrb=     20 NOA=    10 NOB=     0 NVA=    10 NVB=     0
 jaja DoHack is true or false? T
 jaja in hckghf.F, NBasis=                      10
 jaja in hckGHF/FixOG, LC =                      800
 jaja in hckGHF/FixOG, IRwC=                      548
 bfr conversion (real):
                 1             2             3             4             5 
      1a  0.169475D+00  0.418548D-01 -0.283947D+00  0.865642D-01  0.300739D+00
      1b -0.726775D-01  0.168730D+00  0.106029D+00  0.283988D+00 -0.933291D-01
      2a  0.221692D-02 -0.618094D-02 -0.371823D-02 -0.108577D-01  0.414213D-02
      2b -0.539421D-02 -0.313098D-02  0.979744D-02 -0.568425D-02 -0.115007D-01
      3a  0.260854D+00  0.876869D-01 -0.172294D+00  0.828286D-01 -0.188008D+00
      3b -0.950072D-01  0.271199D+00  0.348561D-01  0.167946D+00  0.905032D-01
      4a  0.167696D+00  0.412368D-01 -0.282932D+00  0.860137D-01  0.302627D+00
      4b -0.720430D-01  0.166867D+00  0.105882D+00  0.282999D+00 -0.941781D-01
      5a  0.263398D+00  0.980371D-01  0.160240D+00 -0.400833D-01 -0.200390D+00
      5b -0.857283D-01  0.266531D+00 -0.796184D-01 -0.187321D+00  0.432483D-01
      6a  0.260106D+00  0.872349D-01 -0.175769D+00  0.837995D-01 -0.183852D+00
      6b -0.949032D-01  0.270407D+00  0.363289D-01  0.171640D+00  0.893513D-01
      7a  0.176750D+00  0.703190D-01  0.288199D+00 -0.106754D+00  0.296080D+00
      7b -0.468058D-01  0.156434D+00 -0.912001D-01 -0.275561D+00 -0.112432D+00
      8a  0.264047D+00  0.981712D-01  0.156590D+00 -0.385712D-01 -0.204365D+00
      8b -0.861069D-01  0.267438D+00 -0.786326D-01 -0.183821D+00  0.449022D-01
      9a  0.517273D-02  0.289655D-02  0.915417D-02 -0.497446D-02  0.105716D-01
      9b  0.284450D-02 -0.638763D-02  0.535557D-02  0.113630D-01  0.642314D-02
     10a  0.178543D+00  0.709812D-01  0.289085D+00 -0.106931D+00  0.294065D+00
     10b -0.474038D-01  0.158281D+00 -0.917082D-01 -0.276682D+00 -0.111934D+00
                 6             7             8             9            10 
      1a  0.111434D+00 -0.197593D+00  0.833527D-01 -0.373459D-01  0.375987D-01
      1b  0.302353D+00  0.511156D-01  0.198307D+00  0.335301D-01 -0.336172D-01
      2a -0.121305D-01 -0.291517D-02 -0.825541D-02  0.521675D+00 -0.523181D+00
      2b -0.656279D-02  0.824602D-02 -0.460248D-02 -0.467399D+00  0.468746D+00
      3a -0.416017D-01  0.330235D+00 -0.116568D+00  0.370558D-02 -0.506885D-02
      3b -0.194864D+00 -0.106821D+00 -0.320057D+00 -0.396728D-02  0.389611D-02
      4a  0.111906D+00 -0.200625D+00  0.844413D-01 -0.373904D-01  0.376457D-01
      4b  0.304307D+00  0.520809D-01  0.201259D+00  0.335711D-01 -0.336581D-01
      5a -0.860632D-01 -0.326852D+00  0.106139D+00  0.559331D-02  0.657821D-02
      5b -0.174377D+00  0.119714D+00  0.324897D+00  0.819938D-03 -0.794005D-04
      6a -0.399810D-01  0.331279D+00 -0.116754D+00  0.382533D-02 -0.519110D-02
      6b -0.190910D+00 -0.107376D+00 -0.321088D+00 -0.407559D-02  0.400462D-02
      7a  0.996205D-01  0.189679D+00 -0.577489D-01 -0.506482D-01 -0.506115D-01
      7b  0.308714D+00 -0.825944D-01 -0.210835D+00 -0.313962D-02 -0.303236D-02
      8a -0.872282D-01 -0.325684D+00  0.105651D+00  0.543059D-02  0.641436D-02
      8b -0.178496D+00  0.119506D+00  0.323974D+00  0.809263D-03 -0.886298D-04
      9a  0.542796D-02  0.753793D-02 -0.361049D-02  0.706015D+00  0.703992D+00
      9b -0.128620D-01  0.463926D-02  0.885962D-02  0.430352D-01  0.429095D-01
     10a  0.987886D-01  0.186698D+00 -0.567850D-01 -0.505873D-01 -0.505490D-01
     10b  0.306889D+00 -0.814850D-01 -0.207838D+00 -0.313507D-02 -0.302938D-02
                11            12            13            14            15 
      1a -0.234237D-01  0.233735D-01  0.720558D+00 -0.244966D+00 -0.119045D+01
      1b -0.260955D-01  0.261361D-01 -0.252119D+00 -0.720415D+00  0.412644D+00
      2a  0.468482D+00 -0.467586D+00  0.937821D-03 -0.615143D-03 -0.730635D-03
      2b  0.522875D+00 -0.521893D+00 -0.113983D-03 -0.117359D-02  0.950984D-04
      3a  0.126016D-02 -0.120804D-02  0.114971D+01 -0.396061D+00 -0.731132D+00
      3b  0.971080D-03 -0.178457D-02 -0.398006D+00 -0.115208D+01  0.246718D+00
      4a -0.232055D-01  0.231586D-01 -0.727203D+00  0.247280D+00  0.119579D+01
      4b -0.258774D-01  0.258707D-01  0.254402D+00  0.727096D+00 -0.414444D+00
      5a -0.463304D-03 -0.123334D-03  0.115264D+01 -0.399228D+00  0.716909D+00
      5b  0.461473D-02  0.500395D-02 -0.396294D+00 -0.115329D+01 -0.252878D+00
      6a  0.321185D-02 -0.317450D-02 -0.115178D+01  0.396804D+00  0.720457D+00
      6b  0.331118D-02 -0.381729D-02  0.398696D+00  0.115416D+01 -0.242991D+00
      7a  0.214047D-02  0.211610D-02  0.729456D+00 -0.253609D+00  0.119701D+01
      7b -0.348674D-01 -0.349653D-01 -0.248122D+00 -0.724824D+00 -0.411036D+00
      8a -0.384383D-03  0.157264D-03 -0.115059D+01  0.398531D+00 -0.727612D+00
      8b  0.155439D-02  0.216267D-02  0.395558D+00  0.115119D+01  0.256526D+00
      9a -0.429336D-01 -0.430039D-01 -0.803996D-03  0.240921D-03 -0.630397D-03
      9b  0.704270D+00  0.705619D+00  0.486918D-03  0.130788D-02  0.374437D-03
     10a  0.217618D-02  0.212018D-02 -0.722818D+00  0.251312D+00 -0.119170D+01
     10b -0.351756D-01 -0.353095D-01  0.245822D+00  0.718138D+00  0.409160D+00
                16            17            18            19            20 
      1a -0.408635D+00  0.122382D+01 -0.424259D+00 -0.774910D+00 -0.270504D+00
      1b -0.119029D+01 -0.420146D+00 -0.122394D+01  0.264202D+00 -0.775095D+00
      2a -0.465494D-03 -0.454082D-03  0.274905D-03  0.102861D-02  0.608438D-03
      2b -0.897682D-03  0.737685D-04  0.553219D-03 -0.170172D-03  0.122970D-02
      3a -0.257320D+00 -0.760480D+00  0.257514D+00  0.127014D+01  0.438659D+00
      3b -0.729918D+00  0.267570D+00  0.761559D+00 -0.436965D+00  0.126805D+01
      4a  0.410525D+00 -0.122052D+01  0.423139D+00  0.767140D+00  0.267798D+00
      4b  0.119565D+01  0.418981D+00  0.122062D+01 -0.261544D+00  0.767319D+00
      5a  0.243784D+00 -0.776260D+00  0.271051D+00 -0.126605D+01 -0.435357D+00
      5b  0.722754D+00  0.262622D+00  0.770700D+00  0.438006D+00 -0.126553D+01
      6a  0.253669D+00  0.772955D+00 -0.261847D+00 -0.126684D+01 -0.437547D+00
      6b  0.719207D+00 -0.271833D+00 -0.774003D+00  0.435801D+00 -0.126475D+01
      7a  0.414003D+00  0.121919D+01 -0.419501D+00  0.765157D+00  0.262306D+00
      7b  0.119440D+01 -0.422684D+00 -0.122193D+01 -0.267073D+00  0.769290D+00
      8a -0.247514D+00  0.763811D+00 -0.266790D+00  0.126937D+01  0.436516D+00
      8b -0.733437D+00 -0.258287D+00 -0.758231D+00 -0.439125D+00  0.126882D+01
      9a -0.188204D-03  0.401150D-03 -0.125317D-03  0.910665D-03  0.280597D-03
      9b -0.997186D-03 -0.221274D-03 -0.606897D-03 -0.498847D-03  0.134734D-02
     10a -0.412190D+00 -0.122251D+01  0.420667D+00 -0.772912D+00 -0.264971D+00
     10b -0.118902D+01  0.423803D+00  0.122523D+01  0.269771D+00 -0.777081D+00
 bfr conversion (imaginary):
                 1             2             3             4             5 
      1a -0.188261D-02  0.142954D-02  0.172401D-02 -0.389196D-02  0.282374D-04
      1b -0.108941D-01 -0.137312D-02  0.118186D-01  0.000000D+00 -0.484976D-02
      2a -0.505093D-03  0.214429D-02  0.931443D-03  0.372185D-02 -0.110339D-02
      2b -0.192897D-02 -0.558796D-03  0.352603D-02 -0.985681D-03 -0.415437D-02
      3a -0.107496D-02 -0.590223D-02 -0.214022D-02 -0.149350D-01  0.345711D-02
      3b -0.999087D-02  0.000000D+00 -0.464775D-02  0.341729D-02  0.158998D-01
      4a -0.187674D-02  0.147637D-02  0.174285D-02 -0.377889D-02  0.000000D+00
      4b -0.108314D-01 -0.137481D-02  0.118691D-01 -0.269229D-04 -0.498544D-02
      5a  0.180133D-04 -0.105644D-01 -0.311110D-02 -0.422762D-02 -0.206522D-02
      5b -0.598544D-02  0.128217D-02 -0.146008D-01  0.183798D-02 -0.434688D-02
      6a -0.109011D-02 -0.580632D-02 -0.210019D-02 -0.149236D-01  0.347237D-02
      6b -0.100300D-01 -0.211733D-04 -0.443288D-02  0.340052D-02  0.158879D-01
      7a  0.117135D-02 -0.113335D-01  0.245521D-04  0.128645D-01 -0.219256D-02
      7b  0.293877D-03  0.213409D-02 -0.541383D-02 -0.245830D-02 -0.129972D-01
      8a  0.000000D+00 -0.105203D-01 -0.312970D-02 -0.445336D-02 -0.202019D-02
      8b -0.606735D-02  0.126499D-02 -0.146000D-01  0.188607D-02 -0.411461D-02
      9a  0.489964D-03 -0.185409D-02  0.892718D-03  0.321391D-02  0.104951D-02
      9b  0.170291D-02  0.536445D-03  0.313651D-02 -0.911480D-03  0.371247D-02
     10a  0.116990D-02 -0.113998D-01  0.000000D+00  0.128143D-01 -0.220651D-02
     10b  0.247304D-03  0.214111D-02 -0.552183D-02 -0.244056D-02 -0.130157D-01
                 6             7             8             9            10 
      1a -0.120647D-01 -0.139789D-02 -0.120740D-01  0.380942D-02 -0.382031D-02
      1b  0.149904D-02 -0.825769D-03  0.200786D-02  0.790990D-02 -0.791387D-02
      2a  0.416216D-02  0.789382D-03  0.282192D-02 -0.531091D-01  0.532620D-01
      2b -0.108248D-02  0.299796D-02 -0.730082D-03 -0.110146D+00  0.110463D+00
      3a -0.435944D-02  0.234572D-04  0.122654D-01 -0.446105D-03  0.447373D-03
      3b  0.230059D-02 -0.721479D-02 -0.129867D-02 -0.101177D-02  0.841514D-03
      4a -0.120430D-01 -0.139978D-02 -0.121926D-01  0.381407D-02 -0.382497D-02
      4b  0.148189D-02 -0.765750D-03  0.202130D-02  0.791970D-02 -0.792339D-02
      5a  0.157113D-01  0.148907D-02 -0.754836D-02  0.509600D-04 -0.511043D-04
      5b -0.322088D-02  0.127608D-01  0.000000D+00  0.885666D-03  0.671721D-03
      6a -0.458277D-02  0.000000D+00  0.122287D-01 -0.458405D-03  0.459709D-03
      6b  0.233784D-02 -0.732504D-02 -0.128237D-02 -0.103742D-02  0.866963D-03
      7a -0.663282D-02 -0.228288D-02  0.423749D-03 -0.556983D-05  0.558555D-05
      7b  0.000000D+00 -0.126777D-01  0.120325D-02 -0.650120D-02 -0.645928D-02
      8a  0.157340D-01  0.150753D-02 -0.745188D-02  0.508795D-04 -0.510237D-04
      8b -0.320315D-02  0.128036D-01 -0.201811D-04  0.864570D-03  0.651018D-03
      9a -0.357041D-02  0.765743D-03  0.240982D-02  0.000000D+00  0.000000D+00
      9b  0.103553D-02  0.267897D-02 -0.703369D-03  0.903653D-01  0.901056D-01
     10a -0.649600D-02 -0.226739D-02  0.360192D-03 -0.548098D-05  0.549647D-05
     10b -0.262778D-04 -0.125542D-01  0.120162D-02 -0.649310D-02 -0.645158D-02
                11            12            13            14            15 
      1a  0.552497D-02 -0.550289D-02 -0.474185D-03  0.210752D-01  0.417941D-03
      1b -0.266140D-02  0.265627D-02 -0.239519D-01  0.293897D-03  0.379801D-01
      2a -0.110399D+00  0.110187D+00  0.225585D-04  0.121693D-03 -0.168592D-04
      2b  0.532350D-01 -0.531324D-01  0.554075D-04 -0.229055D-04 -0.406246D-04
      3a -0.343283D-03  0.238265D-03 -0.294559D-03  0.354476D-01 -0.469868D-03
      3b  0.140372D-03 -0.140099D-03 -0.364911D-01  0.306387D-05  0.206120D-01
      4a  0.547083D-02 -0.545496D-02  0.474004D-03 -0.212878D-01 -0.414210D-03
      4b -0.263676D-02  0.263168D-02  0.241558D-01 -0.292023D-03 -0.381296D-01
      5a  0.655160D-03  0.576086D-03  0.000000D+00  0.365971D-01 -0.725291D-03
      5b -0.193618D-04  0.193245D-04 -0.354810D-01 -0.294674D-03 -0.246414D-01
      6a -0.785987D-03  0.718913D-03  0.292047D-03 -0.355230D-01  0.476473D-03
      6b  0.363197D-03 -0.362500D-03  0.365455D-01  0.000000D+00 -0.202608D-01
      7a -0.446816D-02 -0.446995D-02  0.289398D-03  0.240925D-01  0.000000D+00
      7b  0.158445D-05 -0.158138D-05 -0.213731D-01 -0.477442D-03 -0.366197D-01
      8a  0.301597D-03  0.174355D-03 -0.303555D-05 -0.365421D-01  0.722386D-03
      8b -0.308143D-04  0.307550D-04  0.354063D-01  0.297205D-03  0.249580D-01
      9a  0.901437D-01  0.903122D-01  0.227794D-04  0.441348D-04  0.170949D-04
      9b  0.000000D+00  0.000000D+00  0.109850D-03 -0.225888D-04  0.831425D-04
     10a -0.451361D-02 -0.450801D-02 -0.291263D-03 -0.238873D-01 -0.557540D-05
     10b  0.338439D-05 -0.337790D-05  0.211618D-01  0.477609D-03  0.364363D-01
                16            17            18            19            20 
      1a  0.363747D-01  0.000000D+00  0.390486D-01 -0.258502D-03  0.254895D-01
      1b  0.558711D-05 -0.373971D-01 -0.436581D-03  0.229615D-01 -0.416048D-03
      2a  0.910246D-04 -0.888676D-05 -0.512581D-04  0.198798D-04 -0.112926D-03
      2b -0.170198D-04 -0.193197D-04  0.919454D-05  0.425120D-04  0.200618D-04
      3a  0.250285D-01  0.702689D-03 -0.216823D-01  0.000000D+00 -0.401314D-01
      3b -0.725422D-03  0.258632D-01 -0.428289D-03 -0.392189D-01  0.260644D-03
      4a -0.365593D-01 -0.342096D-05 -0.389554D-01  0.256861D-03 -0.252373D-01
      4b  0.000000D+00  0.372834D-01  0.438793D-03 -0.227278D-01  0.412813D-03
      5a -0.203320D-01 -0.419029D-03 -0.261652D-01  0.265028D-03  0.390684D-01
      5b -0.473210D-03  0.221554D-01  0.697016D-03  0.400828D-01  0.310120D-05
      6a -0.247117D-01 -0.700523D-03  0.220874D-01 -0.312476D-05  0.400385D-01
      6b  0.728313D-03 -0.262363D-01  0.421662D-03  0.391054D-01 -0.263068D-03
      7a -0.381006D-01 -0.446720D-03  0.373435D-01 -0.415303D-03 -0.228034D-01
      7b  0.422833D-03 -0.389242D-01  0.339266D-05 -0.251778D-01 -0.254940D-03
      8a  0.206836D-01  0.425724D-03  0.257921D-01 -0.262588D-03 -0.391813D-01
      8b  0.466534D-03 -0.217499D-01 -0.699202D-03 -0.401761D-01  0.000000D+00
      9a -0.318334D-04 -0.904219D-05 -0.150192D-04 -0.200805D-04  0.323582D-04
      9b  0.166847D-04 -0.460341D-04  0.898778D-05 -0.103142D-03 -0.197972D-04
     10a  0.379498D-01  0.444502D-03 -0.374572D-01  0.418550D-03  0.230378D-01
     10b -0.426522D-03  0.390173D-01  0.000000D+00  0.254294D-01  0.256575D-03
 afr conversion (alpha, real):
                 1             2             3             4             5 
      1   0.169475D+00  0.418548D-01 -0.283947D+00  0.865642D-01  0.300739D+00
      2   0.221692D-02 -0.618094D-02 -0.371823D-02 -0.108577D-01  0.414213D-02
      3   0.260854D+00  0.876869D-01 -0.172294D+00  0.828286D-01 -0.188008D+00
      4   0.167696D+00  0.412368D-01 -0.282932D+00  0.860137D-01  0.302627D+00
      5   0.263398D+00  0.980371D-01  0.160240D+00 -0.400833D-01 -0.200390D+00
      6   0.260106D+00  0.872349D-01 -0.175769D+00  0.837995D-01 -0.183852D+00
      7   0.176750D+00  0.703190D-01  0.288199D+00 -0.106754D+00  0.296080D+00
      8   0.264047D+00  0.981712D-01  0.156590D+00 -0.385712D-01 -0.204365D+00
      9   0.517273D-02  0.289655D-02  0.915417D-02 -0.497446D-02  0.105716D-01
     10   0.178543D+00  0.709812D-01  0.289085D+00 -0.106931D+00  0.294065D+00
                 6             7             8             9            10 
      1   0.111434D+00 -0.197593D+00  0.833527D-01 -0.373459D-01  0.375987D-01
      2  -0.121305D-01 -0.291517D-02 -0.825541D-02  0.521675D+00 -0.523181D+00
      3  -0.416017D-01  0.330235D+00 -0.116568D+00  0.370558D-02 -0.506885D-02
      4   0.111906D+00 -0.200625D+00  0.844413D-01 -0.373904D-01  0.376457D-01
      5  -0.860632D-01 -0.326852D+00  0.106139D+00  0.559331D-02  0.657821D-02
      6  -0.399810D-01  0.331279D+00 -0.116754D+00  0.382533D-02 -0.519110D-02
      7   0.996205D-01  0.189679D+00 -0.577489D-01 -0.506482D-01 -0.506115D-01
      8  -0.872282D-01 -0.325684D+00  0.105651D+00  0.543059D-02  0.641436D-02
      9   0.542796D-02  0.753793D-02 -0.361049D-02  0.706015D+00  0.703992D+00
     10   0.987886D-01  0.186698D+00 -0.567850D-01 -0.505873D-01 -0.505490D-01
                11            12            13            14            15 
      1  -0.234237D-01  0.233735D-01  0.720558D+00 -0.244966D+00 -0.119045D+01
      2   0.468482D+00 -0.467586D+00  0.937821D-03 -0.615143D-03 -0.730635D-03
      3   0.126016D-02 -0.120804D-02  0.114971D+01 -0.396061D+00 -0.731132D+00
      4  -0.232055D-01  0.231586D-01 -0.727203D+00  0.247280D+00  0.119579D+01
      5  -0.463304D-03 -0.123334D-03  0.115264D+01 -0.399228D+00  0.716909D+00
      6   0.321185D-02 -0.317450D-02 -0.115178D+01  0.396804D+00  0.720457D+00
      7   0.214047D-02  0.211610D-02  0.729456D+00 -0.253609D+00  0.119701D+01
      8  -0.384383D-03  0.157264D-03 -0.115059D+01  0.398531D+00 -0.727612D+00
      9  -0.429336D-01 -0.430039D-01 -0.803996D-03  0.240921D-03 -0.630397D-03
     10   0.217618D-02  0.212018D-02 -0.722818D+00  0.251312D+00 -0.119170D+01
                16            17            18            19            20 
      1  -0.408635D+00  0.122382D+01 -0.424259D+00 -0.774910D+00 -0.270504D+00
      2  -0.465494D-03 -0.454082D-03  0.274905D-03  0.102861D-02  0.608438D-03
      3  -0.257320D+00 -0.760480D+00  0.257514D+00  0.127014D+01  0.438659D+00
      4   0.410525D+00 -0.122052D+01  0.423139D+00  0.767140D+00  0.267798D+00
      5   0.243784D+00 -0.776260D+00  0.271051D+00 -0.126605D+01 -0.435357D+00
      6   0.253669D+00  0.772955D+00 -0.261847D+00 -0.126684D+01 -0.437547D+00
      7   0.414003D+00  0.121919D+01 -0.419501D+00  0.765157D+00  0.262306D+00
      8  -0.247514D+00  0.763811D+00 -0.266790D+00  0.126937D+01  0.436516D+00
      9  -0.188204D-03  0.401150D-03 -0.125317D-03  0.910665D-03  0.280597D-03
     10  -0.412190D+00 -0.122251D+01  0.420667D+00 -0.772912D+00 -0.264971D+00
 afr conversion (alpha, imaginary):
                 1             2             3             4             5 
      1  -0.188261D-02  0.142954D-02  0.172401D-02 -0.389196D-02  0.282374D-04
      2  -0.505093D-03  0.214429D-02  0.931443D-03  0.372185D-02 -0.110339D-02
      3  -0.107496D-02 -0.590223D-02 -0.214022D-02 -0.149350D-01  0.345711D-02
      4  -0.187674D-02  0.147637D-02  0.174285D-02 -0.377889D-02  0.000000D+00
      5   0.180133D-04 -0.105644D-01 -0.311110D-02 -0.422762D-02 -0.206522D-02
      6  -0.109011D-02 -0.580632D-02 -0.210019D-02 -0.149236D-01  0.347237D-02
      7   0.117135D-02 -0.113335D-01  0.245521D-04  0.128645D-01 -0.219256D-02
      8   0.000000D+00 -0.105203D-01 -0.312970D-02 -0.445336D-02 -0.202019D-02
      9   0.489964D-03 -0.185409D-02  0.892718D-03  0.321391D-02  0.104951D-02
     10   0.116990D-02 -0.113998D-01  0.000000D+00  0.128143D-01 -0.220651D-02
                 6             7             8             9            10 
      1  -0.120647D-01 -0.139789D-02 -0.120740D-01  0.380942D-02 -0.382031D-02
      2   0.416216D-02  0.789382D-03  0.282192D-02 -0.531091D-01  0.532620D-01
      3  -0.435944D-02  0.234572D-04  0.122654D-01 -0.446105D-03  0.447373D-03
      4  -0.120430D-01 -0.139978D-02 -0.121926D-01  0.381407D-02 -0.382497D-02
      5   0.157113D-01  0.148907D-02 -0.754836D-02  0.509600D-04 -0.511043D-04
      6  -0.458277D-02  0.000000D+00  0.122287D-01 -0.458405D-03  0.459709D-03
      7  -0.663282D-02 -0.228288D-02  0.423749D-03 -0.556983D-05  0.558555D-05
      8   0.157340D-01  0.150753D-02 -0.745188D-02  0.508795D-04 -0.510237D-04
      9  -0.357041D-02  0.765743D-03  0.240982D-02  0.000000D+00  0.000000D+00
     10  -0.649600D-02 -0.226739D-02  0.360192D-03 -0.548098D-05  0.549647D-05
                11            12            13            14            15 
      1   0.552497D-02 -0.550289D-02 -0.474185D-03  0.210752D-01  0.417941D-03
      2  -0.110399D+00  0.110187D+00  0.225585D-04  0.121693D-03 -0.168592D-04
      3  -0.343283D-03  0.238265D-03 -0.294559D-03  0.354476D-01 -0.469868D-03
      4   0.547083D-02 -0.545496D-02  0.474004D-03 -0.212878D-01 -0.414210D-03
      5   0.655160D-03  0.576086D-03  0.000000D+00  0.365971D-01 -0.725291D-03
      6  -0.785987D-03  0.718913D-03  0.292047D-03 -0.355230D-01  0.476473D-03
      7  -0.446816D-02 -0.446995D-02  0.289398D-03  0.240925D-01  0.000000D+00
      8   0.301597D-03  0.174355D-03 -0.303555D-05 -0.365421D-01  0.722386D-03
      9   0.901437D-01  0.903122D-01  0.227794D-04  0.441348D-04  0.170949D-04
     10  -0.451361D-02 -0.450801D-02 -0.291263D-03 -0.238873D-01 -0.557540D-05
                16            17            18            19            20 
      1   0.363747D-01  0.000000D+00  0.390486D-01 -0.258502D-03  0.254895D-01
      2   0.910246D-04 -0.888676D-05 -0.512581D-04  0.198798D-04 -0.112926D-03
      3   0.250285D-01  0.702689D-03 -0.216823D-01  0.000000D+00 -0.401314D-01
      4  -0.365593D-01 -0.342096D-05 -0.389554D-01  0.256861D-03 -0.252373D-01
      5  -0.203320D-01 -0.419029D-03 -0.261652D-01  0.265028D-03  0.390684D-01
      6  -0.247117D-01 -0.700523D-03  0.220874D-01 -0.312476D-05  0.400385D-01
      7  -0.381006D-01 -0.446720D-03  0.373435D-01 -0.415303D-03 -0.228034D-01
      8   0.206836D-01  0.425724D-03  0.257921D-01 -0.262588D-03 -0.391813D-01
      9  -0.318334D-04 -0.904219D-05 -0.150192D-04 -0.200805D-04  0.323582D-04
     10   0.379498D-01  0.444502D-03 -0.374572D-01  0.418550D-03  0.230378D-01
 afr conversion (beta, real):
                 1             2             3             4             5 
      1  -0.726775D-01  0.168730D+00  0.106029D+00  0.283988D+00 -0.933291D-01
      2  -0.539421D-02 -0.313098D-02  0.979744D-02 -0.568425D-02 -0.115007D-01
      3  -0.950072D-01  0.271199D+00  0.348561D-01  0.167946D+00  0.905032D-01
      4  -0.720430D-01  0.166867D+00  0.105882D+00  0.282999D+00 -0.941781D-01
      5  -0.857283D-01  0.266531D+00 -0.796184D-01 -0.187321D+00  0.432483D-01
      6  -0.949032D-01  0.270407D+00  0.363289D-01  0.171640D+00  0.893513D-01
      7  -0.468058D-01  0.156434D+00 -0.912001D-01 -0.275561D+00 -0.112432D+00
      8  -0.861069D-01  0.267438D+00 -0.786326D-01 -0.183821D+00  0.449022D-01
      9   0.284450D-02 -0.638763D-02  0.535557D-02  0.113630D-01  0.642314D-02
     10  -0.474038D-01  0.158281D+00 -0.917082D-01 -0.276682D+00 -0.111934D+00
                 6             7             8             9            10 
      1   0.302353D+00  0.511156D-01  0.198307D+00  0.335301D-01 -0.336172D-01
      2  -0.656279D-02  0.824602D-02 -0.460248D-02 -0.467399D+00  0.468746D+00
      3  -0.194864D+00 -0.106821D+00 -0.320057D+00 -0.396728D-02  0.389611D-02
      4   0.304307D+00  0.520809D-01  0.201259D+00  0.335711D-01 -0.336581D-01
      5  -0.174377D+00  0.119714D+00  0.324897D+00  0.819938D-03 -0.794005D-04
      6  -0.190910D+00 -0.107376D+00 -0.321088D+00 -0.407559D-02  0.400462D-02
      7   0.308714D+00 -0.825944D-01 -0.210835D+00 -0.313962D-02 -0.303236D-02
      8  -0.178496D+00  0.119506D+00  0.323974D+00  0.809263D-03 -0.886298D-04
      9  -0.128620D-01  0.463926D-02  0.885962D-02  0.430352D-01  0.429095D-01
     10   0.306889D+00 -0.814850D-01 -0.207838D+00 -0.313507D-02 -0.302938D-02
                11            12            13            14            15 
      1  -0.260955D-01  0.261361D-01 -0.252119D+00 -0.720415D+00  0.412644D+00
      2   0.522875D+00 -0.521893D+00 -0.113983D-03 -0.117359D-02  0.950984D-04
      3   0.971080D-03 -0.178457D-02 -0.398006D+00 -0.115208D+01  0.246718D+00
      4  -0.258774D-01  0.258707D-01  0.254402D+00  0.727096D+00 -0.414444D+00
      5   0.461473D-02  0.500395D-02 -0.396294D+00 -0.115329D+01 -0.252878D+00
      6   0.331118D-02 -0.381729D-02  0.398696D+00  0.115416D+01 -0.242991D+00
      7  -0.348674D-01 -0.349653D-01 -0.248122D+00 -0.724824D+00 -0.411036D+00
      8   0.155439D-02  0.216267D-02  0.395558D+00  0.115119D+01  0.256526D+00
      9   0.704270D+00  0.705619D+00  0.486918D-03  0.130788D-02  0.374437D-03
     10  -0.351756D-01 -0.353095D-01  0.245822D+00  0.718138D+00  0.409160D+00
                16            17            18            19            20 
      1  -0.119029D+01 -0.420146D+00 -0.122394D+01  0.264202D+00 -0.775095D+00
      2  -0.897682D-03  0.737685D-04  0.553219D-03 -0.170172D-03  0.122970D-02
      3  -0.729918D+00  0.267570D+00  0.761559D+00 -0.436965D+00  0.126805D+01
      4   0.119565D+01  0.418981D+00  0.122062D+01 -0.261544D+00  0.767319D+00
      5   0.722754D+00  0.262622D+00  0.770700D+00  0.438006D+00 -0.126553D+01
      6   0.719207D+00 -0.271833D+00 -0.774003D+00  0.435801D+00 -0.126475D+01
      7   0.119440D+01 -0.422684D+00 -0.122193D+01 -0.267073D+00  0.769290D+00
      8  -0.733437D+00 -0.258287D+00 -0.758231D+00 -0.439125D+00  0.126882D+01
      9  -0.997186D-03 -0.221274D-03 -0.606897D-03 -0.498847D-03  0.134734D-02
     10  -0.118902D+01  0.423803D+00  0.122523D+01  0.269771D+00 -0.777081D+00
 afr conversion (beta, imaginary):
                 1             2             3             4             5 
      1  -0.108941D-01 -0.137312D-02  0.118186D-01  0.000000D+00 -0.484976D-02
      2  -0.192897D-02 -0.558796D-03  0.352603D-02 -0.985681D-03 -0.415437D-02
      3  -0.999087D-02  0.000000D+00 -0.464775D-02  0.341729D-02  0.158998D-01
      4  -0.108314D-01 -0.137481D-02  0.118691D-01 -0.269229D-04 -0.498544D-02
      5  -0.598544D-02  0.128217D-02 -0.146008D-01  0.183798D-02 -0.434688D-02
      6  -0.100300D-01 -0.211733D-04 -0.443288D-02  0.340052D-02  0.158879D-01
      7   0.293877D-03  0.213409D-02 -0.541383D-02 -0.245830D-02 -0.129972D-01
      8  -0.606735D-02  0.126499D-02 -0.146000D-01  0.188607D-02 -0.411461D-02
      9   0.170291D-02  0.536445D-03  0.313651D-02 -0.911480D-03  0.371247D-02
     10   0.247304D-03  0.214111D-02 -0.552183D-02 -0.244056D-02 -0.130157D-01
                 6             7             8             9            10 
      1   0.149904D-02 -0.825769D-03  0.200786D-02  0.790990D-02 -0.791387D-02
      2  -0.108248D-02  0.299796D-02 -0.730082D-03 -0.110146D+00  0.110463D+00
      3   0.230059D-02 -0.721479D-02 -0.129867D-02 -0.101177D-02  0.841514D-03
      4   0.148189D-02 -0.765750D-03  0.202130D-02  0.791970D-02 -0.792339D-02
      5  -0.322088D-02  0.127608D-01  0.000000D+00  0.885666D-03  0.671721D-03
      6   0.233784D-02 -0.732504D-02 -0.128237D-02 -0.103742D-02  0.866963D-03
      7   0.000000D+00 -0.126777D-01  0.120325D-02 -0.650120D-02 -0.645928D-02
      8  -0.320315D-02  0.128036D-01 -0.201811D-04  0.864570D-03  0.651018D-03
      9   0.103553D-02  0.267897D-02 -0.703369D-03  0.903653D-01  0.901056D-01
     10  -0.262778D-04 -0.125542D-01  0.120162D-02 -0.649310D-02 -0.645158D-02
                11            12            13            14            15 
      1  -0.266140D-02  0.265627D-02 -0.239519D-01  0.293897D-03  0.379801D-01
      2   0.532350D-01 -0.531324D-01  0.554075D-04 -0.229055D-04 -0.406246D-04
      3   0.140372D-03 -0.140099D-03 -0.364911D-01  0.306387D-05  0.206120D-01
      4  -0.263676D-02  0.263168D-02  0.241558D-01 -0.292023D-03 -0.381296D-01
      5  -0.193618D-04  0.193245D-04 -0.354810D-01 -0.294674D-03 -0.246414D-01
      6   0.363197D-03 -0.362500D-03  0.365455D-01  0.000000D+00 -0.202608D-01
      7   0.158445D-05 -0.158138D-05 -0.213731D-01 -0.477442D-03 -0.366197D-01
      8  -0.308143D-04  0.307550D-04  0.354063D-01  0.297205D-03  0.249580D-01
      9   0.000000D+00  0.000000D+00  0.109850D-03 -0.225888D-04  0.831425D-04
     10   0.338439D-05 -0.337790D-05  0.211618D-01  0.477609D-03  0.364363D-01
                16            17            18            19            20 
      1   0.558711D-05 -0.373971D-01 -0.436581D-03  0.229615D-01 -0.416048D-03
      2  -0.170198D-04 -0.193197D-04  0.919454D-05  0.425120D-04  0.200618D-04
      3  -0.725422D-03  0.258632D-01 -0.428289D-03 -0.392189D-01  0.260644D-03
      4   0.000000D+00  0.372834D-01  0.438793D-03 -0.227278D-01  0.412813D-03
      5  -0.473210D-03  0.221554D-01  0.697016D-03  0.400828D-01  0.310120D-05
      6   0.728313D-03 -0.262363D-01  0.421662D-03  0.391054D-01 -0.263068D-03
      7   0.422833D-03 -0.389242D-01  0.339266D-05 -0.251778D-01 -0.254940D-03
      8   0.466534D-03 -0.217499D-01 -0.699202D-03 -0.401761D-01  0.000000D+00
      9   0.166847D-04 -0.460341D-04  0.898778D-05 -0.103142D-03 -0.197972D-04
     10  -0.426522D-03  0.390173D-01  0.000000D+00  0.254294D-01  0.256575D-03
 jaja in hckghf.F, ISPECT =                     548
Spin block MO for GHF transformation
NOA =   10   NOB =   10
NVA =   10   NVB =   10
 NOAvA in Hack                     100
 jaja in tranN3.F, ISPECT =                     548
 in l802/tranN3.F, LSPECT =                      800
 NMat, NBtSiz,MDV                    8372                   16000
                133954722
 TranN3:  NGot= 134217728 NBasic=    263006 NTTT=       550 NMat=      8372.
 Defined bucket =                      51                   10000
 Defined bucket =                      52                   10000
 Defined bucket =                      53                   10000
 Defined bucket =                      55                   10000
 Defined bucket =                      57                   10000
 Defined bucket =                      58                   10000
 Defined bucket =                      60                   10000
 Defined bucket =                      72                   10000
 Defined bucket =                      73                   10000
 Defined bucket =                      74                   10000
 Defined bucket =                      75                   10000
 Defined bucket =                      76                   10000
 (IK/LS) integrals will be saved in memory.
 TrCghf made   2 passes through the AO integrals.
 jaja DoHack is true or false? F
 jaja in hckghf.F, NBasis=                      10
 jaja in hckGHF/FixOG, LC =                      800
 jaja in hckGHF/FixOG, IRwC=                      548
 bfr conversion (alpha, real):
                 1             2             3             4             5 
      1   0.169475D+00  0.418548D-01 -0.283947D+00  0.865642D-01  0.300739D+00
      2   0.221692D-02 -0.618094D-02 -0.371823D-02 -0.108577D-01  0.414213D-02
      3   0.260854D+00  0.876869D-01 -0.172294D+00  0.828286D-01 -0.188008D+00
      4   0.167696D+00  0.412368D-01 -0.282932D+00  0.860137D-01  0.302627D+00
      5   0.263398D+00  0.980371D-01  0.160240D+00 -0.400833D-01 -0.200390D+00
      6   0.260106D+00  0.872349D-01 -0.175769D+00  0.837995D-01 -0.183852D+00
      7   0.176750D+00  0.703190D-01  0.288199D+00 -0.106754D+00  0.296080D+00
      8   0.264047D+00  0.981712D-01  0.156590D+00 -0.385712D-01 -0.204365D+00
      9   0.517273D-02  0.289655D-02  0.915417D-02 -0.497446D-02  0.105716D-01
     10   0.178543D+00  0.709812D-01  0.289085D+00 -0.106931D+00  0.294065D+00
                 6             7             8             9            10 
      1   0.111434D+00 -0.197593D+00  0.833527D-01 -0.373459D-01  0.375987D-01
      2  -0.121305D-01 -0.291517D-02 -0.825541D-02  0.521675D+00 -0.523181D+00
      3  -0.416017D-01  0.330235D+00 -0.116568D+00  0.370558D-02 -0.506885D-02
      4   0.111906D+00 -0.200625D+00  0.844413D-01 -0.373904D-01  0.376457D-01
      5  -0.860632D-01 -0.326852D+00  0.106139D+00  0.559331D-02  0.657821D-02
      6  -0.399810D-01  0.331279D+00 -0.116754D+00  0.382533D-02 -0.519110D-02
      7   0.996205D-01  0.189679D+00 -0.577489D-01 -0.506482D-01 -0.506115D-01
      8  -0.872282D-01 -0.325684D+00  0.105651D+00  0.543059D-02  0.641436D-02
      9   0.542796D-02  0.753793D-02 -0.361049D-02  0.706015D+00  0.703992D+00
     10   0.987886D-01  0.186698D+00 -0.567850D-01 -0.505873D-01 -0.505490D-01
                11            12            13            14            15 
      1  -0.234237D-01  0.233735D-01  0.720558D+00 -0.244966D+00 -0.119045D+01
      2   0.468482D+00 -0.467586D+00  0.937821D-03 -0.615143D-03 -0.730635D-03
      3   0.126016D-02 -0.120804D-02  0.114971D+01 -0.396061D+00 -0.731132D+00
      4  -0.232055D-01  0.231586D-01 -0.727203D+00  0.247280D+00  0.119579D+01
      5  -0.463304D-03 -0.123334D-03  0.115264D+01 -0.399228D+00  0.716909D+00
      6   0.321185D-02 -0.317450D-02 -0.115178D+01  0.396804D+00  0.720457D+00
      7   0.214047D-02  0.211610D-02  0.729456D+00 -0.253609D+00  0.119701D+01
      8  -0.384383D-03  0.157264D-03 -0.115059D+01  0.398531D+00 -0.727612D+00
      9  -0.429336D-01 -0.430039D-01 -0.803996D-03  0.240921D-03 -0.630397D-03
     10   0.217618D-02  0.212018D-02 -0.722818D+00  0.251312D+00 -0.119170D+01
                16            17            18            19            20 
      1  -0.408635D+00  0.122382D+01 -0.424259D+00 -0.774910D+00 -0.270504D+00
      2  -0.465494D-03 -0.454082D-03  0.274905D-03  0.102861D-02  0.608438D-03
      3  -0.257320D+00 -0.760480D+00  0.257514D+00  0.127014D+01  0.438659D+00
      4   0.410525D+00 -0.122052D+01  0.423139D+00  0.767140D+00  0.267798D+00
      5   0.243784D+00 -0.776260D+00  0.271051D+00 -0.126605D+01 -0.435357D+00
      6   0.253669D+00  0.772955D+00 -0.261847D+00 -0.126684D+01 -0.437547D+00
      7   0.414003D+00  0.121919D+01 -0.419501D+00  0.765157D+00  0.262306D+00
      8  -0.247514D+00  0.763811D+00 -0.266790D+00  0.126937D+01  0.436516D+00
      9  -0.188204D-03  0.401150D-03 -0.125317D-03  0.910665D-03  0.280597D-03
     10  -0.412190D+00 -0.122251D+01  0.420667D+00 -0.772912D+00 -0.264971D+00
 bfr conversion (alpha, imaginary):
                 1             2             3             4             5 
      1  -0.188261D-02  0.142954D-02  0.172401D-02 -0.389196D-02  0.282374D-04
      2  -0.505093D-03  0.214429D-02  0.931443D-03  0.372185D-02 -0.110339D-02
      3  -0.107496D-02 -0.590223D-02 -0.214022D-02 -0.149350D-01  0.345711D-02
      4  -0.187674D-02  0.147637D-02  0.174285D-02 -0.377889D-02  0.000000D+00
      5   0.180133D-04 -0.105644D-01 -0.311110D-02 -0.422762D-02 -0.206522D-02
      6  -0.109011D-02 -0.580632D-02 -0.210019D-02 -0.149236D-01  0.347237D-02
      7   0.117135D-02 -0.113335D-01  0.245521D-04  0.128645D-01 -0.219256D-02
      8   0.000000D+00 -0.105203D-01 -0.312970D-02 -0.445336D-02 -0.202019D-02
      9   0.489964D-03 -0.185409D-02  0.892718D-03  0.321391D-02  0.104951D-02
     10   0.116990D-02 -0.113998D-01  0.000000D+00  0.128143D-01 -0.220651D-02
                 6             7             8             9            10 
      1  -0.120647D-01 -0.139789D-02 -0.120740D-01  0.380942D-02 -0.382031D-02
      2   0.416216D-02  0.789382D-03  0.282192D-02 -0.531091D-01  0.532620D-01
      3  -0.435944D-02  0.234572D-04  0.122654D-01 -0.446105D-03  0.447373D-03
      4  -0.120430D-01 -0.139978D-02 -0.121926D-01  0.381407D-02 -0.382497D-02
      5   0.157113D-01  0.148907D-02 -0.754836D-02  0.509600D-04 -0.511043D-04
      6  -0.458277D-02  0.000000D+00  0.122287D-01 -0.458405D-03  0.459709D-03
      7  -0.663282D-02 -0.228288D-02  0.423749D-03 -0.556983D-05  0.558555D-05
      8   0.157340D-01  0.150753D-02 -0.745188D-02  0.508795D-04 -0.510237D-04
      9  -0.357041D-02  0.765743D-03  0.240982D-02  0.000000D+00  0.000000D+00
     10  -0.649600D-02 -0.226739D-02  0.360192D-03 -0.548098D-05  0.549647D-05
                11            12            13            14            15 
      1   0.552497D-02 -0.550289D-02 -0.474185D-03  0.210752D-01  0.417941D-03
      2  -0.110399D+00  0.110187D+00  0.225585D-04  0.121693D-03 -0.168592D-04
      3  -0.343283D-03  0.238265D-03 -0.294559D-03  0.354476D-01 -0.469868D-03
      4   0.547083D-02 -0.545496D-02  0.474004D-03 -0.212878D-01 -0.414210D-03
      5   0.655160D-03  0.576086D-03  0.000000D+00  0.365971D-01 -0.725291D-03
      6  -0.785987D-03  0.718913D-03  0.292047D-03 -0.355230D-01  0.476473D-03
      7  -0.446816D-02 -0.446995D-02  0.289398D-03  0.240925D-01  0.000000D+00
      8   0.301597D-03  0.174355D-03 -0.303555D-05 -0.365421D-01  0.722386D-03
      9   0.901437D-01  0.903122D-01  0.227794D-04  0.441348D-04  0.170949D-04
     10  -0.451361D-02 -0.450801D-02 -0.291263D-03 -0.238873D-01 -0.557540D-05
                16            17            18            19            20 
      1   0.363747D-01  0.000000D+00  0.390486D-01 -0.258502D-03  0.254895D-01
      2   0.910246D-04 -0.888676D-05 -0.512581D-04  0.198798D-04 -0.112926D-03
      3   0.250285D-01  0.702689D-03 -0.216823D-01  0.000000D+00 -0.401314D-01
      4  -0.365593D-01 -0.342096D-05 -0.389554D-01  0.256861D-03 -0.252373D-01
      5  -0.203320D-01 -0.419029D-03 -0.261652D-01  0.265028D-03  0.390684D-01
      6  -0.247117D-01 -0.700523D-03  0.220874D-01 -0.312476D-05  0.400385D-01
      7  -0.381006D-01 -0.446720D-03  0.373435D-01 -0.415303D-03 -0.228034D-01
      8   0.206836D-01  0.425724D-03  0.257921D-01 -0.262588D-03 -0.391813D-01
      9  -0.318334D-04 -0.904219D-05 -0.150192D-04 -0.200805D-04  0.323582D-04
     10   0.379498D-01  0.444502D-03 -0.374572D-01  0.418550D-03  0.230378D-01
 bfr conversion (beta, real):
                 1             2             3             4             5 
      1  -0.726775D-01  0.168730D+00  0.106029D+00  0.283988D+00 -0.933291D-01
      2  -0.539421D-02 -0.313098D-02  0.979744D-02 -0.568425D-02 -0.115007D-01
      3  -0.950072D-01  0.271199D+00  0.348561D-01  0.167946D+00  0.905032D-01
      4  -0.720430D-01  0.166867D+00  0.105882D+00  0.282999D+00 -0.941781D-01
      5  -0.857283D-01  0.266531D+00 -0.796184D-01 -0.187321D+00  0.432483D-01
      6  -0.949032D-01  0.270407D+00  0.363289D-01  0.171640D+00  0.893513D-01
      7  -0.468058D-01  0.156434D+00 -0.912001D-01 -0.275561D+00 -0.112432D+00
      8  -0.861069D-01  0.267438D+00 -0.786326D-01 -0.183821D+00  0.449022D-01
      9   0.284450D-02 -0.638763D-02  0.535557D-02  0.113630D-01  0.642314D-02
     10  -0.474038D-01  0.158281D+00 -0.917082D-01 -0.276682D+00 -0.111934D+00
                 6             7             8             9            10 
      1   0.302353D+00  0.511156D-01  0.198307D+00  0.335301D-01 -0.336172D-01
      2  -0.656279D-02  0.824602D-02 -0.460248D-02 -0.467399D+00  0.468746D+00
      3  -0.194864D+00 -0.106821D+00 -0.320057D+00 -0.396728D-02  0.389611D-02
      4   0.304307D+00  0.520809D-01  0.201259D+00  0.335711D-01 -0.336581D-01
      5  -0.174377D+00  0.119714D+00  0.324897D+00  0.819938D-03 -0.794005D-04
      6  -0.190910D+00 -0.107376D+00 -0.321088D+00 -0.407559D-02  0.400462D-02
      7   0.308714D+00 -0.825944D-01 -0.210835D+00 -0.313962D-02 -0.303236D-02
      8  -0.178496D+00  0.119506D+00  0.323974D+00  0.809263D-03 -0.886298D-04
      9  -0.128620D-01  0.463926D-02  0.885962D-02  0.430352D-01  0.429095D-01
     10   0.306889D+00 -0.814850D-01 -0.207838D+00 -0.313507D-02 -0.302938D-02
                11            12            13            14            15 
      1  -0.260955D-01  0.261361D-01 -0.252119D+00 -0.720415D+00  0.412644D+00
      2   0.522875D+00 -0.521893D+00 -0.113983D-03 -0.117359D-02  0.950984D-04
      3   0.971080D-03 -0.178457D-02 -0.398006D+00 -0.115208D+01  0.246718D+00
      4  -0.258774D-01  0.258707D-01  0.254402D+00  0.727096D+00 -0.414444D+00
      5   0.461473D-02  0.500395D-02 -0.396294D+00 -0.115329D+01 -0.252878D+00
      6   0.331118D-02 -0.381729D-02  0.398696D+00  0.115416D+01 -0.242991D+00
      7  -0.348674D-01 -0.349653D-01 -0.248122D+00 -0.724824D+00 -0.411036D+00
      8   0.155439D-02  0.216267D-02  0.395558D+00  0.115119D+01  0.256526D+00
      9   0.704270D+00  0.705619D+00  0.486918D-03  0.130788D-02  0.374437D-03
     10  -0.351756D-01 -0.353095D-01  0.245822D+00  0.718138D+00  0.409160D+00
                16            17            18            19            20 
      1  -0.119029D+01 -0.420146D+00 -0.122394D+01  0.264202D+00 -0.775095D+00
      2  -0.897682D-03  0.737685D-04  0.553219D-03 -0.170172D-03  0.122970D-02
      3  -0.729918D+00  0.267570D+00  0.761559D+00 -0.436965D+00  0.126805D+01
      4   0.119565D+01  0.418981D+00  0.122062D+01 -0.261544D+00  0.767319D+00
      5   0.722754D+00  0.262622D+00  0.770700D+00  0.438006D+00 -0.126553D+01
      6   0.719207D+00 -0.271833D+00 -0.774003D+00  0.435801D+00 -0.126475D+01
      7   0.119440D+01 -0.422684D+00 -0.122193D+01 -0.267073D+00  0.769290D+00
      8  -0.733437D+00 -0.258287D+00 -0.758231D+00 -0.439125D+00  0.126882D+01
      9  -0.997186D-03 -0.221274D-03 -0.606897D-03 -0.498847D-03  0.134734D-02
     10  -0.118902D+01  0.423803D+00  0.122523D+01  0.269771D+00 -0.777081D+00
 bfr conversion (beta, imaginary):
                 1             2             3             4             5 
      1  -0.108941D-01 -0.137312D-02  0.118186D-01  0.000000D+00 -0.484976D-02
      2  -0.192897D-02 -0.558796D-03  0.352603D-02 -0.985681D-03 -0.415437D-02
      3  -0.999087D-02  0.000000D+00 -0.464775D-02  0.341729D-02  0.158998D-01
      4  -0.108314D-01 -0.137481D-02  0.118691D-01 -0.269229D-04 -0.498544D-02
      5  -0.598544D-02  0.128217D-02 -0.146008D-01  0.183798D-02 -0.434688D-02
      6  -0.100300D-01 -0.211733D-04 -0.443288D-02  0.340052D-02  0.158879D-01
      7   0.293877D-03  0.213409D-02 -0.541383D-02 -0.245830D-02 -0.129972D-01
      8  -0.606735D-02  0.126499D-02 -0.146000D-01  0.188607D-02 -0.411461D-02
      9   0.170291D-02  0.536445D-03  0.313651D-02 -0.911480D-03  0.371247D-02
     10   0.247304D-03  0.214111D-02 -0.552183D-02 -0.244056D-02 -0.130157D-01
                 6             7             8             9            10 
      1   0.149904D-02 -0.825769D-03  0.200786D-02  0.790990D-02 -0.791387D-02
      2  -0.108248D-02  0.299796D-02 -0.730082D-03 -0.110146D+00  0.110463D+00
      3   0.230059D-02 -0.721479D-02 -0.129867D-02 -0.101177D-02  0.841514D-03
      4   0.148189D-02 -0.765750D-03  0.202130D-02  0.791970D-02 -0.792339D-02
      5  -0.322088D-02  0.127608D-01  0.000000D+00  0.885666D-03  0.671721D-03
      6   0.233784D-02 -0.732504D-02 -0.128237D-02 -0.103742D-02  0.866963D-03
      7   0.000000D+00 -0.126777D-01  0.120325D-02 -0.650120D-02 -0.645928D-02
      8  -0.320315D-02  0.128036D-01 -0.201811D-04  0.864570D-03  0.651018D-03
      9   0.103553D-02  0.267897D-02 -0.703369D-03  0.903653D-01  0.901056D-01
     10  -0.262778D-04 -0.125542D-01  0.120162D-02 -0.649310D-02 -0.645158D-02
                11            12            13            14            15 
      1  -0.266140D-02  0.265627D-02 -0.239519D-01  0.293897D-03  0.379801D-01
      2   0.532350D-01 -0.531324D-01  0.554075D-04 -0.229055D-04 -0.406246D-04
      3   0.140372D-03 -0.140099D-03 -0.364911D-01  0.306387D-05  0.206120D-01
      4  -0.263676D-02  0.263168D-02  0.241558D-01 -0.292023D-03 -0.381296D-01
      5  -0.193618D-04  0.193245D-04 -0.354810D-01 -0.294674D-03 -0.246414D-01
      6   0.363197D-03 -0.362500D-03  0.365455D-01  0.000000D+00 -0.202608D-01
      7   0.158445D-05 -0.158138D-05 -0.213731D-01 -0.477442D-03 -0.366197D-01
      8  -0.308143D-04  0.307550D-04  0.354063D-01  0.297205D-03  0.249580D-01
      9   0.000000D+00  0.000000D+00  0.109850D-03 -0.225888D-04  0.831425D-04
     10   0.338439D-05 -0.337790D-05  0.211618D-01  0.477609D-03  0.364363D-01
                16            17            18            19            20 
      1   0.558711D-05 -0.373971D-01 -0.436581D-03  0.229615D-01 -0.416048D-03
[...]
      6b 0.352863D-01  0.310895D-01 -0.322605D-02 -0.423607D-03 -0.279976D+00
      7a-0.389836D+00  0.104590D+00 -0.140193D-01  0.417239D-02 -0.169932D+00
      7b 0.951354D-01 -0.135500D+00  0.106354D-01  0.240828D-02  0.267327D-01
      8a-0.140453D+00  0.532677D-01 -0.652922D-02  0.122503D-02 -0.259393D+00
      8b 0.656763D-01 -0.691725D-01  0.567690D-02  0.103273D-02  0.118147D+00
      9a-0.119631D-01  0.256287D-02 -0.125867D-01  0.343102D-02 -0.573062D-02
      9b-0.595458D-02  0.650479D-02 -0.146825D-02 -0.179276D-03 -0.198969D-02
     10a-0.390420D+00  0.104882D+00 -0.140414D-01  0.417315D-02 -0.172100D+00
     10b 0.955122D-01 -0.135864D+00  0.106633D-01  0.241428D-02  0.277194D-01
                3b            4a            4b            5a            5b
      3b 0.414999D+00
      4a 0.409924D-01  0.137241D+01
      4b 0.233371D-01 -0.360688D+00  0.486963D+00
      5a 0.144334D-01 -0.141831D+00  0.544524D-01  0.117863D+01
      5b-0.969161D-01  0.650879D-01 -0.695694D-01 -0.317400D+00  0.447836D+00
      6a-0.278270D+00  0.103800D+00 -0.687850D-01 -0.281053D+00  0.123643D+00
      6b 0.415919D+00  0.375899D-01  0.277638D-01  0.174375D-01 -0.101068D+00
      7a 0.147354D-01 -0.389022D+00  0.104602D+00  0.896338D-01 -0.860073D-01
      7b-0.367982D-01  0.950667D-01 -0.135392D+00  0.200201D-01  0.421343D-01
      8a 0.120597D-01 -0.138247D+00  0.531606D-01  0.117578D+01 -0.315757D+00
      8b-0.932807D-01  0.647352D-01 -0.683996D-01 -0.317466D+00  0.446746D+00
      9a 0.211416D-03 -0.119425D-01  0.256435D-02  0.793407D-02 -0.130798D-02
      9b 0.156453D-02 -0.594808D-02  0.650101D-02 -0.278689D-03 -0.226742D-02
     10a 0.148880D-01 -0.389587D+00  0.104893D+00  0.990138D-01 -0.884501D-01
     10b-0.376085D-01  0.954353D-01 -0.135749D+00  0.174376D-01  0.456873D-01
                6a            6b            7a            7b            8a
      6a 0.120960D+01
      6b-0.279789D+00  0.416908D+00
      7a-0.173396D+00  0.161798D-01  0.138630D+01
      7b 0.272427D-01 -0.380937D-01 -0.345090D+00  0.474080D+00
      8a-0.269950D+00  0.150413D-01  0.772261D-01  0.230012D-01  0.117312D+01
      8b 0.121199D+00 -0.974156D-01 -0.831459D-01  0.380669D-01 -0.315866D+00
      9a-0.581751D-02  0.246855D-03 -0.273993D-01 -0.145921D-01  0.728090D-02
      9b-0.202585D-02  0.163013D-02  0.172936D-01 -0.241455D-01 -0.483236D-03
     10a-0.175645D+00  0.163547D-01  0.138497D+01 -0.344413D+00  0.865996D-01
     10b 0.282530D-01 -0.389356D-01 -0.345261D+00  0.473708D+00  0.204279D-01
                8b            9a            9b           10a           10b
      8b 0.445717D+00
      9a-0.124045D-02  0.103689D+01
      9b-0.207927D-02  0.634487D-01  0.219455D-01
     10a-0.855931D-01 -0.273868D-01  0.172599D-01  0.138371D+01
     10b 0.416165D-01 -0.145862D-01 -0.241293D-01 -0.344604D+00  0.473365D+00
 jaja lower-tri density matrix (imaginary):
                1a            1b            2a            2b            3a
      1a 0.000000D+00
      1b-0.366898D-01  0.000000D+00
      2a 0.140158D-01  0.100824D-01  0.000000D+00
      2b 0.327504D-02 -0.664171D-02  0.251052D+00  0.000000D+00
      3a 0.115920D-01  0.167973D-01 -0.142330D-02 -0.333823D-02  0.000000D+00
      3b 0.222336D-01 -0.114947D-01  0.122613D-02  0.134631D-03 -0.167990D-01
      4a-0.930305D-04  0.366052D-01 -0.140241D-01 -0.327337D-02 -0.116051D-01
      4b-0.369208D-01  0.928481D-04 -0.100859D-01  0.664982D-02 -0.166777D-01
      5a 0.114975D-02 -0.121103D-01  0.213159D-02  0.237050D-02  0.114571D-01
      5b 0.162677D-01 -0.117378D-02 -0.877495D-05 -0.171434D-02  0.253964D-01
      6a 0.115892D-01  0.171924D-01 -0.155174D-02 -0.358308D-02 -0.183858D-03
      6b 0.218003D-01 -0.114858D-01  0.134606D-02  0.201285D-03 -0.171331D-01
      7a-0.122848D-02 -0.110708D-01  0.490665D-02  0.502249D-02  0.131334D-02
      7b 0.747541D-02  0.112795D-02  0.923337D-04 -0.287808D-02 -0.458865D-02
      8a 0.125241D-02 -0.118953D-01  0.208269D-02  0.232257D-02  0.114494D-01
      8b 0.163967D-01 -0.127535D-02 -0.164931D-04 -0.169210D-02  0.253029D-01
      9a-0.100661D-02  0.956800D-03  0.123016D-02  0.204484D-02 -0.229573D-03
      9b-0.417943D-02  0.907531D-03 -0.160453D-02  0.730164D-03 -0.151156D-02
     10a-0.121968D-02 -0.111545D-01  0.491648D-02  0.503237D-02  0.140333D-02
     10b 0.758998D-02  0.111916D-02  0.940376D-04 -0.288754D-02 -0.437412D-02
                3b            4a            4b            5a            5b
      3b 0.000000D+00
      4a-0.223970D-01  0.000000D+00
      4b 0.115075D-01 -0.368374D-01  0.000000D+00
      5a 0.134456D-01  0.105948D-02 -0.122253D-01  0.000000D+00
      5b-0.114557D-01  0.160771D-01 -0.108365D-02 -0.373017D-01  0.000000D+00
      6a 0.165107D-01  0.116038D-01  0.170756D-01 -0.114627D-01 -0.258171D-01
      6b 0.183533D-03  0.219660D-01 -0.115000D-01 -0.130430D-01  0.114613D-01
      7a 0.899095D-02 -0.123754D-02 -0.111524D-01  0.114341D-01  0.263420D-01
      7b-0.130406D-02  0.752675D-02  0.113695D-02  0.124489D-01 -0.114351D-01
      8a 0.135135D-01  0.116230D-02 -0.120107D-01 -0.184320D-03  0.368903D-01
      8b-0.114482D-01  0.162069D-01 -0.118536D-02 -0.375158D-01  0.184341D-03
      9a 0.718319D-03 -0.100611D-02  0.953556D-03  0.110300D-03 -0.621961D-03
      9b 0.238202D-03 -0.417445D-02  0.906974D-03  0.996430D-03 -0.110277D-03
     10a 0.908156D-02 -0.122945D-02 -0.112369D-01  0.114191D-01  0.266073D-01
     10b-0.139404D-02  0.763967D-02  0.112887D-02  0.121325D-01 -0.114201D-01
                6a            6b            7a            7b            8a
      6a 0.000000D+00
      6b-0.168513D-01  0.000000D+00
      7a 0.121390D-02  0.869698D-02  0.000000D+00
      7b-0.463631D-02 -0.120383D-02 -0.278652D-01  0.000000D+00
      8a 0.114573D-01  0.131159D-01 -0.114469D-01 -0.126401D-01  0.000000D+00
      8b 0.257264D-01 -0.114561D-01 -0.261944D-01  0.114479D-01 -0.371062D-01
      9a-0.236596D-03  0.722558D-03  0.344004D-02  0.568159D-02  0.808862D-04
      9b-0.154112D-02  0.245970D-03  0.597102D-02 -0.343509D-02  0.831021D-03
     10a 0.130405D-02  0.878473D-02 -0.914748D-04  0.277212D-01  0.114333D-01
     10b-0.441838D-02 -0.129397D-02 -0.280314D-01  0.914683D-04  0.123268D-01
                8b            9a            9b           10a           10b
      8b 0.000000D+00
      9a-0.556059D-03  0.000000D+00
      9b-0.809746D-04  0.132525D+00  0.000000D+00
     10a 0.264615D-01 -0.343578D-02 -0.595833D-02  0.000000D+00
     10b-0.114343D-01 -0.567983D-02  0.343082D-02 -0.278898D-01  0.000000D+00
 jaja non-ortho density matrix               [Gau-style] (real):
                 1             2             3             4             5 
      1a  0.137007D+01 -0.359896D+00 -0.336202D-01  0.656250D-02  0.101361D+00
      1b -0.359896D+00  0.485995D+00 -0.384657D-02 -0.190219D-01 -0.676583D-01
      2a -0.336202D-01 -0.384657D-02  0.137789D+01 -0.348938D+00  0.113776D-01
      2b  0.656250D-02 -0.190219D-01 -0.348938D+00  0.135028D+00 -0.114168D-02
      3a  0.101361D+00 -0.676583D-01  0.113776D-01 -0.114168D-02  0.120388D+01
      3b  0.386964D-01  0.266606D-01 -0.287155D-02 -0.370804D-03 -0.278508D+00
      4a  0.137120D+01 -0.359854D+00 -0.336463D-01  0.655198D-02  0.917605D-01
      4b -0.360711D+00  0.486465D+00 -0.385694D-02 -0.190349D-01 -0.654845D-01
      5a -0.144121D+00  0.545772D-01 -0.663960D-02  0.124379D-02 -0.270449D+00
      5b  0.660481D-01 -0.703700D-01  0.575546D-02  0.106181D-02  0.120590D+00
      6a  0.113408D+00 -0.709529D-01  0.122595D-01 -0.137768D-02  0.120665D+01
      6b  0.352863D-01  0.310895D-01 -0.322605D-02 -0.423607D-03 -0.279976D+00
      7a -0.389836D+00  0.104590D+00 -0.140193D-01  0.417239D-02 -0.169932D+00
      7b  0.951354D-01 -0.135500D+00  0.106354D-01  0.240828D-02  0.267327D-01
      8a -0.140453D+00  0.532677D-01 -0.652922D-02  0.122503D-02 -0.259393D+00
      8b  0.656763D-01 -0.691725D-01  0.567690D-02  0.103273D-02  0.118147D+00
      9a -0.119631D-01  0.256287D-02 -0.125867D-01  0.343102D-02 -0.573062D-02
      9b -0.595458D-02  0.650479D-02 -0.146825D-02 -0.179276D-03 -0.198969D-02
     10a -0.390420D+00  0.104882D+00 -0.140414D-01  0.417315D-02 -0.172100D+00
     10b  0.955122D-01 -0.135864D+00  0.106633D-01  0.241428D-02  0.277194D-01
                 6             7             8             9            10 
      1a  0.386964D-01  0.137120D+01 -0.360711D+00 -0.144121D+00  0.660481D-01
      1b  0.266606D-01 -0.359854D+00  0.486465D+00  0.545772D-01 -0.703700D-01
      2a -0.287155D-02 -0.336463D-01 -0.385694D-02 -0.663960D-02  0.575546D-02
      2b -0.370804D-03  0.655198D-02 -0.190349D-01  0.124379D-02  0.106181D-02
      3a -0.278508D+00  0.917605D-01 -0.654845D-01 -0.270449D+00  0.120590D+00
      3b  0.414999D+00  0.409924D-01  0.233371D-01  0.144334D-01 -0.969161D-01
      4a  0.409924D-01  0.137241D+01 -0.360688D+00 -0.141831D+00  0.650879D-01
      4b  0.233371D-01 -0.360688D+00  0.486963D+00  0.544524D-01 -0.695694D-01
      5a  0.144334D-01 -0.141831D+00  0.544524D-01  0.117863D+01 -0.317400D+00
      5b -0.969161D-01  0.650879D-01 -0.695694D-01 -0.317400D+00  0.447836D+00
      6a -0.278270D+00  0.103800D+00 -0.687850D-01 -0.281053D+00  0.123643D+00
      6b  0.415919D+00  0.375899D-01  0.277638D-01  0.174375D-01 -0.101068D+00
      7a  0.147354D-01 -0.389022D+00  0.104602D+00  0.896338D-01 -0.860073D-01
      7b -0.367982D-01  0.950667D-01 -0.135392D+00  0.200201D-01  0.421343D-01
      8a  0.120597D-01 -0.138247D+00  0.531606D-01  0.117578D+01 -0.315757D+00
      8b -0.932807D-01  0.647352D-01 -0.683996D-01 -0.317466D+00  0.446746D+00
      9a  0.211416D-03 -0.119425D-01  0.256435D-02  0.793407D-02 -0.130798D-02
      9b  0.156453D-02 -0.594808D-02  0.650101D-02 -0.278689D-03 -0.226742D-02
     10a  0.148880D-01 -0.389587D+00  0.104893D+00  0.990138D-01 -0.884501D-01
     10b -0.376085D-01  0.954353D-01 -0.135749D+00  0.174376D-01  0.456873D-01
                11            12            13            14            15 
      1a  0.113408D+00  0.352863D-01 -0.389836D+00  0.951354D-01 -0.140453D+00
      1b -0.709529D-01  0.310895D-01  0.104590D+00 -0.135500D+00  0.532677D-01
      2a  0.122595D-01 -0.322605D-02 -0.140193D-01  0.106354D-01 -0.652922D-02
      2b -0.137768D-02 -0.423607D-03  0.417239D-02  0.240828D-02  0.122503D-02
      3a  0.120665D+01 -0.279976D+00 -0.169932D+00  0.267327D-01 -0.259393D+00
      3b -0.278270D+00  0.415919D+00  0.147354D-01 -0.367982D-01  0.120597D-01
      4a  0.103800D+00  0.375899D-01 -0.389022D+00  0.950667D-01 -0.138247D+00
      4b -0.687850D-01  0.277638D-01  0.104602D+00 -0.135392D+00  0.531606D-01
      5a -0.281053D+00  0.174375D-01  0.896338D-01  0.200201D-01  0.117578D+01
      5b  0.123643D+00 -0.101068D+00 -0.860073D-01  0.421343D-01 -0.315757D+00
      6a  0.120960D+01 -0.279789D+00 -0.173396D+00  0.272427D-01 -0.269950D+00
      6b -0.279789D+00  0.416908D+00  0.161798D-01 -0.380937D-01  0.150413D-01
      7a -0.173396D+00  0.161798D-01  0.138630D+01 -0.345090D+00  0.772261D-01
      7b  0.272427D-01 -0.380937D-01 -0.345090D+00  0.474080D+00  0.230012D-01
      8a -0.269950D+00  0.150413D-01  0.772261D-01  0.230012D-01  0.117312D+01
      8b  0.121199D+00 -0.974156D-01 -0.831459D-01  0.380669D-01 -0.315866D+00
      9a -0.581751D-02  0.246855D-03 -0.273993D-01 -0.145921D-01  0.728090D-02
      9b -0.202585D-02  0.163013D-02  0.172936D-01 -0.241455D-01 -0.483236D-03
     10a -0.175645D+00  0.163547D-01  0.138497D+01 -0.344413D+00  0.865996D-01
     10b  0.282530D-01 -0.389356D-01 -0.345261D+00  0.473708D+00  0.204279D-01
                16            17            18            19            20 
      1a  0.656763D-01 -0.119631D-01 -0.595458D-02 -0.390420D+00  0.955122D-01
      1b -0.691725D-01  0.256287D-02  0.650479D-02  0.104882D+00 -0.135864D+00
      2a  0.567690D-02 -0.125867D-01 -0.146825D-02 -0.140414D-01  0.106633D-01
      2b  0.103273D-02  0.343102D-02 -0.179276D-03  0.417315D-02  0.241428D-02
      3a  0.118147D+00 -0.573062D-02 -0.198969D-02 -0.172100D+00  0.277194D-01
      3b -0.932807D-01  0.211416D-03  0.156453D-02  0.148880D-01 -0.376085D-01
      4a  0.647352D-01 -0.119425D-01 -0.594808D-02 -0.389587D+00  0.954353D-01
      4b -0.683996D-01  0.256435D-02  0.650101D-02  0.104893D+00 -0.135749D+00
      5a -0.317466D+00  0.793407D-02 -0.278689D-03  0.990138D-01  0.174376D-01
      5b  0.446746D+00 -0.130798D-02 -0.226742D-02 -0.884501D-01  0.456873D-01
      6a  0.121199D+00 -0.581751D-02 -0.202585D-02 -0.175645D+00  0.282530D-01
      6b -0.974156D-01  0.246855D-03  0.163013D-02  0.163547D-01 -0.389356D-01
      7a -0.831459D-01 -0.273993D-01  0.172936D-01  0.138497D+01 -0.345261D+00
      7b  0.380669D-01 -0.145921D-01 -0.241455D-01 -0.344413D+00  0.473708D+00
      8a -0.315866D+00  0.728090D-02 -0.483236D-03  0.865996D-01  0.204279D-01
      8b  0.445717D+00 -0.124045D-02 -0.207927D-02 -0.855931D-01  0.416165D-01
      9a -0.124045D-02  0.103689D+01  0.634487D-01 -0.273868D-01 -0.145862D-01
      9b -0.207927D-02  0.634487D-01  0.219455D-01  0.172599D-01 -0.241293D-01
     10a -0.855931D-01 -0.273868D-01  0.172599D-01  0.138371D+01 -0.344604D+00
     10b  0.416165D-01 -0.145862D-01 -0.241293D-01 -0.344604D+00  0.473365D+00
 jaja non-ortho density matrix               [Gau-style] (imaginary):
                 1             2             3             4             5 
      1a  0.000000D+00  0.366898D-01 -0.140158D-01 -0.327504D-02 -0.115920D-01
      1b -0.366898D-01  0.000000D+00 -0.100824D-01  0.664171D-02 -0.167973D-01
      2a  0.140158D-01  0.100824D-01  0.000000D+00 -0.251052D+00  0.142330D-02
      2b  0.327504D-02 -0.664171D-02  0.251052D+00  0.000000D+00  0.333823D-02
      3a  0.115920D-01  0.167973D-01 -0.142330D-02 -0.333823D-02  0.000000D+00
      3b  0.222336D-01 -0.114947D-01  0.122613D-02  0.134631D-03 -0.167990D-01
      4a -0.930305D-04  0.366052D-01 -0.140241D-01 -0.327337D-02 -0.116051D-01
      4b -0.369208D-01  0.928481D-04 -0.100859D-01  0.664982D-02 -0.166777D-01
      5a  0.114975D-02 -0.121103D-01  0.213159D-02  0.237050D-02  0.114571D-01
      5b  0.162677D-01 -0.117378D-02 -0.877495D-05 -0.171434D-02  0.253964D-01
      6a  0.115892D-01  0.171924D-01 -0.155174D-02 -0.358308D-02 -0.183858D-03
      6b  0.218003D-01 -0.114858D-01  0.134606D-02  0.201285D-03 -0.171331D-01
      7a -0.122848D-02 -0.110708D-01  0.490665D-02  0.502249D-02  0.131334D-02
      7b  0.747541D-02  0.112795D-02  0.923337D-04 -0.287808D-02 -0.458865D-02
      8a  0.125241D-02 -0.118953D-01  0.208269D-02  0.232257D-02  0.114494D-01
      8b  0.163967D-01 -0.127535D-02 -0.164931D-04 -0.169210D-02  0.253029D-01
      9a -0.100661D-02  0.956800D-03  0.123016D-02  0.204484D-02 -0.229573D-03
      9b -0.417943D-02  0.907531D-03 -0.160453D-02  0.730164D-03 -0.151156D-02
     10a -0.121968D-02 -0.111545D-01  0.491648D-02  0.503237D-02  0.140333D-02
     10b  0.758998D-02  0.111916D-02  0.940376D-04 -0.288754D-02 -0.437412D-02
                 6             7             8             9            10 
      1a -0.222336D-01  0.930305D-04  0.369208D-01 -0.114975D-02 -0.162677D-01
      1b  0.114947D-01 -0.366052D-01 -0.928481D-04  0.121103D-01  0.117378D-02
      2a -0.122613D-02  0.140241D-01  0.100859D-01 -0.213159D-02  0.877495D-05
      2b -0.134631D-03  0.327337D-02 -0.664982D-02 -0.237050D-02  0.171434D-02
      3a  0.167990D-01  0.116051D-01  0.166777D-01 -0.114571D-01 -0.253964D-01
      3b  0.000000D+00  0.223970D-01 -0.115075D-01 -0.134456D-01  0.114557D-01
      4a -0.223970D-01  0.000000D+00  0.368374D-01 -0.105948D-02 -0.160771D-01
      4b  0.115075D-01 -0.368374D-01  0.000000D+00  0.122253D-01  0.108365D-02
      5a  0.134456D-01  0.105948D-02 -0.122253D-01  0.000000D+00  0.373017D-01
      5b -0.114557D-01  0.160771D-01 -0.108365D-02 -0.373017D-01  0.000000D+00
      6a  0.165107D-01  0.116038D-01  0.170756D-01 -0.114627D-01 -0.258171D-01
      6b  0.183533D-03  0.219660D-01 -0.115000D-01 -0.130430D-01  0.114613D-01
      7a  0.899095D-02 -0.123754D-02 -0.111524D-01  0.114341D-01  0.263420D-01
      7b -0.130406D-02  0.752675D-02  0.113695D-02  0.124489D-01 -0.114351D-01
      8a  0.135135D-01  0.116230D-02 -0.120107D-01 -0.184320D-03  0.368903D-01
      8b -0.114482D-01  0.162069D-01 -0.118536D-02 -0.375158D-01  0.184341D-03
      9a  0.718319D-03 -0.100611D-02  0.953556D-03  0.110300D-03 -0.621961D-03
      9b  0.238202D-03 -0.417445D-02  0.906974D-03  0.996430D-03 -0.110277D-03
     10a  0.908156D-02 -0.122945D-02 -0.112369D-01  0.114191D-01  0.266073D-01
     10b -0.139404D-02  0.763967D-02  0.112887D-02  0.121325D-01 -0.114201D-01
                11            12            13            14            15 
      1a -0.115892D-01 -0.218003D-01  0.122848D-02 -0.747541D-02 -0.125241D-02
      1b -0.171924D-01  0.114858D-01  0.110708D-01 -0.112795D-02  0.118953D-01
      2a  0.155174D-02 -0.134606D-02 -0.490665D-02 -0.923337D-04 -0.208269D-02
      2b  0.358308D-02 -0.201285D-03 -0.502249D-02  0.287808D-02 -0.232257D-02
      3a  0.183858D-03  0.171331D-01 -0.131334D-02  0.458865D-02 -0.114494D-01
      3b -0.165107D-01 -0.183533D-03 -0.899095D-02  0.130406D-02 -0.135135D-01
      4a -0.116038D-01 -0.219660D-01  0.123754D-02 -0.752675D-02 -0.116230D-02
      4b -0.170756D-01  0.115000D-01  0.111524D-01 -0.113695D-02  0.120107D-01
      5a  0.114627D-01  0.130430D-01 -0.114341D-01 -0.124489D-01  0.184320D-03
      5b  0.258171D-01 -0.114613D-01 -0.263420D-01  0.114351D-01 -0.368903D-01
      6a  0.000000D+00  0.168513D-01 -0.121390D-02  0.463631D-02 -0.114573D-01
      6b -0.168513D-01  0.000000D+00 -0.869698D-02  0.120383D-02 -0.131159D-01
      7a  0.121390D-02  0.869698D-02  0.000000D+00  0.278652D-01  0.114469D-01
      7b -0.463631D-02 -0.120383D-02 -0.278652D-01  0.000000D+00  0.126401D-01
      8a  0.114573D-01  0.131159D-01 -0.114469D-01 -0.126401D-01  0.000000D+00
      8b  0.257264D-01 -0.114561D-01 -0.261944D-01  0.114479D-01 -0.371062D-01
      9a -0.236596D-03  0.722558D-03  0.344004D-02  0.568159D-02  0.808862D-04
      9b -0.154112D-02  0.245970D-03  0.597102D-02 -0.343509D-02  0.831021D-03
     10a  0.130405D-02  0.878473D-02 -0.914748D-04  0.277212D-01  0.114333D-01
     10b -0.441838D-02 -0.129397D-02 -0.280314D-01  0.914683D-04  0.123268D-01
                16            17            18            19            20 
      1a -0.163967D-01  0.100661D-02  0.417943D-02  0.121968D-02 -0.758998D-02
      1b  0.127535D-02 -0.956800D-03 -0.907531D-03  0.111545D-01 -0.111916D-02
      2a  0.164931D-04 -0.123016D-02  0.160453D-02 -0.491648D-02 -0.940376D-04
      2b  0.169210D-02 -0.204484D-02 -0.730164D-03 -0.503237D-02  0.288754D-02
      3a -0.253029D-01  0.229573D-03  0.151156D-02 -0.140333D-02  0.437412D-02
      3b  0.114482D-01 -0.718319D-03 -0.238202D-03 -0.908156D-02  0.139404D-02
      4a -0.162069D-01  0.100611D-02  0.417445D-02  0.122945D-02 -0.763967D-02
      4b  0.118536D-02 -0.953556D-03 -0.906974D-03  0.112369D-01 -0.112887D-02
      5a  0.375158D-01 -0.110300D-03 -0.996430D-03 -0.114191D-01 -0.121325D-01
      5b -0.184341D-03  0.621961D-03  0.110277D-03 -0.266073D-01  0.114201D-01
      6a -0.257264D-01  0.236596D-03  0.154112D-02 -0.130405D-02  0.441838D-02
      6b  0.114561D-01 -0.722558D-03 -0.245970D-03 -0.878473D-02  0.129397D-02
      7a  0.261944D-01 -0.344004D-02 -0.597102D-02  0.914748D-04  0.280314D-01
      7b -0.114479D-01 -0.568159D-02  0.343509D-02 -0.277212D-01 -0.914683D-04
      8a  0.371062D-01 -0.808862D-04 -0.831021D-03 -0.114333D-01 -0.123268D-01
      8b  0.000000D+00  0.556059D-03  0.809746D-04 -0.264615D-01  0.114343D-01
      9a -0.556059D-03  0.000000D+00 -0.132525D+00  0.343578D-02  0.567983D-02
      9b -0.809746D-04  0.132525D+00  0.000000D+00  0.595833D-02 -0.343082D-02
     10a  0.264615D-01 -0.343578D-02 -0.595833D-02  0.000000D+00  0.278898D-01
     10b -0.114343D-01 -0.567983D-02  0.343082D-02 -0.278898D-01  0.000000D+00
FORTRAN STOP
