 Entering Gaussian System, Link 0=g09
 AtFile(1): H.gbs
            H     0
            S   10   1.00
               1000.000000000000            0.000068713567
                316.227766000000            0.000169141320
                100.000000000000            0.000823394812
                 31.622776600000            0.003425569236
                 10.000000000000            0.013951996000
                  3.162277660000            0.056909313560
                  1.000000000000            0.198286399900
                  0.316227766000            0.496922426700
                  0.100000000000            0.369846276400
                  0.031622776600            0.003752720039
            ****
 Initial command:
 /projects/guscus/apps/gau/g09-e1/g09/l1.exe "/users/lcj1/gaussian/h8/stable/Gau-24747.inp" -scrdir="/users/lcj1/gaussian/h8/stable/"
 Entering Link 1 = /projects/guscus/apps/gau/g09-e1/g09/l1.exe PID=     24748.
  
 Copyright (c) 1988,1990,1992,1993,1995,1998,2003,2009,2015,
            Gaussian, Inc.  All Rights Reserved.
  
 This is part of the Gaussian(R) 09 program.  It is based on
 the Gaussian(R) 03 system (copyright 2003, Gaussian, Inc.),
 the Gaussian(R) 98 system (copyright 1998, Gaussian, Inc.),
 the Gaussian(R) 94 system (copyright 1995, Gaussian, Inc.),
 the Gaussian 92(TM) system (copyright 1992, Gaussian, Inc.),
 the Gaussian 90(TM) system (copyright 1990, Gaussian, Inc.),
 the Gaussian 88(TM) system (copyright 1988, Gaussian, Inc.),
 the Gaussian 86(TM) system (copyright 1986, Carnegie Mellon
 University), and the Gaussian 82(TM) system (copyright 1983,
 Carnegie Mellon University). Gaussian is a federally registered
 trademark of Gaussian, Inc.
  
 This software contains proprietary and confidential information,
 including trade secrets, belonging to Gaussian, Inc.
  
 This software is provided under written license and may be
 used, copied, transmitted, or stored only in accord with that
 written license.
  
 The following legend is applicable only to US Government
 contracts under FAR:
  
                    RESTRICTED RIGHTS LEGEND
  
 Use, reproduction and disclosure by the US Government is
 subject to restrictions as set forth in subparagraphs (a)
 and (c) of the Commercial Computer Software - Restricted
 Rights clause in FAR 52.227-19.
  
 Gaussian, Inc.
 340 Quinnipiac St., Bldg. 40, Wallingford CT 06492
  
  
 ---------------------------------------------------------------
 Warning -- This program may not be used in any manner that
 competes with the business of Gaussian, Inc. or will provide
 assistance to any competitor of Gaussian, Inc.  The licensee
 of this program is prohibited from giving any competitor of
 Gaussian, Inc. access to this program.  By using this program,
 the user acknowledges that Gaussian, Inc. is engaged in the
 business of creating and licensing software in the field of
 computational chemistry and represents and warrants to the
 licensee that it is not a competitor of Gaussian, Inc. and that
 it will not use this program in any manner prohibited above.
 ---------------------------------------------------------------
  

 Cite this work as:
 Gaussian 09, Revision E.01,
 M. J. Frisch, G. W. Trucks, H. B. Schlegel, G. E. Scuseria, 
 M. A. Robb, J. R. Cheeseman, G. Scalmani, V. Barone, B. Mennucci, 
 G. A. Petersson, H. Nakatsuji, M. Caricato, X. Li, H. P. Hratchian, 
 A. F. Izmaylov, J. Bloino, G. Zheng, J. L. Sonnenberg, M. Hada, 
 M. Ehara, K. Toyota, R. Fukuda, J. Hasegawa, M. Ishida, T. Nakajima, 
 Y. Honda, O. Kitao, H. Nakai, T. Vreven, J. A. Montgomery, Jr., 
 J. E. Peralta, F. Ogliaro, M. Bearpark, J. J. Heyd, E. Brothers, 
 K. N. Kudin, V. N. Staroverov, T. Keith, R. Kobayashi, J. Normand, 
 K. Raghavachari, A. Rendell, J. C. Burant, S. S. Iyengar, J. Tomasi, 
 M. Cossi, N. Rega, J. M. Millam, M. Klene, J. E. Knox, J. B. Cross, 
 V. Bakken, C. Adamo, J. Jaramillo, R. Gomperts, R. E. Stratmann, 
 O. Yazyev, A. J. Austin, R. Cammi, C. Pomelli, J. W. Ochterski, 
 R. L. Martin, K. Morokuma, V. G. Zakrzewski, G. A. Voth, 
 P. Salvador, J. J. Dannenberg, S. Dapprich, A. D. Daniels, 
 O. Farkas, J. B. Foresman, J. V. Ortiz, J. Cioslowski, 
 and D. J. Fox, Gaussian, Inc., Wallingford CT, 2013.
 
 ******************************************
 Gaussian 09:  ES64L-G09RevE.01 30-Nov-2015
                20-Jan-2017 
 ******************************************
 %chk=h8.chk
 ----------------------------------------------------------------------
 #t rhf/gen scf(tight,novaracc,noincfock) stable(crhf) guess=mix geom=n
 ocrowd test
 ----------------------------------------------------------------------
 ----------------------------------------------------------------------
 scf stability calculation for a triangular configuration of 88888888 H
  atoms (made up of 8 iscosceles triangles)
 ----------------------------------------------------------------------
 Symbolic Z-matrix:
 Charge =  0 Multiplicity = 1
 H                     0.        0.        2.999 
 H                     0.19251   0.        0. 
 H                    -0.19251   0.        0. 
 H                     0.        0.       -2.999 
 H                     0.38503   0.       -2.999 
 H                    -0.38503   0.       -2.999 
 H                     0.19251   0.       -5.998 
 H                    -0.19251   0.       -5.998 
 
                    Distance matrix (angstroms):
                    1          2          3          4          5
     1  H    0.000000
     2  H    3.005173   0.000000
     3  H    3.005173   0.385028   0.000000
     4  H    5.998000   3.005173   3.005173   0.000000
     5  H    6.010345   3.005173   3.054105   0.385028   0.000000
     6  H    6.010345   3.054105   3.005173   0.385028   0.770056
     7  H    8.999059   5.998000   6.010345   3.005173   3.005173
     8  H    8.999059   6.010345   5.998000   3.005173   3.054105
                    6          7          8
     6  H    0.000000
     7  H    3.054105   0.000000
     8  H    3.005173   0.385028   0.000000
 Framework group  C2V[C2(HH),SGV(H6)]
 Deg. of freedom     7
                         Standard orientation:                         
 ---------------------------------------------------------------------
 Center     Atomic      Atomic             Coordinates (Angstroms)
 Number     Number       Type             X           Y           Z
 ---------------------------------------------------------------------
      1          1           0        0.000000    0.000000    5.248250
      2          1           0        0.000000    0.192514    2.249250
      3          1           0       -0.000000   -0.192514    2.249250
      4          1           0        0.000000    0.000000   -0.749750
      5          1           0        0.000000    0.385028   -0.749750
      6          1           0       -0.000000   -0.385028   -0.749750
      7          1           0        0.000000    0.192514   -3.748750
      8          1           0       -0.000000   -0.192514   -3.748750
 ---------------------------------------------------------------------
 Rotational constants (GHZ):   1127.5249774      7.4339196      7.3852278
     8 basis functions,    80 primitive gaussians,     8 cartesian basis functions
     4 alpha electrons        4 beta electrons
       nuclear repulsion energy         9.3731580142 Hartrees.
 NAtoms=    8 NActive=    8 NUniq=    5 SFac= 2.56D+00 NAtFMM=   60 NAOKFM=F Big=F
 ExpMin= 3.16D-02 ExpMax= 1.00D+03 ExpMxC= 1.00D+01 IAcc=3 IRadAn=         5 AccDes= 0.00D+00
 Harris functional with IExCor=  205 and IRadAn=       5 diagonalized for initial guess.
 HarFok:  IExCor=  205 AccDes= 0.00D+00 IRadAn=         5 IDoV= 1 UseB2=F ITyADJ=14
 ICtDFT=  3500011 ScaDFX=  1.000000  1.000000  1.000000  1.000000
 FoFCou: FMM=F IPFlag=           0 FMFlag=      100000 FMFlg1=           0
         NFxFlg=           0 DoJE=T BraDBF=F KetDBF=T FulRan=T
         wScrn=  0.000000 ICntrl=     500 IOpCl=  0 I1Cent=   200000004 NGrid=           0
         NMat0=    1 NMatS0=      1 NMatT0=    0 NMatD0=    1 NMtDS0=    0 NMtDT0=    0
 Petite list used in FoFCou.
 Mixing orbitals, IMix= 1 IMixAn=  0 NRI=1 NE=    4 Coef=  7.07106781D-01  7.07106781D-01
 Initial guess orbital symmetries:
       Occupied  (A1) (A1) (A1) (?A)
       Virtual   (?A) (B2) (B2) (A1)
 An orbital has undefined symmetry, so N**3 symmetry is turned off.
 EnCoef did   100 forward-backward iterations
 SCF Done:  E(RHF) =  -2.28495674147     A.U. after   11 cycles
            NFock= 11  Conv=0.28D-08     -V/T= 1.5331
 NROrb=      8 NOA=     4 NOB=     4 NVA=     4 NVB=     4

 **** Warning!!: The smallest alpha delta epsilon is  0.87663349D-01

 Semi-Direct transformation.
 ModeAB=           2 MOrb=             4 LenV=     134129947
 LASXX=          409 LTotXX=         409 LenRXX=         409
 LTotAB=         616 MaxLAS=        1152 LenRXY=        1152
 NonZer=        1152 LenScr=      655360 LnRSAI=           0
 LnScr1=           0 LExtra=           0 Total=       656921
 MaxDsk=          -1 SrtSym=           F ITran=            3
 JobTyp=0 Pass  1:  I=   1 to   4.
 (rs|ai) integrals will be sorted in core.
 SymMOI:  orbitals are not symmetric.
 ANorm=    0.1618218954D+01
 E2 =    -0.3027716786D+00 EUMP2 =    -0.25877284200753D+01
 Second order stability test of a single determinant RHF wave function:
 Stabil:  MDV=134217728
 ***********************************************************************
 Matrix         Lowest Root    Major Pairs
 ***********************************************************************
 Internal RHF     0.4343671    Stable
 RRHF --> CRHF   -0.0000006    Zero root
 RRHF --> RUHF   -0.448097     4A=5B
 Not stable.
 ***********************************************************************

 **********************************************************************

            Population analysis using the SCF density.

 **********************************************************************

 Orbital symmetries:
       Occupied  (A1) (A1) (A1) (?A)
       Virtual   (?A) (B2) (B2) (A1)
 Unable to determine electronic state:  an orbital has unidentified symmetry.
 Alpha  occ. eigenvalues --   -1.16224  -0.80026  -0.75708  -0.13082
 Alpha virt. eigenvalues --   -0.04316   0.70375   0.74663   1.85425
          Condensed to atoms (all electrons):
 Mulliken charges:
               1
     1  H   -0.370854
     2  H   -0.000741
     3  H   -0.000032
     4  H   -1.233763
     5  H    0.804164
     6  H    0.801594
     7  H   -0.000169
     8  H   -0.000199
 Sum of Mulliken charges =   0.00000
 Mulliken charges with hydrogens summed into heavy atoms:
               1
 Electronic spatial extent (au):  <R**2>=            301.7728
 Charge=              0.0000 electrons
 Dipole moment (field-independent basis, Debye):
    X=             -0.0000    Y=              0.0041    Z=            -10.6900  Tot=             10.6900

 Test job not archived.
 1\1\GINC-SULU\Stability\RHF\Gen\H8\LCJ1\20-Jan-2017\0\\#t rhf/gen scf(
 tight,novaracc,noincfock) stable(crhf) guess=mix geom=nocrowd test\\sc
 f stability calculation for a triangular configuration of 88888888 H a
 toms (made up of 8 iscosceles triangles)\\0,1\H,0,0.,0.,2.999\H,0,0.19
 2514,0.,0.\H,0,-0.192514,0.,0.\H,0,0.,0.,-2.999\H,0,0.385028,0.,-2.999
 \H,0,-0.385028,0.,-2.999\H,0,0.192514,0.,-5.998\H,0,-0.192514,0.,-5.99
 8\\Version=ES64L-G09RevE.01\HF=-2.2849567\MP2=-2.5877284\RMSD=2.822e-0
 9\Dipole=0.0016233,0.,-4.2057708\Quadrupole=12.1780355,11.9260098,-24.
 1040453,0.,0.0021673,0.\PG=C02V [C2(H1H1),SGV(H6)]\\@


 IT IS IMPOSSIBLE TO MEDITATE ON TIME AND THE MYSTERY 
 OF NATURE WITHOUT AN OVERWHELMING EMOTION AT THE
 LIMITATIONS OF HUMAN INTELLIGENCE.

                                         -- ALFRED NORTH WHITEHEAD
 Job cpu time:       0 days  0 hours  0 minutes  1.5 seconds.
 File lengths (MBytes):  RWF=     84 Int=      0 D2E=      0 Chk=      2 Scr=      2
 Normal termination of Gaussian 09 at Fri Jan 20 17:57:15 2017.
