 Entering Gaussian System, Link 0=g09
 AtFile(1): H.gbs
            H     0
            S   10   1.00
               1000.000000000000            0.000068713567
                316.227766000000            0.000169141320
                100.000000000000            0.000823394812
                 31.622776600000            0.003425569236
                 10.000000000000            0.013951996000
                  3.162277660000            0.056909313560
                  1.000000000000            0.198286399900
                  0.316227766000            0.496922426700
                  0.100000000000            0.369846276400
                  0.031622776600            0.003752720039
            ****
 Initial command:
 /projects/guscus/apps/gau/g09-e1/g09/l1.exe "/users/lcj1/gaussian/h10/rhfstability/2rows/zmatrix/constarea/bck/Gau-17535.inp" -scrdir="/users/lcj1/gaussian/h10/rhfstability/2rows/zmatrix/constarea/bck/"
 Entering Link 1 = /projects/guscus/apps/gau/g09-e1/g09/l1.exe PID=     17536.
  
 Copyright (c) 1988,1990,1992,1993,1995,1998,2003,2009,2015,
            Gaussian, Inc.  All Rights Reserved.
  
 This is part of the Gaussian(R) 09 program.  It is based on
 the Gaussian(R) 03 system (copyright 2003, Gaussian, Inc.),
 the Gaussian(R) 98 system (copyright 1998, Gaussian, Inc.),
 the Gaussian(R) 94 system (copyright 1995, Gaussian, Inc.),
 the Gaussian 92(TM) system (copyright 1992, Gaussian, Inc.),
 the Gaussian 90(TM) system (copyright 1990, Gaussian, Inc.),
 the Gaussian 88(TM) system (copyright 1988, Gaussian, Inc.),
 the Gaussian 86(TM) system (copyright 1986, Carnegie Mellon
 University), and the Gaussian 82(TM) system (copyright 1983,
 Carnegie Mellon University). Gaussian is a federally registered
 trademark of Gaussian, Inc.
  
 This software contains proprietary and confidential information,
 including trade secrets, belonging to Gaussian, Inc.
  
 This software is provided under written license and may be
 used, copied, transmitted, or stored only in accord with that
 written license.
  
 The following legend is applicable only to US Government
 contracts under FAR:
  
                    RESTRICTED RIGHTS LEGEND
  
 Use, reproduction and disclosure by the US Government is
 subject to restrictions as set forth in subparagraphs (a)
 and (c) of the Commercial Computer Software - Restricted
 Rights clause in FAR 52.227-19.
  
 Gaussian, Inc.
 340 Quinnipiac St., Bldg. 40, Wallingford CT 06492
  
  
 ---------------------------------------------------------------
 Warning -- This program may not be used in any manner that
 competes with the business of Gaussian, Inc. or will provide
 assistance to any competitor of Gaussian, Inc.  The licensee
 of this program is prohibited from giving any competitor of
 Gaussian, Inc. access to this program.  By using this program,
 the user acknowledges that Gaussian, Inc. is engaged in the
 business of creating and licensing software in the field of
 computational chemistry and represents and warrants to the
 licensee that it is not a competitor of Gaussian, Inc. and that
 it will not use this program in any manner prohibited above.
 ---------------------------------------------------------------
  

 Cite this work as:
 Gaussian 09, Revision E.01,
 M. J. Frisch, G. W. Trucks, H. B. Schlegel, G. E. Scuseria, 
 M. A. Robb, J. R. Cheeseman, G. Scalmani, V. Barone, B. Mennucci, 
 G. A. Petersson, H. Nakatsuji, M. Caricato, X. Li, H. P. Hratchian, 
 A. F. Izmaylov, J. Bloino, G. Zheng, J. L. Sonnenberg, M. Hada, 
 M. Ehara, K. Toyota, R. Fukuda, J. Hasegawa, M. Ishida, T. Nakajima, 
 Y. Honda, O. Kitao, H. Nakai, T. Vreven, J. A. Montgomery, Jr., 
 J. E. Peralta, F. Ogliaro, M. Bearpark, J. J. Heyd, E. Brothers, 
 K. N. Kudin, V. N. Staroverov, T. Keith, R. Kobayashi, J. Normand, 
 K. Raghavachari, A. Rendell, J. C. Burant, S. S. Iyengar, J. Tomasi, 
 M. Cossi, N. Rega, J. M. Millam, M. Klene, J. E. Knox, J. B. Cross, 
 V. Bakken, C. Adamo, J. Jaramillo, R. Gomperts, R. E. Stratmann, 
 O. Yazyev, A. J. Austin, R. Cammi, C. Pomelli, J. W. Ochterski, 
 R. L. Martin, K. Morokuma, V. G. Zakrzewski, G. A. Voth, 
 P. Salvador, J. J. Dannenberg, S. Dapprich, A. D. Daniels, 
 O. Farkas, J. B. Foresman, J. V. Ortiz, J. Cioslowski, 
 and D. J. Fox, Gaussian, Inc., Wallingford CT, 2013.
 
 ******************************************
 Gaussian 09:  ES64L-G09RevE.01 30-Nov-2015
                 9-Feb-2017 
 ******************************************
 %chk=h10.chk
 ----------------------------------------------------------------------
 #rhf/gen scf(symm,tight,novaracc,noincfock,fulldiag) stable(crhf) geom
 =nocrowd test
 ----------------------------------------------------------------------
 1/38=1/1;
 2/12=1,17=6,18=5,40=1/2;
 3/5=7,16=1,25=1,30=1,116=1/1,2,3;
 4/9=4/1;
 5/5=100002,15=2,16=1,32=2,38=1/2;
 8/6=1,10=90,11=11/1,4;
 9/8=4,13=1/2;
 6/7=2,8=2,9=2,10=2,28=1/1;
 99/5=1,9=1/99;
 ----------------------------------------------------------------------
 hf stability analysis of h10 triangular lattice, y= 0.5306529471566099
 3
 ----------------------------------------------------------------------
 Symbolic Z-matrix:
 Charge =  0 Multiplicity = 1
 H
 H                    1     1.21051 
 H                    1     1.21051  2     128. 
 H                    2     1.21051  1     52.      3     0.       0
 H                    3     1.21051  1     180.     2     0.       0
 H                    4     1.21051  2     180.     1     0.       0
 H                    5     1.21051  3     180.     2     0.       0
 H                    6     1.21051  4     180.     1     0.       0
 H                    7     1.21051  5     180.     2     0.       0
 H                    8     1.21051  6     180.     1     0.       0
 
                          Input orientation:                          
 ---------------------------------------------------------------------
 Center     Atomic      Atomic             Coordinates (Angstroms)
 Number     Number       Type             X           Y           Z
 ---------------------------------------------------------------------
      1          1           0        0.000000    0.000000    0.000000
      2          1           0        0.000000    0.000000    1.210511
      3          1           0        0.953895    0.000000   -0.745265
      4          1           0        0.953895    0.000000    0.465246
      5          1           0        1.907791    0.000000   -1.490530
      6          1           0        1.907791    0.000000   -0.280019
      7          1           0        2.861686    0.000000   -2.235794
      8          1           0        2.861686    0.000000   -1.025284
      9          1           0        3.815582    0.000000   -2.981059
     10          1           0        3.815582    0.000000   -1.770548
 ---------------------------------------------------------------------
                    Distance matrix (angstroms):
                    1          2          3          4          5
     1  H    0.000000
     2  H    1.210511   0.000000
     3  H    1.210511   2.175999   0.000000
     4  H    1.061306   1.210511   1.210511   0.000000
     5  H    2.421021   3.306854   1.210511   2.175999   0.000000
     6  H    1.928231   2.421021   1.061306   1.210511   1.210511
     7  H    3.631532   4.479539   2.421021   3.306854   1.210511
     8  H    3.039812   3.631532   1.928231   2.421021   1.061306
     9  H    4.842043   5.668150   3.631532   4.479539   2.421021
    10  H    4.206365   4.842043   3.039812   3.631532   1.928231
                    6          7          8          9         10
     6  H    0.000000
     7  H    2.175999   0.000000
     8  H    1.210511   1.210511   0.000000
     9  H    3.306854   1.210511   2.175999   0.000000
    10  H    2.421021   1.061306   1.210511   1.210511   0.000000
 Stoichiometry    H10
 Framework group  C2H[SGH(H10)]
 Deg. of freedom     9
 Full point group                 C2H     NOp   4
 Largest Abelian subgroup         C2H     NOp   4
 Largest concise Abelian subgroup C2      NOp   2
                         Standard orientation:                         
 ---------------------------------------------------------------------
 Center     Atomic      Atomic             Coordinates (Angstroms)
 Number     Number       Type             X           Y           Z
 ---------------------------------------------------------------------
      1          1           0        1.907791   -0.885274    0.000000
      2          1           0        1.907791   -2.095785    0.000000
      3          1           0        0.953895   -0.140009    0.000000
      4          1           0        0.953895   -1.350520    0.000000
      5          1           0        0.000000    0.605255   -0.000000
      6          1           0       -0.000000   -0.605255   -0.000000
      7          1           0       -0.953895    1.350520    0.000000
      8          1           0       -0.953895    0.140009    0.000000
      9          1           0       -1.907791    2.095785    0.000000
     10          1           0       -1.907791    0.885274    0.000000
 ---------------------------------------------------------------------
 Rotational constants (GHZ):    231.7172282     16.2778506     15.2094083
 General basis read from cards:  (5D, 7F)
 There are     5 symmetry adapted cartesian basis functions of AG  symmetry.
 There are     0 symmetry adapted cartesian basis functions of BG  symmetry.
 There are     0 symmetry adapted cartesian basis functions of AU  symmetry.
 There are     5 symmetry adapted cartesian basis functions of BU  symmetry.
 There are     5 symmetry adapted basis functions of AG  symmetry.
 There are     0 symmetry adapted basis functions of BG  symmetry.
 There are     0 symmetry adapted basis functions of AU  symmetry.
 There are     5 symmetry adapted basis functions of BU  symmetry.
    10 basis functions,   100 primitive gaussians,    10 cartesian basis functions
     5 alpha electrons        5 beta electrons
       nuclear repulsion energy        12.8700439752 Hartrees.
 NAtoms=   10 NActive=   10 NUniq=    5 SFac= 4.00D+00 NAtFMM=   60 NAOKFM=F Big=F
 Integral buffers will be    131072 words long.
 Regular integral format.
 Two-electron integral symmetry is turned on.
 One-electron integrals computed using PRISM.
 NBasis=    10 RedAO= T EigKep=  1.94D-01  NBF=     5     0     0     5
 NBsUse=    10 1.00D-06 EigRej= -1.00D+00 NBFU=     5     0     0     5
 ExpMin= 3.16D-02 ExpMax= 1.00D+03 ExpMxC= 1.00D+01 IAcc=3 IRadAn=         5 AccDes= 0.00D+00
 Harris functional with IExCor=  205 and IRadAn=       5 diagonalized for initial guess.
 HarFok:  IExCor=  205 AccDes= 0.00D+00 IRadAn=         5 IDoV= 1 UseB2=F ITyADJ=14
 ICtDFT=  3500011 ScaDFX=  1.000000  1.000000  1.000000  1.000000
 FoFCou: FMM=F IPFlag=           0 FMFlag=      100000 FMFlg1=           0
         NFxFlg=           0 DoJE=T BraDBF=F KetDBF=T FulRan=T
         wScrn=  0.000000 ICntrl=     500 IOpCl=  0 I1Cent=   200000004 NGrid=           0
         NMat0=    1 NMatS0=      1 NMatT0=    0 NMatD0=    1 NMtDS0=    0 NMtDT0=    0
 Petite list used in FoFCou.
 Initial guess orbital symmetries:
       Occupied  (AG) (BU) (AG) (BU) (BU)
       Virtual   (AG) (AG) (BU) (BU) (AG)
 The electronic state of the initial guess is 1-AG.
 Keep R1 ints in memory in symmetry-blocked form, NReq=878531.
 Requested convergence on RMS density matrix=1.00D-08 within 128 cycles.
 Requested convergence on MAX density matrix=1.00D-06.
 Requested convergence on             energy=1.00D-06.
 No special actions if energy rises.
 SCF Done:  E(RHF) =  -4.84944257514     A.U. after   10 cycles
            NFock= 10  Conv=0.30D-08     -V/T= 1.9697
 Range of M.O.s used for correlation:     1    10
 NBasis=    10 NAE=     5 NBE=     5 NFC=     0 NFV=     0
 NROrb=     10 NOA=     5 NOB=     5 NVA=     5 NVB=     5
 Semi-Direct transformation.
 ModeAB=           4 MOrb=             5 LenV=     134107862
 LASXX=         1030 LTotXX=        1030 LenRXX=        2480
 LTotAB=        1450 MaxLAS=        1500 LenRXY=           0
 NonZer=        3510 LenScr=      655360 LnRSAI=        1500
 LnScr1=      655360 LExtra=           0 Total=      1314700
 MaxDsk=          -1 SrtSym=           T ITran=            3
 JobTyp=0 Pass  1:  I=   1 to   5.
 (rs|ai) integrals will be sorted in core.
 Spin components of T(2) and E(2):
     alpha-alpha T2 =       0.6581249436D-02 E2=     -0.7601038845D-02
     alpha-beta  T2 =       0.8732592830D-01 E2=     -0.1021168941D+00
     beta-beta   T2 =       0.6581249436D-02 E2=     -0.7601038845D-02
 ANorm=    0.1049041671D+01
 E2 =    -0.1173189717D+00 EUMP2 =    -0.49667615468855D+01
 Second order stability test of a single determinant RHF wave function:
 Stabil:  MDV=134217728
 ***********************************************************************
 Matrix         Lowest Root    Major Pairs
 ***********************************************************************
 Internal RHF     0.1103668    Stable
 RRHF --> CRHF    0.0654764    Stable
 RRHF --> RUHF   -0.0892899    5A=6B
 Not stable.
 ***********************************************************************

 **********************************************************************

            Population analysis using the SCF density.

 **********************************************************************

 Orbital symmetries:
       Occupied  (AG) (BU) (AG) (BU) (BU)
       Virtual   (AG) (AG) (BU) (BU) (AG)
 The electronic state is 1-AG.
 Alpha  occ. eigenvalues --   -0.82257  -0.73618  -0.55317  -0.32489  -0.28358
 Alpha virt. eigenvalues --    0.02083   0.16770   0.24382   0.46082   0.58629
          Condensed to atoms (all electrons):
               1          2          3          4          5          6
     1  H    0.661101   0.243019   0.075019  -0.000697   0.040026  -0.139375
     2  H    0.243019   0.926255  -0.120937   0.051972   0.002838  -0.059439
     3  H    0.075019  -0.120937   1.168784  -0.032404   0.181069   0.036965
     4  H   -0.000697   0.051972  -0.032404   0.678385  -0.111913   0.295424
     5  H    0.040026   0.002838   0.181069  -0.111913   1.132145  -0.307702
     6  H   -0.139375  -0.059439   0.036965   0.295424  -0.307702   1.132145
     7  H    0.007844   0.001092   0.012223  -0.015128   0.295424  -0.111913
     8  H   -0.016259   0.010466  -0.195734   0.012223   0.036965   0.181069
     9  H   -0.000001  -0.000299   0.010466   0.001092  -0.059439   0.002838
    10  H   -0.001670  -0.000001  -0.016259   0.007844  -0.139375   0.040026
               7          8          9         10
     1  H    0.007844  -0.016259  -0.000001  -0.001670
     2  H    0.001092   0.010466  -0.000299  -0.000001
     3  H    0.012223  -0.195734   0.010466  -0.016259
     4  H   -0.015128   0.012223   0.001092   0.007844
     5  H    0.295424   0.036965  -0.059439  -0.139375
     6  H   -0.111913   0.181069   0.002838   0.040026
     7  H    0.678385  -0.032404   0.051972  -0.000697
     8  H   -0.032404   1.168784  -0.120937   0.075019
     9  H    0.051972  -0.120937   0.926255   0.243019
    10  H   -0.000697   0.075019   0.243019   0.661101
 Mulliken charges:
               1
     1  H    0.130993
     2  H   -0.054967
     3  H   -0.119191
     4  H    0.113203
     5  H   -0.070038
     6  H   -0.070038
     7  H    0.113203
     8  H   -0.119191
     9  H   -0.054967
    10  H    0.130993
 Sum of Mulliken charges =  -0.00000
 Mulliken charges with hydrogens summed into heavy atoms:
               1
 Electronic spatial extent (au):  <R**2>=            147.4788
 Charge=             -0.0000 electrons
 Dipole moment (field-independent basis, Debye):
    X=             -0.0000    Y=             -0.0000    Z=              0.0000  Tot=              0.0000
 Quadrupole moment (field-independent basis, Debye-Ang):
   XX=            -12.4893   YY=            -14.4343   ZZ=            -13.0785
   XY=             -0.8063   XZ=             -0.0000   YZ=             -0.0000
 Traceless Quadrupole moment (field-independent basis, Debye-Ang):
   XX=              0.8447   YY=             -1.1003   ZZ=              0.2555
   XY=             -0.8063   XZ=             -0.0000   YZ=             -0.0000
 Octapole moment (field-independent basis, Debye-Ang**2):
  XXX=             -0.0000  YYY=             -0.0000  ZZZ=             -0.0000  XYY=             -0.0000
  XXY=              0.0000  XXZ=             -0.0000  XZZ=             -0.0000  YZZ=             -0.0000
  YYZ=             -0.0000  XYZ=              0.0000
 Hexadecapole moment (field-independent basis, Debye-Ang**3):
 XXXX=           -167.7628 YYYY=           -143.4527 ZZZZ=            -15.9037 XXXY=             66.0462
 XXXZ=              0.0000 YYYX=             64.0458 YYYZ=             -0.0000 ZZZX=              0.0000
 ZZZY=             -0.0000 XXYY=            -59.8348 XXZZ=            -30.0642 YYZZ=            -25.8736
 XXYZ=             -0.0000 YYXZ=              0.0000 ZZXY=             19.0790
 N-N= 1.287004397516D+01 E-N=-3.499938882503D+01  KE= 5.001190396204D+00
 Symmetry AG   KE= 1.449702287281D+00
 Symmetry BG   KE= 0.000000000000D+00
 Symmetry AU   KE= 0.000000000000D+00
 Symmetry BU   KE= 3.551488108923D+00

 Test job not archived.
 1\1\GINC-SULU\Stability\RHF\Gen\H10\LCJ1\09-Feb-2017\0\\#rhf/gen scf(s
 ymm,tight,novaracc,noincfock,fulldiag) stable(crhf) geom=nocrowd test\
 \hf stability analysis of h10 triangular lattice, y= 0.530652947156609
 93\\0,1\H\H,1,1.2105106308\H,1,1.2105106308,2,128.\H,2,1.2105106308,1,
 52.,3,0.,0\H,3,1.2105106308,1,180.,2,0.,0\H,4,1.2105106308,2,180.,1,0.
 ,0\H,5,1.2105106308,3,180.,2,0.,0\H,6,1.2105106308,4,180.,1,0.,0\H,7,1
 .2105106308,5,180.,2,0.,0\H,8,1.2105106308,6,180.,1,0.,0\\Version=ES64
 L-G09RevE.01\State=1-AG\HF=-4.8494426\MP2=-4.9667615\RMSD=3.014e-09\Di
 pole=0.,0.,0.\Quadrupole=0.6280464,0.1899836,-0.81803,0.,-0.5994326,0.
 \PG=C02H [SGH(H10)]\\@


 FESTINA LENTE!
     - IMPERATOR AUGUSTUS 
 Job cpu time:       0 days  0 hours  0 minutes  0.9 seconds.
 File lengths (MBytes):  RWF=     84 Int=      0 D2E=      0 Chk=      2 Scr=      2
 Normal termination of Gaussian 09 at Thu Feb  9 15:06:04 2017.
