 Entering Gaussian System, Link 0=g09
 AtFile(1): H.gbs
            H     0
            S   10   1.00
               1000.000000000000            0.000068713567
                316.227766000000            0.000169141320
                100.000000000000            0.000823394812
                 31.622776600000            0.003425569236
                 10.000000000000            0.013951996000
                  3.162277660000            0.056909313560
                  1.000000000000            0.198286399900
                  0.316227766000            0.496922426700
                  0.100000000000            0.369846276400
                  0.031622776600            0.003752720039
            ****
 Initial command:
 /projects/guscus/apps/gau/g09-e1/g09/l1.exe "/users/lcj1/gaussian/h10/2rows_uhf/ag2bu3/singlet/follow23/Gau-30528.inp" -scrdir="/users/lcj1/gaussian/h10/2rows_uhf/ag2bu3/singlet/follow23/"
 Entering Link 1 = /projects/guscus/apps/gau/g09-e1/g09/l1.exe PID=     30529.
  
 Copyright (c) 1988,1990,1992,1993,1995,1998,2003,2009,2015,
            Gaussian, Inc.  All Rights Reserved.
  
 This is part of the Gaussian(R) 09 program.  It is based on
 the Gaussian(R) 03 system (copyright 2003, Gaussian, Inc.),
 the Gaussian(R) 98 system (copyright 1998, Gaussian, Inc.),
 the Gaussian(R) 94 system (copyright 1995, Gaussian, Inc.),
 the Gaussian 92(TM) system (copyright 1992, Gaussian, Inc.),
 the Gaussian 90(TM) system (copyright 1990, Gaussian, Inc.),
 the Gaussian 88(TM) system (copyright 1988, Gaussian, Inc.),
 the Gaussian 86(TM) system (copyright 1986, Carnegie Mellon
 University), and the Gaussian 82(TM) system (copyright 1983,
 Carnegie Mellon University). Gaussian is a federally registered
 trademark of Gaussian, Inc.
  
 This software contains proprietary and confidential information,
 including trade secrets, belonging to Gaussian, Inc.
  
 This software is provided under written license and may be
 used, copied, transmitted, or stored only in accord with that
 written license.
  
 The following legend is applicable only to US Government
 contracts under FAR:
  
                    RESTRICTED RIGHTS LEGEND
  
 Use, reproduction and disclosure by the US Government is
 subject to restrictions as set forth in subparagraphs (a)
 and (c) of the Commercial Computer Software - Restricted
 Rights clause in FAR 52.227-19.
  
 Gaussian, Inc.
 340 Quinnipiac St., Bldg. 40, Wallingford CT 06492
  
  
 ---------------------------------------------------------------
 Warning -- This program may not be used in any manner that
 competes with the business of Gaussian, Inc. or will provide
 assistance to any competitor of Gaussian, Inc.  The licensee
 of this program is prohibited from giving any competitor of
 Gaussian, Inc. access to this program.  By using this program,
 the user acknowledges that Gaussian, Inc. is engaged in the
 business of creating and licensing software in the field of
 computational chemistry and represents and warrants to the
 licensee that it is not a competitor of Gaussian, Inc. and that
 it will not use this program in any manner prohibited above.
 ---------------------------------------------------------------
  

 Cite this work as:
 Gaussian 09, Revision E.01,
 M. J. Frisch, G. W. Trucks, H. B. Schlegel, G. E. Scuseria, 
 M. A. Robb, J. R. Cheeseman, G. Scalmani, V. Barone, B. Mennucci, 
 G. A. Petersson, H. Nakatsuji, M. Caricato, X. Li, H. P. Hratchian, 
 A. F. Izmaylov, J. Bloino, G. Zheng, J. L. Sonnenberg, M. Hada, 
 M. Ehara, K. Toyota, R. Fukuda, J. Hasegawa, M. Ishida, T. Nakajima, 
 Y. Honda, O. Kitao, H. Nakai, T. Vreven, J. A. Montgomery, Jr., 
 J. E. Peralta, F. Ogliaro, M. Bearpark, J. J. Heyd, E. Brothers, 
 K. N. Kudin, V. N. Staroverov, T. Keith, R. Kobayashi, J. Normand, 
 K. Raghavachari, A. Rendell, J. C. Burant, S. S. Iyengar, J. Tomasi, 
 M. Cossi, N. Rega, J. M. Millam, M. Klene, J. E. Knox, J. B. Cross, 
 V. Bakken, C. Adamo, J. Jaramillo, R. Gomperts, R. E. Stratmann, 
 O. Yazyev, A. J. Austin, R. Cammi, C. Pomelli, J. W. Ochterski, 
 R. L. Martin, K. Morokuma, V. G. Zakrzewski, G. A. Voth, 
 P. Salvador, J. J. Dannenberg, S. Dapprich, A. D. Daniels, 
 O. Farkas, J. B. Foresman, J. V. Ortiz, J. Cioslowski, 
 and D. J. Fox, Gaussian, Inc., Wallingford CT, 2013.
 
 ******************************************
 Gaussian 09:  ES64L-G09RevE.01 30-Nov-2015
                23-Feb-2017 
 ******************************************
 %chk=h10.chk
 ----------------------------------------------------------------------
 #uhf/gen scf(tight,novaracc,noincfock,fulldiag) stable(crhf) guess=rea
 d geom=nocrowd test
 ----------------------------------------------------------------------
 1/38=1/1;
 2/12=1,17=6,18=5,40=1/2;
 3/5=7,16=1,25=1,30=1,116=2/1,2,3;
 4/5=1/1;
 5/5=100002,16=1,32=2,38=6/2;
 8/6=1,10=90,11=11/1,4;
 9/8=4,13=1/2;
 6/7=2,8=2,9=2,10=2,28=1/1;
 99/5=1,9=1/99;
 ----------------------------------------------------------------------
 hf stability analysis of h10 triangular lattice, y= 0.3987841068513602
 3 alpha= 15.400000000000000
 ----------------------------------------------------------------------
 Symbolic Z-matrix:
 Charge =  0 Multiplicity = 1
 H
 H                    1     1.50169 
 H                    1     1.50169  2     149.2 
 H                    2     1.50169  1     30.8     3     0.       0
 H                    3     1.50169  1     180.     2     0.       0
 H                    4     1.50169  2     180.     1     0.       0
 H                    5     1.50169  3     180.     2     0.       0
 H                    6     1.50169  4     180.     1     0.       0
 H                    7     1.50169  5     180.     2     0.       0
 H                    8     1.50169  6     180.     1     0.       0
 
                          Input orientation:                          
 ---------------------------------------------------------------------
 Center     Atomic      Atomic             Coordinates (Angstroms)
 Number     Number       Type             X           Y           Z
 ---------------------------------------------------------------------
      1          1           0        0.000000    0.000000    0.000000
      2          1           0        0.000000    0.000000    1.501694
      3          1           0        0.768932    0.000000   -1.289895
      4          1           0        0.768932    0.000000    0.211799
      5          1           0        1.537864    0.000000   -2.579790
      6          1           0        1.537864    0.000000   -1.078096
      7          1           0        2.306795    0.000000   -3.869685
      8          1           0        2.306795    0.000000   -2.367991
      9          1           0        3.075727    0.000000   -5.159581
     10          1           0        3.075727    0.000000   -3.657886
 ---------------------------------------------------------------------
                    Distance matrix (angstroms):
                    1          2          3          4          5
     1  H    0.000000
     2  H    1.501694   0.000000
     3  H    1.501694   2.895553   0.000000
     4  H    0.797568   1.501694   1.501694   0.000000
     5  H    3.003389   4.361598   1.501694   2.895553   0.000000
     6  H    1.878115   3.003389   0.797568   1.501694   1.501694
     7  H    4.505083   5.845770   3.003389   4.361598   1.501694
     8  H    3.305857   4.505083   1.878115   3.003389   0.797568
     9  H    6.006777   7.337076   4.505083   5.845770   3.003389
    10  H    4.779145   6.006777   3.305857   4.505083   1.878115
                    6          7          8          9         10
     6  H    0.000000
     7  H    2.895553   0.000000
     8  H    1.501694   1.501694   0.000000
     9  H    4.361598   1.501694   2.895553   0.000000
    10  H    3.003389   0.797568   1.501694   1.501694   0.000000
 Stoichiometry    H10
 Framework group  C2H[SGH(H10)]
 Deg. of freedom     9
 Full point group                 C2H     NOp   4
 Largest Abelian subgroup         C2H     NOp   4
 Largest concise Abelian subgroup C2      NOp   2
                         Standard orientation:                         
 ---------------------------------------------------------------------
 Center     Atomic      Atomic             Coordinates (Angstroms)
 Number     Number       Type             X           Y           Z
 ---------------------------------------------------------------------
      1          1           0        1.537864   -1.828943   -0.000000
      2          1           0        1.537864   -3.330637   -0.000000
      3          1           0        0.768932   -0.539048   -0.000000
      4          1           0        0.768932   -2.040742   -0.000000
      5          1           0        0.000000    0.750847    0.000000
      6          1           0       -0.000000   -0.750847    0.000000
      7          1           0       -0.768932    2.040742   -0.000000
      8          1           0       -0.768932    0.539048   -0.000000
      9          1           0       -1.537864    3.330637   -0.000000
     10          1           0       -1.537864    1.828943   -0.000000
 ---------------------------------------------------------------------
 Rotational constants (GHZ):    371.5001372     10.1530473      9.8829477
 General basis read from cards:  (5D, 7F)
 There are     5 symmetry adapted cartesian basis functions of AG  symmetry.
 There are     0 symmetry adapted cartesian basis functions of BG  symmetry.
 There are     0 symmetry adapted cartesian basis functions of AU  symmetry.
 There are     5 symmetry adapted cartesian basis functions of BU  symmetry.
 There are     5 symmetry adapted basis functions of AG  symmetry.
 There are     0 symmetry adapted basis functions of BG  symmetry.
 There are     0 symmetry adapted basis functions of AU  symmetry.
 There are     5 symmetry adapted basis functions of BU  symmetry.
    10 basis functions,   100 primitive gaussians,    10 cartesian basis functions
     5 alpha electrons        5 beta electrons
       nuclear repulsion energy        11.5625051014 Hartrees.
 NAtoms=   10 NActive=   10 NUniq=    5 SFac= 4.00D+00 NAtFMM=   60 NAOKFM=F Big=F
 Integral buffers will be    131072 words long.
 Regular integral format.
 Two-electron integral symmetry is turned on.
 One-electron integrals computed using PRISM.
 NBasis=    10 RedAO= T EigKep=  1.74D-01  NBF=     5     0     0     5
 NBsUse=    10 1.00D-06 EigRej= -1.00D+00 NBFU=     5     0     0     5
 Initial guess from the checkpoint file:  "h10.chk"
 B after Tr=     0.000000    0.000000   -0.000000
         Rot=    0.999995   -0.000000    0.000000    0.003103 Ang=   0.36 deg.
 Initial guess orbital symmetries:
 Alpha Orbitals:
       Occupied  (BG) (BG) (BG) (BG) (BG)
       Virtual   (BG) (BG) (BG) (BG) (BG)
 Beta  Orbitals:
       Occupied  (BG) (BG) (BG) (BG) (BG)
       Virtual   (BG) (BG) (BG) (BG) (BG)
 Initial guess <Sx>= 0.0000 <Sy>= 0.0000 <Sz>= 0.0000 <S**2>= 1.0019 S= 0.6189
 Keep R1 and R2 ints in memory in symmetry-blocked form, NReq=875099.
 Requested convergence on RMS density matrix=1.00D-08 within 128 cycles.
 Requested convergence on MAX density matrix=1.00D-06.
 Requested convergence on             energy=1.00D-06.
 No special actions if energy rises.
 An orbital has undefined symmetry, so N**3 symmetry is turned off.
 Density matrix breaks symmetry, PCut= 1.00D-04
 Density matrix has no symmetry -- integrals replicated.
 Density matrix breaks symmetry, PCut= 1.00D-07
 Density matrix has no symmetry -- integrals replicated.
 Density matrix breaks symmetry, PCut= 1.00D-07
 Density matrix has no symmetry -- integrals replicated.
 Density matrix breaks symmetry, PCut= 1.00D-07
 Density matrix has no symmetry -- integrals replicated.
 Density matrix breaks symmetry, PCut= 1.00D-07
 Density matrix has no symmetry -- integrals replicated.
 Density matrix breaks symmetry, PCut= 1.00D-07
 Density matrix has no symmetry -- integrals replicated.
 Density matrix breaks symmetry, PCut= 1.00D-07
 Density matrix has no symmetry -- integrals replicated.
 Density matrix breaks symmetry, PCut= 1.00D-07
 Density matrix has no symmetry -- integrals replicated.
 Density matrix breaks symmetry, PCut= 1.00D-07
 Density matrix has no symmetry -- integrals replicated.
 Density matrix breaks symmetry, PCut= 1.00D-07
 Density matrix has no symmetry -- integrals replicated.
 Density matrix breaks symmetry, PCut= 1.00D-07
 Density matrix has no symmetry -- integrals replicated.
 SCF Done:  E(UHF) =  -5.09406371748     A.U. after   10 cycles
            NFock= 10  Conv=0.93D-08     -V/T= 1.9483
 <Sx>= 0.0000 <Sy>= 0.0000 <Sz>= 0.0000 <S**2>= 1.0015 S= 0.6187
 <L.S>= 0.000000000000E+00
 Annihilation of the first spin contaminant:
 S**2 before annihilation     1.0015,   after     0.0166
 Range of M.O.s used for correlation:     1    10
 NBasis=    10 NAE=     5 NBE=     5 NFC=     0 NFV=     0
 NROrb=     10 NOA=     5 NOB=     5 NVA=     5 NVB=     5
 Semi-Direct transformation.
 ModeAB=           2 MOrb=             5 LenV=     134111085
 LASXX=         1030 LTotXX=        1030 LenRXX=        1030
 LTotAB=        1825 MaxLAS=        2750 LenRXY=        2750
 NonZer=        2750 LenScr=      655360 LnRSAI=           0
 LnScr1=           0 LExtra=           0 Total=       659140
 MaxDsk=          -1 SrtSym=           F ITran=            3
 JobTyp=1 Pass  1:  I=   1 to   5.
 (rs|ai) integrals will be sorted in core.
 ModeAB=           2 MOrb=             5 LenV=     134111085
 LASXX=         1030 LTotXX=        1030 LenRXX=        2750
 LTotAB=         225 MaxLAS=        2750 LenRXY=         225
 NonZer=        2750 LenScr=      655360 LnRSAI=           0
 LnScr1=           0 LExtra=           0 Total=       658335
 MaxDsk=          -1 SrtSym=           F ITran=            3
 JobTyp=2 Pass  1:  I=   1 to   5.
 (rs|ai) integrals will be sorted in core.
 SymMOI:  orbitals are not symmetric.
 Spin components of T(2) and E(2):
     alpha-alpha T2 =       0.5084468583D-03 E2=     -0.9983611306D-03
     alpha-beta  T2 =       0.2646845834D-01 E2=     -0.5119068168D-01
     beta-beta   T2 =       0.5084468583D-03 E2=     -0.9983611306D-03
 ANorm=    0.1013649521D+01
 E2 =    -0.5318740394D-01 EUMP2 =    -0.51472511214167D+01
 (S**2,0)=  0.10015D+01           (S**2,1)=  0.10004D+01
 E(PUHF)=      -0.50948294677D+01        E(PMP2)=      -0.51480164628D+01
 Second order stability test of a single determinant UHF wave function:
 Stabil:  MDV=134217728
 ***********************************************************************
 Matrix         Lowest Root    Major Pairs
 ***********************************************************************
 Internal UHF     0.0997493    Stable
 RUHF --> CUHF (A)0.253615     Stable
 RUHF --> CUHF (B)0.253615     Stable
 RUHF --> GHF     0.           Zero root
 Stable under the perturbations considered.
 ***********************************************************************

 **********************************************************************

            Population analysis using the SCF density.

 **********************************************************************

 Orbital symmetries:
 Alpha Orbitals:
       Occupied  (BG) (BG) (BG) (BG) (BG)
       Virtual   (BG) (BG) (BG) (BG) (BG)
 Beta  Orbitals:
       Occupied  (BG) (BG) (BG) (BG) (BG)
       Virtual   (BG) (BG) (BG) (BG) (BG)
 Unable to determine electronic state:  partially filled degenerate orbitals.
 Alpha  occ. eigenvalues --   -0.76202  -0.70050  -0.59884  -0.47092  -0.36310
 Alpha virt. eigenvalues --    0.18310   0.20815   0.29856   0.46659   0.63557
  Beta  occ. eigenvalues --   -0.76202  -0.70050  -0.59884  -0.47092  -0.36310
  Beta virt. eigenvalues --    0.18310   0.20815   0.29856   0.46659   0.63557
          Condensed to atoms (all electrons):
               1          2          3          4          5          6
     1  H    0.795590  -0.107727  -0.128837   0.540499   0.005811  -0.101138
     2  H   -0.107727   1.228094  -0.000270  -0.087499   0.000140   0.003966
     3  H   -0.128837  -0.000270   0.840084  -0.092928  -0.135353   0.603756
     4  H    0.540499  -0.087499  -0.092928   0.714426   0.002560  -0.116670
     5  H    0.005811   0.000140  -0.135353   0.002560   0.844313  -0.111474
     6  H   -0.101138   0.003966   0.603756  -0.116670  -0.111474   0.844313
     7  H   -0.000077  -0.000007   0.004521   0.000057  -0.116670   0.002560
     8  H    0.005472  -0.000003  -0.103360   0.004521   0.603756  -0.135353
     9  H   -0.000004   0.000001  -0.000003  -0.000007   0.003966   0.000140
    10  H   -0.000156  -0.000004   0.005472  -0.000077  -0.101138   0.005811
               7          8          9         10
     1  H   -0.000077   0.005472  -0.000004  -0.000156
     2  H   -0.000007  -0.000003   0.000001  -0.000004
     3  H    0.004521  -0.103360  -0.000003   0.005472
     4  H    0.000057   0.004521  -0.000007  -0.000077
     5  H   -0.116670   0.603756   0.003966  -0.101138
     6  H    0.002560  -0.135353   0.000140   0.005811
     7  H    0.714426  -0.092928  -0.087499   0.540499
     8  H   -0.092928   0.840084  -0.000270  -0.128837
     9  H   -0.087499  -0.000270   1.228094  -0.107727
    10  H    0.540499  -0.128837  -0.107727   0.795590
          Atomic-Atomic Spin Densities.
               1          2          3          4          5          6
     1  H   -0.149399   0.143594   0.009085  -0.069039  -0.000533   0.017392
     2  H    0.143594  -1.209142  -0.006958   0.120982   0.000279  -0.009953
     3  H    0.009085  -0.006958   0.034838   0.002536  -0.007726  -0.007178
     4  H   -0.069039   0.120982   0.002536  -0.047445  -0.000314   0.015987
     5  H   -0.000533   0.000279  -0.007726  -0.000314   0.059074  -0.000000
     6  H    0.017392  -0.009953  -0.007178   0.015987  -0.000000  -0.059074
     7  H   -0.000007  -0.000004   0.000757   0.000000  -0.015987   0.000314
     8  H   -0.000915   0.000349  -0.000000  -0.000757   0.007178   0.007726
     9  H    0.000009   0.000000  -0.000349   0.000004   0.009953  -0.000279
    10  H   -0.000000  -0.000009   0.000915   0.000007  -0.017392   0.000533
               7          8          9         10
     1  H   -0.000007  -0.000915   0.000009  -0.000000
     2  H   -0.000004   0.000349   0.000000  -0.000009
     3  H    0.000757  -0.000000  -0.000349   0.000915
     4  H    0.000000  -0.000757   0.000004   0.000007
     5  H   -0.015987   0.007178   0.009953  -0.017392
     6  H    0.000314   0.007726  -0.000279   0.000533
     7  H    0.047445  -0.002536  -0.120982   0.069039
     8  H   -0.002536  -0.034838   0.006958  -0.009085
     9  H   -0.120982   0.006958   1.209142  -0.143594
    10  H    0.069039  -0.009085  -0.143594   0.149399
 Mulliken charges and spin densities:
               1          2
     1  H   -0.009433  -0.049814
     2  H   -0.036691  -0.960863
     3  H    0.006918   0.025921
     4  H    0.035117   0.021962
     5  H    0.004090   0.034533
     6  H    0.004090  -0.034533
     7  H    0.035117  -0.021962
     8  H    0.006918  -0.025921
     9  H   -0.036691   0.960863
    10  H   -0.009433   0.049814
 Sum of Mulliken charges =   0.00000  -0.00000
 Mulliken charges and spin densities with hydrogens summed into heavy atoms:
               1          2
 Electronic spatial extent (au):  <R**2>=            215.6995
 Charge=              0.0000 electrons
 Dipole moment (field-independent basis, Debye):
    X=             -0.0000    Y=              0.0000    Z=              0.0000  Tot=              0.0000
 Quadrupole moment (field-independent basis, Debye-Ang):
   XX=            -13.1133   YY=            -20.5968   ZZ=            -12.7014
   XY=              4.6168   XZ=              0.0000   YZ=             -0.0000
 Traceless Quadrupole moment (field-independent basis, Debye-Ang):
   XX=              2.3572   YY=             -5.1263   ZZ=              2.7691
   XY=              4.6168   XZ=              0.0000   YZ=             -0.0000
 Octapole moment (field-independent basis, Debye-Ang**2):
  XXX=             -0.0000  YYY=              0.0000  ZZZ=              0.0000  XYY=             -0.0000
  XXY=              0.0000  XXZ=              0.0000  XZZ=             -0.0000  YZZ=              0.0000
  YYZ=              0.0000  XYZ=             -0.0000
 Hexadecapole moment (field-independent basis, Debye-Ang**3):
 XXXX=           -106.2934 YYYY=           -455.0577 ZZZZ=            -15.1991 XXXY=             88.9251
 XXXZ=              0.0000 YYYX=            141.4267 YYYZ=             -0.0000 ZZZX=              0.0000
 ZZZY=             -0.0000 XXYY=            -98.7981 XXZZ=            -20.4133 YYZZ=            -57.6720
 XXYZ=             -0.0000 YYXZ=              0.0000 ZZXY=             26.9908
 N-N= 1.156250510137D+01 E-N=-3.289425177308D+01  KE= 5.371866985502D+00
 Symmetry AG   KE= 2.301956131193D+00
 Symmetry BG   KE= 0.000000000000D+00
 Symmetry AU   KE= 0.000000000000D+00
 Symmetry BU   KE= 3.069910854309D+00
                          Isotropic Fermi Contact Couplings
        Atom                 a.u.       MegaHertz       Gauss      10(-4) cm-1
     1  H(1)              -0.04372     -97.70363     -34.86308     -32.59042
     2  H(1)              -0.35307    -789.08523    -281.56522    -263.21050
     3  H(1)               0.00929      20.77072       7.41151       6.92837
     4  H(1)              -0.01521     -34.00433     -12.13359     -11.34262
     5  H(1)               0.01630      36.42821      12.99849      12.15114
     6  H(1)              -0.01630     -36.42821     -12.99849     -12.15114
     7  H(1)               0.01521      34.00433      12.13359      11.34262
     8  H(1)              -0.00929     -20.77072      -7.41151      -6.92837
     9  H(1)               0.35307     789.08523     281.56522     263.21050
    10  H(1)               0.04372      97.70363      34.86308      32.59042
 --------------------------------------------------------
       Center         ----  Spin Dipole Couplings  ----
                      3XX-RR        3YY-RR        3ZZ-RR
 --------------------------------------------------------
     1   Atom        0.009404     -0.037359      0.027955
     2   Atom       -0.005634      0.016891     -0.011256
     3   Atom       -0.005707     -0.006270      0.011978
     4   Atom       -0.018271     -0.019977      0.038249
     5   Atom       -0.001805      0.002320     -0.000516
     6   Atom        0.001805     -0.002320      0.000516
     7   Atom        0.018271      0.019977     -0.038249
     8   Atom        0.005707      0.006270     -0.011978
     9   Atom        0.005634     -0.016891      0.011256
    10   Atom       -0.009404      0.037359     -0.027955
 --------------------------------------------------------
                        XY            XZ            YZ
 --------------------------------------------------------
     1   Atom       -0.000588      0.000000      0.000000
     2   Atom       -0.008134      0.000000     -0.000000
     3   Atom        0.002588      0.000000      0.000000
     4   Atom        0.013392      0.000000      0.000000
     5   Atom       -0.008436      0.000000     -0.000000
     6   Atom        0.008436     -0.000000     -0.000000
     7   Atom       -0.013392      0.000000     -0.000000
     8   Atom       -0.002588      0.000000     -0.000000
     9   Atom        0.008134     -0.000000      0.000000
    10   Atom        0.000588      0.000000      0.000000
 --------------------------------------------------------


 ---------------------------------------------------------------------------------
              Anisotropic Spin Dipole Couplings in Principal Axis System
 ---------------------------------------------------------------------------------

       Atom             a.u.   MegaHertz   Gauss  10(-4) cm-1        Axes

              Baa    -0.0374   -19.937    -7.114    -6.650  0.0126  0.9999 -0.0000
     1 H(1)   Bbb     0.0094     5.022     1.792     1.675  0.9999 -0.0126  0.0000
              Bcc     0.0280    14.915     5.322     4.975  0.0000  0.0000  1.0000
 
              Baa    -0.0113    -6.006    -2.143    -2.003  0.0000  0.0000  1.0000
     2 H(1)   Bbb    -0.0083    -4.410    -1.573    -1.471  0.9515  0.3077  0.0000
              Bcc     0.0195    10.416     3.717     3.474 -0.3077  0.9515  0.0000
 
              Baa    -0.0086    -4.584    -1.636    -1.529 -0.6678  0.7444  0.0000
     3 H(1)   Bbb    -0.0034    -1.807    -0.645    -0.603  0.7444  0.6678 -0.0000
              Bcc     0.0120     6.391     2.280     2.132  0.0000  0.0000  1.0000
 
              Baa    -0.0325   -17.364    -6.196    -5.792 -0.6843  0.7292  0.0000
     4 H(1)   Bbb    -0.0057    -3.044    -1.086    -1.015  0.7292  0.6843 -0.0000
              Bcc     0.0382    20.408     7.282     6.807  0.0000  0.0000  1.0000
 
              Baa    -0.0084    -4.496    -1.604    -1.500  0.7866  0.6175  0.0000
     5 H(1)   Bbb    -0.0005    -0.275    -0.098    -0.092  0.0000  0.0000  1.0000
              Bcc     0.0089     4.771     1.702     1.591 -0.6175  0.7866  0.0000
 
              Baa    -0.0089    -4.771    -1.702    -1.591 -0.6175  0.7866  0.0000
     6 H(1)   Bbb     0.0005     0.275     0.098     0.092  0.0000  0.0000  1.0000
              Bcc     0.0084     4.496     1.604     1.500  0.7866  0.6175 -0.0000
 
              Baa    -0.0382   -20.408    -7.282    -6.807  0.0000  0.0000  1.0000
     7 H(1)   Bbb     0.0057     3.044     1.086     1.015  0.7292  0.6843  0.0000
              Bcc     0.0325    17.364     6.196     5.792 -0.6843  0.7292  0.0000
 
              Baa    -0.0120    -6.391    -2.280    -2.132  0.0000  0.0000  1.0000
     8 H(1)   Bbb     0.0034     1.807     0.645     0.603  0.7444  0.6678  0.0000
              Bcc     0.0086     4.584     1.636     1.529 -0.6678  0.7444  0.0000
 
              Baa    -0.0195   -10.416    -3.717    -3.474 -0.3077  0.9515  0.0000
     9 H(1)   Bbb     0.0083     4.410     1.573     1.471  0.9515  0.3077  0.0000
              Bcc     0.0113     6.006     2.143     2.003  0.0000  0.0000  1.0000
 
              Baa    -0.0280   -14.915    -5.322    -4.975  0.0000  0.0000  1.0000
    10 H(1)   Bbb    -0.0094    -5.022    -1.792    -1.675  0.9999 -0.0126  0.0000
              Bcc     0.0374    19.937     7.114     6.650  0.0126  0.9999 -0.0000
 

 ---------------------------------------------------------------------------------


 Test job not archived.
 1\1\GINC-SULU\Stability\UHF\Gen\H10\LCJ1\23-Feb-2017\0\\#uhf/gen scf(t
 ight,novaracc,noincfock,fulldiag) stable(crhf) guess=read geom=nocrowd
  test\\hf stability analysis of h10 triangular lattice, y= 0.398784106
 85136023 alpha= 15.400000000000000\\0,1\H\H,1,1.501694255\H,1,1.501694
 255,2,149.2\H,2,1.501694255,1,30.8,3,0.,0\H,3,1.501694255,1,180.,2,0.,
 0\H,4,1.501694255,2,180.,1,0.,0\H,5,1.501694255,3,180.,2,0.,0\H,6,1.50
 1694255,4,180.,1,0.,0\H,7,1.501694255,5,180.,2,0.,0\H,8,1.501694255,6,
 180.,1,0.,0\\Version=ES64L-G09RevE.01\HF=-5.0940637\MP2=-5.1472511\PUH
 F=-5.0948295\PMP2-0=-5.1480165\S2=1.001476\S2-1=1.000397\S2A=0.016631\
 RMSD=9.288e-09\Dipole=0.,0.,0.\Quadrupole=1.7525203,2.0587633,-3.81128
 36,0.,3.4324581,0.\PG=C02H [SGH(H10)]\\@


 When I told the people of Northern Ireland that I was
 an atheist, a woman in the audience stood up and said,
 "Yes, but is it the God of the Catholics or the God
 of the Protestants in whom you don't believe?"
                               -- Quentin Crisp
 Job cpu time:       0 days  0 hours  0 minutes  1.1 seconds.
 File lengths (MBytes):  RWF=     94 Int=      0 D2E=      0 Chk=      2 Scr=      2
 Normal termination of Gaussian 09 at Thu Feb 23 17:01:02 2017.
