 Entering Gaussian System, Link 0=g09
 AtFile(1): H.gbs
            H     0
            S   10   1.00
               1000.000000000000            0.000068713567
                316.227766000000            0.000169141320
                100.000000000000            0.000823394812
                 31.622776600000            0.003425569236
                 10.000000000000            0.013951996000
                  3.162277660000            0.056909313560
                  1.000000000000            0.198286399900
                  0.316227766000            0.496922426700
                  0.100000000000            0.369846276400
                  0.031622776600            0.003752720039
            ****
 Initial command:
 /projects/guscus/apps/gau/g09-e1/g09/l1.exe "/users/lcj1/gaussian/h10/2rows_uhf/ag2bu3/singlet/follow23/Gau-31816.inp" -scrdir="/users/lcj1/gaussian/h10/2rows_uhf/ag2bu3/singlet/follow23/"
 Entering Link 1 = /projects/guscus/apps/gau/g09-e1/g09/l1.exe PID=     31817.
  
 Copyright (c) 1988,1990,1992,1993,1995,1998,2003,2009,2015,
            Gaussian, Inc.  All Rights Reserved.
  
 This is part of the Gaussian(R) 09 program.  It is based on
 the Gaussian(R) 03 system (copyright 2003, Gaussian, Inc.),
 the Gaussian(R) 98 system (copyright 1998, Gaussian, Inc.),
 the Gaussian(R) 94 system (copyright 1995, Gaussian, Inc.),
 the Gaussian 92(TM) system (copyright 1992, Gaussian, Inc.),
 the Gaussian 90(TM) system (copyright 1990, Gaussian, Inc.),
 the Gaussian 88(TM) system (copyright 1988, Gaussian, Inc.),
 the Gaussian 86(TM) system (copyright 1986, Carnegie Mellon
 University), and the Gaussian 82(TM) system (copyright 1983,
 Carnegie Mellon University). Gaussian is a federally registered
 trademark of Gaussian, Inc.
  
 This software contains proprietary and confidential information,
 including trade secrets, belonging to Gaussian, Inc.
  
 This software is provided under written license and may be
 used, copied, transmitted, or stored only in accord with that
 written license.
  
 The following legend is applicable only to US Government
 contracts under FAR:
  
                    RESTRICTED RIGHTS LEGEND
  
 Use, reproduction and disclosure by the US Government is
 subject to restrictions as set forth in subparagraphs (a)
 and (c) of the Commercial Computer Software - Restricted
 Rights clause in FAR 52.227-19.
  
 Gaussian, Inc.
 340 Quinnipiac St., Bldg. 40, Wallingford CT 06492
  
  
 ---------------------------------------------------------------
 Warning -- This program may not be used in any manner that
 competes with the business of Gaussian, Inc. or will provide
 assistance to any competitor of Gaussian, Inc.  The licensee
 of this program is prohibited from giving any competitor of
 Gaussian, Inc. access to this program.  By using this program,
 the user acknowledges that Gaussian, Inc. is engaged in the
 business of creating and licensing software in the field of
 computational chemistry and represents and warrants to the
 licensee that it is not a competitor of Gaussian, Inc. and that
 it will not use this program in any manner prohibited above.
 ---------------------------------------------------------------
  

 Cite this work as:
 Gaussian 09, Revision E.01,
 M. J. Frisch, G. W. Trucks, H. B. Schlegel, G. E. Scuseria, 
 M. A. Robb, J. R. Cheeseman, G. Scalmani, V. Barone, B. Mennucci, 
 G. A. Petersson, H. Nakatsuji, M. Caricato, X. Li, H. P. Hratchian, 
 A. F. Izmaylov, J. Bloino, G. Zheng, J. L. Sonnenberg, M. Hada, 
 M. Ehara, K. Toyota, R. Fukuda, J. Hasegawa, M. Ishida, T. Nakajima, 
 Y. Honda, O. Kitao, H. Nakai, T. Vreven, J. A. Montgomery, Jr., 
 J. E. Peralta, F. Ogliaro, M. Bearpark, J. J. Heyd, E. Brothers, 
 K. N. Kudin, V. N. Staroverov, T. Keith, R. Kobayashi, J. Normand, 
 K. Raghavachari, A. Rendell, J. C. Burant, S. S. Iyengar, J. Tomasi, 
 M. Cossi, N. Rega, J. M. Millam, M. Klene, J. E. Knox, J. B. Cross, 
 V. Bakken, C. Adamo, J. Jaramillo, R. Gomperts, R. E. Stratmann, 
 O. Yazyev, A. J. Austin, R. Cammi, C. Pomelli, J. W. Ochterski, 
 R. L. Martin, K. Morokuma, V. G. Zakrzewski, G. A. Voth, 
 P. Salvador, J. J. Dannenberg, S. Dapprich, A. D. Daniels, 
 O. Farkas, J. B. Foresman, J. V. Ortiz, J. Cioslowski, 
 and D. J. Fox, Gaussian, Inc., Wallingford CT, 2013.
 
 ******************************************
 Gaussian 09:  ES64L-G09RevE.01 30-Nov-2015
                23-Feb-2017 
 ******************************************
 %chk=h10.chk
 ----------------------------------------------------------------------
 #uhf/gen scf(tight,novaracc,noincfock,fulldiag) stable(crhf) guess=rea
 d geom=nocrowd test
 ----------------------------------------------------------------------
 1/38=1/1;
 2/12=1,17=6,18=5,40=1/2;
 3/5=7,16=1,25=1,30=1,116=2/1,2,3;
 4/5=1/1;
 5/5=100002,16=1,32=2,38=6/2;
 8/6=1,10=90,11=11/1,4;
 9/8=4,13=1/2;
 6/7=2,8=2,9=2,10=2,28=1/1;
 99/5=1,9=1/99;
 ----------------------------------------------------------------------
 hf stability analysis of h10 triangular lattice, y= 0.3318666256799156
 5 alpha= 10.800000000000001
 ----------------------------------------------------------------------
 Symbolic Z-matrix:
 Charge =  0 Multiplicity = 1
 H
 H                    1     1.77108 
 H                    1     1.77108  2     158.4 
 H                    2     1.77108  1     21.6     3     0.       0
 H                    3     1.77108  1     180.     2     0.       0
 H                    4     1.77108  2     180.     1     0.       0
 H                    5     1.77108  3     180.     2     0.       0
 H                    6     1.77108  4     180.     1     0.       0
 H                    7     1.77108  5     180.     2     0.       0
 H                    8     1.77108  6     180.     1     0.       0
 
                          Input orientation:                          
 ---------------------------------------------------------------------
 Center     Atomic      Atomic             Coordinates (Angstroms)
 Number     Number       Type             X           Y           Z
 ---------------------------------------------------------------------
      1          1           0        0.000000    0.000000    0.000000
      2          1           0        0.000000    0.000000    1.771076
      3          1           0        0.651977    0.000000   -1.646705
      4          1           0        0.651977    0.000000    0.124371
      5          1           0        1.303953    0.000000   -3.293410
      6          1           0        1.303953    0.000000   -1.522334
      7          1           0        1.955930    0.000000   -4.940115
      8          1           0        1.955930    0.000000   -3.169039
      9          1           0        2.607907    0.000000   -6.586821
     10          1           0        2.607907    0.000000   -4.815744
 ---------------------------------------------------------------------
                    Distance matrix (angstroms):
                    1          2          3          4          5
     1  H    0.000000
     2  H    1.771076   0.000000
     3  H    1.771076   3.479411   0.000000
     4  H    0.663733   1.771076   1.771076   0.000000
     5  H    3.542153   5.229658   1.771076   3.479411   0.000000
     6  H    2.004444   3.542153   0.663733   1.771076   1.771076
     7  H    5.313229   6.990405   3.542153   5.229658   1.771076
     8  H    3.724040   5.313229   2.004444   3.542153   0.663733
     9  H    7.084305   8.755320   5.313229   6.990405   3.542153
    10  H    5.476547   7.084305   3.724040   5.313229   2.004444
                    6          7          8          9         10
     6  H    0.000000
     7  H    3.479411   0.000000
     8  H    1.771076   1.771076   0.000000
     9  H    5.229658   1.771076   3.479411   0.000000
    10  H    3.542153   0.663733   1.771076   1.771076   0.000000
 Stoichiometry    H10
 Framework group  C2H[SGH(H10)]
 Deg. of freedom     9
 Full point group                 C2H     NOp   4
 Largest Abelian subgroup         C2H     NOp   4
 Largest concise Abelian subgroup C2      NOp   2
                         Standard orientation:                         
 ---------------------------------------------------------------------
 Center     Atomic      Atomic             Coordinates (Angstroms)
 Number     Number       Type             X           Y           Z
 ---------------------------------------------------------------------
      1          1           0        1.303953   -2.407872    0.000000
      2          1           0        1.303953   -4.178948    0.000000
      3          1           0        0.651977   -0.761167    0.000000
      4          1           0        0.651977   -2.532243    0.000000
      5          1           0        0.000000    0.885538    0.000000
      6          1           0       -0.000000   -0.885538    0.000000
      7          1           0       -0.651977    2.532243   -0.000000
      8          1           0       -0.651977    0.761167   -0.000000
      9          1           0       -1.303953    4.178948   -0.000000
     10          1           0       -1.303953    2.407872   -0.000000
 ---------------------------------------------------------------------
 Rotational constants (GHZ):    523.6576070      7.2029097      7.1051780
 General basis read from cards:  (5D, 7F)
 There are     5 symmetry adapted cartesian basis functions of AG  symmetry.
 There are     0 symmetry adapted cartesian basis functions of BG  symmetry.
 There are     0 symmetry adapted cartesian basis functions of AU  symmetry.
 There are     5 symmetry adapted cartesian basis functions of BU  symmetry.
 There are     5 symmetry adapted basis functions of AG  symmetry.
 There are     0 symmetry adapted basis functions of BG  symmetry.
 There are     0 symmetry adapted basis functions of AU  symmetry.
 There are     5 symmetry adapted basis functions of BU  symmetry.
    10 basis functions,   100 primitive gaussians,    10 cartesian basis functions
     5 alpha electrons        5 beta electrons
       nuclear repulsion energy        10.8140750506 Hartrees.
 NAtoms=   10 NActive=   10 NUniq=    5 SFac= 4.00D+00 NAtFMM=   60 NAOKFM=F Big=F
 Integral buffers will be    131072 words long.
 Regular integral format.
 Two-electron integral symmetry is turned on.
 One-electron integrals computed using PRISM.
 NBasis=    10 RedAO= T EigKep=  1.54D-01  NBF=     5     0     0     5
 NBsUse=    10 1.00D-06 EigRej= -1.00D+00 NBFU=     5     0     0     5
 Initial guess from the checkpoint file:  "h10.chk"
 B after Tr=     0.000000   -0.000000   -0.000000
         Rot=    0.999995   -0.000000    0.000000    0.003103 Ang=   0.36 deg.
 Initial guess orbital symmetries:
 Alpha Orbitals:
       Occupied  (BG) (BG) (BG) (BG) (BG)
       Virtual   (BG) (BG) (BG) (BG) (BG)
 Beta  Orbitals:
       Occupied  (BG) (BG) (BG) (BG) (BG)
       Virtual   (BG) (BG) (BG) (BG) (BG)
 Initial guess <Sx>= 0.0000 <Sy>= 0.0000 <Sz>= 0.0000 <S**2>= 1.0000 S= 0.6180
 Keep R1 and R2 ints in memory in symmetry-blocked form, NReq=873783.
 Requested convergence on RMS density matrix=1.00D-08 within 128 cycles.
 Requested convergence on MAX density matrix=1.00D-06.
 Requested convergence on             energy=1.00D-06.
 No special actions if energy rises.
 An orbital has undefined symmetry, so N**3 symmetry is turned off.
 Density matrix breaks symmetry, PCut= 1.00D-04
 Density matrix has no symmetry -- integrals replicated.
 Density matrix breaks symmetry, PCut= 1.00D-07
 Density matrix has no symmetry -- integrals replicated.
 Density matrix breaks symmetry, PCut= 1.00D-07
 Density matrix has no symmetry -- integrals replicated.
 Density matrix breaks symmetry, PCut= 1.00D-07
 Density matrix has no symmetry -- integrals replicated.
 Density matrix breaks symmetry, PCut= 1.00D-07
 Density matrix has no symmetry -- integrals replicated.
 Density matrix breaks symmetry, PCut= 1.00D-07
 Density matrix has no symmetry -- integrals replicated.
 Density matrix breaks symmetry, PCut= 1.00D-07
 Density matrix has no symmetry -- integrals replicated.
 Density matrix breaks symmetry, PCut= 1.00D-07
 Density matrix has no symmetry -- integrals replicated.
 SCF Done:  E(UHF) =  -5.19596981625     A.U. after    7 cycles
            NFock=  7  Conv=0.70D-08     -V/T= 2.0378
 <Sx>= 0.0000 <Sy>= 0.0000 <Sz>= 0.0000 <S**2>= 1.0000 S= 0.6180
 <L.S>= 0.000000000000E+00
 Annihilation of the first spin contaminant:
 S**2 before annihilation     1.0000,   after     0.0000
 Range of M.O.s used for correlation:     1    10
 NBasis=    10 NAE=     5 NBE=     5 NFC=     0 NFV=     0
 NROrb=     10 NOA=     5 NOB=     5 NVA=     5 NVB=     5
 Semi-Direct transformation.
 ModeAB=           2 MOrb=             5 LenV=     134112261
 LASXX=         1030 LTotXX=        1030 LenRXX=        1030
 LTotAB=        1825 MaxLAS=        2750 LenRXY=        2750
 NonZer=        2750 LenScr=      655360 LnRSAI=           0
 LnScr1=           0 LExtra=           0 Total=       659140
 MaxDsk=          -1 SrtSym=           F ITran=            3
 JobTyp=1 Pass  1:  I=   1 to   5.
 (rs|ai) integrals will be sorted in core.
 ModeAB=           2 MOrb=             5 LenV=     134112261
 LASXX=         1030 LTotXX=        1030 LenRXX=        2750
 LTotAB=         225 MaxLAS=        2750 LenRXY=         225
 NonZer=        2750 LenScr=      655360 LnRSAI=           0
 LnScr1=           0 LExtra=           0 Total=       658335
 MaxDsk=          -1 SrtSym=           F ITran=            3
 JobTyp=2 Pass  1:  I=   1 to   5.
 (rs|ai) integrals will be sorted in core.
 SymMOI:  orbitals are not symmetric.
 Spin components of T(2) and E(2):
     alpha-alpha T2 =       0.1966368581D-03 E2=     -0.4423578943D-03
     alpha-beta  T2 =       0.1748858696D-01 E2=     -0.3906885601D-01
     beta-beta   T2 =       0.1966368581D-03 E2=     -0.4423578943D-03
 ANorm=    0.1008901314D+01
 E2 =    -0.3995357179D-01 EUMP2 =    -0.52359233880409D+01
 (S**2,0)=  0.10000D+01           (S**2,1)=  0.99999D+00
 E(PUHF)=      -0.51959741967D+01        E(PMP2)=      -0.52359277685D+01
 Second order stability test of a single determinant UHF wave function:
 Stabil:  MDV=134217728
 ***********************************************************************
 Matrix         Lowest Root    Major Pairs
 ***********************************************************************
 Internal UHF     0.3201344    Stable
 RUHF --> CUHF (A)0.4962643    Stable
 RUHF --> CUHF (B)0.4962643    Stable
 RUHF --> GHF    0.            Zero root
 Stable under the perturbations considered.
 ***********************************************************************

 **********************************************************************

            Population analysis using the SCF density.

 **********************************************************************

 Orbital symmetries:
 Alpha Orbitals:
       Occupied  (BG) (BG) (BG) (BG) (BG)
       Virtual   (BG) (BG) (BG) (BG) (BG)
 Beta  Orbitals:
       Occupied  (BG) (BG) (BG) (BG) (BG)
       Virtual   (BG) (BG) (BG) (BG) (BG)
 Unable to determine electronic state:  partially filled degenerate orbitals.
 Alpha  occ. eigenvalues --   -0.73736  -0.69826  -0.63394  -0.55695  -0.45909
 Alpha virt. eigenvalues --    0.16016   0.32197   0.40899   0.54005   0.66939
  Beta  occ. eigenvalues --   -0.73736  -0.69826  -0.63394  -0.55695  -0.45909
  Beta virt. eigenvalues --    0.16016   0.32197   0.40899   0.54005   0.66939
          Condensed to atoms (all electrons):
               1          2          3          4          5          6
     1  H    0.647221  -0.054407  -0.058247   0.513288   0.001218  -0.046984
     2  H   -0.054407   1.104976   0.000794  -0.053164  -0.000003   0.001106
     3  H   -0.058247   0.000794   0.679924  -0.054238  -0.060081   0.538188
     4  H    0.513288  -0.053164  -0.054238   0.648125   0.001062  -0.057551
     5  H    0.001218  -0.000003  -0.060081   0.001062   0.678438  -0.056697
     6  H   -0.046984   0.001106   0.538188  -0.057551  -0.056697   0.678438
     7  H   -0.000011  -0.000000   0.001180  -0.000007  -0.057551   0.001062
     8  H    0.001083  -0.000008  -0.048415   0.001180   0.538188  -0.060081
     9  H    0.000000   0.000000  -0.000008  -0.000000   0.001106  -0.000003
    10  H   -0.000012   0.000000   0.001083  -0.000011  -0.046984   0.001218
               7          8          9         10
     1  H   -0.000011   0.001083   0.000000  -0.000012
     2  H   -0.000000  -0.000008   0.000000   0.000000
     3  H    0.001180  -0.048415  -0.000008   0.001083
     4  H   -0.000007   0.001180  -0.000000  -0.000011
     5  H   -0.057551   0.538188   0.001106  -0.046984
     6  H    0.001062  -0.060081  -0.000003   0.001218
     7  H    0.648125  -0.054238  -0.053164   0.513288
     8  H   -0.054238   0.679924   0.000794  -0.058247
     9  H   -0.053164   0.000794   1.104976  -0.054407
    10  H    0.513288  -0.058247  -0.054407   0.647221
          Atomic-Atomic Spin Densities.
               1          2          3          4          5          6
     1  H   -0.034079   0.054028   0.001844  -0.025054  -0.000042   0.002279
     2  H    0.054028  -1.104587  -0.001226   0.052676   0.000016  -0.001492
     3  H    0.001844  -0.001226   0.000711   0.001665  -0.000266  -0.001515
     4  H   -0.025054   0.052676   0.001665  -0.029139  -0.000043   0.002770
     5  H   -0.000042   0.000016  -0.000266  -0.000043   0.004720   0.000000
     6  H    0.002279  -0.001492  -0.001515   0.002770   0.000000  -0.004720
     7  H   -0.000000  -0.000000   0.000063  -0.000000  -0.002770   0.000043
     8  H   -0.000052   0.000020  -0.000000  -0.000063   0.001515   0.000266
     9  H    0.000000   0.000000  -0.000020   0.000000   0.001492  -0.000016
    10  H    0.000000  -0.000000   0.000052   0.000000  -0.002279   0.000042
               7          8          9         10
     1  H   -0.000000  -0.000052   0.000000   0.000000
     2  H   -0.000000   0.000020   0.000000  -0.000000
     3  H    0.000063  -0.000000  -0.000020   0.000052
     4  H   -0.000000  -0.000063   0.000000   0.000000
     5  H   -0.002770   0.001515   0.001492  -0.002279
     6  H    0.000043   0.000266  -0.000016   0.000042
     7  H    0.029139  -0.001665  -0.052676   0.025054
     8  H   -0.001665  -0.000711   0.001226  -0.001844
     9  H   -0.052676   0.001226   1.104587  -0.054028
    10  H    0.025054  -0.001844  -0.054028   0.034079
 Mulliken charges and spin densities:
               1          2
     1  H   -0.003149  -0.001075
     2  H    0.000707  -1.000566
     3  H   -0.000180   0.001308
     4  H    0.001318   0.002812
     5  H    0.001304   0.002342
     6  H    0.001304  -0.002342
     7  H    0.001318  -0.002812
     8  H   -0.000180  -0.001308
     9  H    0.000707   1.000566
    10  H   -0.003149   0.001075
 Sum of Mulliken charges =   0.00000   0.00000
 Mulliken charges and spin densities with hydrogens summed into heavy atoms:
               1          2
 Electronic spatial extent (au):  <R**2>=            283.6230
 Charge=              0.0000 electrons
 Dipole moment (field-independent basis, Debye):
    X=              0.0000    Y=             -0.0000    Z=              0.0000  Tot=              0.0000
 Quadrupole moment (field-independent basis, Debye-Ang):
   XX=            -12.1417   YY=            -17.3235   ZZ=            -13.0264
   XY=              1.7514   XZ=              0.0000   YZ=              0.0000
 Traceless Quadrupole moment (field-independent basis, Debye-Ang):
   XX=              2.0222   YY=             -3.1596   ZZ=              1.1374
   XY=              1.7514   XZ=              0.0000   YZ=              0.0000
 Octapole moment (field-independent basis, Debye-Ang**2):
  XXX=              0.0000  YYY=             -0.0000  ZZZ=              0.0000  XYY=              0.0000
  XXY=             -0.0000  XXZ=              0.0000  XZZ=              0.0000  YZZ=             -0.0000
  YYZ=              0.0000  XYZ=             -0.0000
 Hexadecapole moment (field-independent basis, Debye-Ang**3):
 XXXX=            -77.8280 YYYY=           -625.5530 ZZZZ=            -15.8532 XXXY=             84.5626
 XXXZ=             -0.0000 YYYX=            123.8150 YYYZ=              0.0000 ZZZX=             -0.0000
 ZZZY=              0.0000 XXYY=           -106.5302 XXZZ=            -16.1764 YYZZ=            -88.0095
 XXYZ=              0.0000 YYXZ=             -0.0000 ZZXY=             28.7219
 N-N= 1.081407505065D+01 E-N=-3.085568075661D+01  KE= 5.006782915579D+00
 Symmetry AG   KE= 2.208918282672D+00
 Symmetry BG   KE= 0.000000000000D+00
 Symmetry AU   KE= 0.000000000000D+00
 Symmetry BU   KE= 2.797864632907D+00
                          Isotropic Fermi Contact Couplings
        Atom                 a.u.       MegaHertz       Gauss      10(-4) cm-1
     1  H(1)              -0.01185     -26.48118      -9.44914      -8.83317
     2  H(1)              -0.33666    -752.40456    -268.47665    -250.97515
     3  H(1)               0.00006       0.12655       0.04516       0.04221
     4  H(1)              -0.01045     -23.34690      -8.33075      -7.78769
     5  H(1)               0.00142       3.18379       1.13606       1.06200
     6  H(1)              -0.00142      -3.18379      -1.13606      -1.06200
     7  H(1)               0.01045      23.34690       8.33075       7.78769
     8  H(1)              -0.00006      -0.12655      -0.04516      -0.04221
     9  H(1)               0.33666     752.40456     268.47665     250.97515
    10  H(1)               0.01185      26.48118       9.44914       8.83317
 --------------------------------------------------------
       Center         ----  Spin Dipole Couplings  ----
                      3XX-RR        3YY-RR        3ZZ-RR
 --------------------------------------------------------
     1   Atom        0.009950     -0.033344      0.023395
     2   Atom       -0.004158      0.009507     -0.005349
     3   Atom        0.001807     -0.005514      0.003707
     4   Atom        0.003218     -0.027186      0.023968
     5   Atom       -0.000979      0.003596     -0.002616
     6   Atom        0.000979     -0.003596      0.002616
     7   Atom       -0.003218      0.027186     -0.023968
     8   Atom       -0.001807      0.005514     -0.003707
     9   Atom        0.004158     -0.009507      0.005349
    10   Atom       -0.009950      0.033344     -0.023395
 --------------------------------------------------------
                        XY            XZ            YZ
 --------------------------------------------------------
     1   Atom        0.000157      0.000000     -0.000000
     2   Atom       -0.002782      0.000000     -0.000000
     3   Atom        0.001156      0.000000     -0.000000
     4   Atom        0.013722      0.000000     -0.000000
     5   Atom       -0.003191      0.000000     -0.000000
     6   Atom        0.003191      0.000000     -0.000000
     7   Atom       -0.013722      0.000000     -0.000000
     8   Atom       -0.001156      0.000000     -0.000000
     9   Atom        0.002782     -0.000000      0.000000
    10   Atom       -0.000157      0.000000     -0.000000
 --------------------------------------------------------


 ---------------------------------------------------------------------------------
              Anisotropic Spin Dipole Couplings in Principal Axis System
 ---------------------------------------------------------------------------------

       Atom             a.u.   MegaHertz   Gauss  10(-4) cm-1        Axes

              Baa    -0.0333   -17.791    -6.348    -5.935 -0.0036  1.0000  0.0000
     1 H(1)   Bbb     0.0100     5.309     1.894     1.771  1.0000  0.0036  0.0000
              Bcc     0.0234    12.482     4.454     4.164  0.0000  0.0000  1.0000
 
              Baa    -0.0053    -2.854    -1.018    -0.952  0.0000  0.0000  1.0000
     2 H(1)   Bbb    -0.0047    -2.509    -0.895    -0.837  0.9814  0.1922  0.0000
              Bcc     0.0101     5.363     1.914     1.789 -0.1922  0.9814  0.0000
 
              Baa    -0.0057    -3.037    -1.084    -1.013 -0.1523  0.9883  0.0000
     3 H(1)   Bbb     0.0020     1.059     0.378     0.353  0.9883  0.1523  0.0000
              Bcc     0.0037     1.978     0.706     0.660  0.0000  0.0000  1.0000
 
              Baa    -0.0325   -17.321    -6.180    -5.778 -0.3590  0.9334  0.0000
     4 H(1)   Bbb     0.0085     4.533     1.617     1.512  0.9334  0.3590  0.0000
              Bcc     0.0240    12.788     4.563     4.266  0.0000  0.0000  1.0000
 
              Baa    -0.0026    -1.397    -0.498    -0.466  0.8896  0.4568  0.0000
     5 H(1)   Bbb    -0.0026    -1.396    -0.498    -0.466  0.0000  0.0000  1.0000
              Bcc     0.0052     2.793     0.997     0.932 -0.4568  0.8896  0.0000
 
              Baa    -0.0052    -2.793    -0.997    -0.932 -0.4568  0.8896  0.0000
     6 H(1)   Bbb     0.0026     1.396     0.498     0.466  0.0000  0.0000  1.0000
              Bcc     0.0026     1.397     0.498     0.466  0.8896  0.4568  0.0000
 
              Baa    -0.0240   -12.788    -4.563    -4.266  0.0000  0.0000  1.0000
     7 H(1)   Bbb    -0.0085    -4.533    -1.617    -1.512  0.9334  0.3590  0.0000
              Bcc     0.0325    17.321     6.180     5.778 -0.3590  0.9334  0.0000
 
              Baa    -0.0037    -1.978    -0.706    -0.660  0.0000  0.0000  1.0000
     8 H(1)   Bbb    -0.0020    -1.059    -0.378    -0.353  0.9883  0.1523  0.0000
              Bcc     0.0057     3.037     1.084     1.013 -0.1523  0.9883  0.0000
 
              Baa    -0.0101    -5.363    -1.914    -1.789 -0.1922  0.9814  0.0000
     9 H(1)   Bbb     0.0047     2.509     0.895     0.837  0.9814  0.1922  0.0000
              Bcc     0.0053     2.854     1.018     0.952  0.0000  0.0000  1.0000
 
              Baa    -0.0234   -12.482    -4.454    -4.164  0.0000  0.0000  1.0000
    10 H(1)   Bbb    -0.0100    -5.309    -1.894    -1.771  1.0000  0.0036  0.0000
              Bcc     0.0333    17.791     6.348     5.935 -0.0036  1.0000  0.0000
 

 ---------------------------------------------------------------------------------


 Test job not archived.
 1\1\GINC-SULU\Stability\UHF\Gen\H10\LCJ1\23-Feb-2017\0\\#uhf/gen scf(t
 ight,novaracc,noincfock,fulldiag) stable(crhf) guess=read geom=nocrowd
  test\\hf stability analysis of h10 triangular lattice, y= 0.331866625
 67991565 alpha= 10.800000000000001\\0,1\H\H,1,1.7710763599\H,1,1.77107
 63599,2,158.4\H,2,1.7710763599,1,21.6,3,0.,0\H,3,1.7710763599,1,180.,2
 ,0.,0\H,4,1.7710763599,2,180.,1,0.,0\H,5,1.7710763599,3,180.,2,0.,0\H,
 6,1.7710763599,4,180.,1,0.,0\H,7,1.7710763599,5,180.,2,0.,0\H,8,1.7710
 763599,6,180.,1,0.,0\\Version=ES64L-G09RevE.01\HF=-5.1959698\MP2=-5.23
 59234\PUHF=-5.1959742\PMP2-0=-5.2359278\S2=0.999998\S2-1=0.999992\S2A=
 0.000044\RMSD=6.955e-09\Dipole=0.,0.,0.\Quadrupole=1.5034402,0.845661,
 -2.3491012,0.,1.3020976,0.\PG=C02H [SGH(H10)]\\@


 IT IS BY LOGIC THAT WE PROVE, BUT BY INTUITION THAT WE DISCOVER.
     -- J.H.POINCARE (1854-1912)
 Job cpu time:       0 days  0 hours  0 minutes  1.1 seconds.
 File lengths (MBytes):  RWF=     94 Int=      0 D2E=      0 Chk=      2 Scr=      2
 Normal termination of Gaussian 09 at Thu Feb 23 17:02:04 2017.
