 Entering Gaussian System, Link 0=g09
 AtFile(1): H.gbs
            H     0
            S   10   1.00
               1000.000000000000            0.000068713567
                316.227766000000            0.000169141320
                100.000000000000            0.000823394812
                 31.622776600000            0.003425569236
                 10.000000000000            0.013951996000
                  3.162277660000            0.056909313560
                  1.000000000000            0.198286399900
                  0.316227766000            0.496922426700
                  0.100000000000            0.369846276400
                  0.031622776600            0.003752720039
            ****
 Initial command:
 /projects/guscus/apps/gau/g09-e1/g09/l1.exe "/users/lcj1/gaussian/h10/2rows_uhf/ag2bu3/singlet/follow23/Gau-32756.inp" -scrdir="/users/lcj1/gaussian/h10/2rows_uhf/ag2bu3/singlet/follow23/"
 Entering Link 1 = /projects/guscus/apps/gau/g09-e1/g09/l1.exe PID=     32757.
  
 Copyright (c) 1988,1990,1992,1993,1995,1998,2003,2009,2015,
            Gaussian, Inc.  All Rights Reserved.
  
 This is part of the Gaussian(R) 09 program.  It is based on
 the Gaussian(R) 03 system (copyright 2003, Gaussian, Inc.),
 the Gaussian(R) 98 system (copyright 1998, Gaussian, Inc.),
 the Gaussian(R) 94 system (copyright 1995, Gaussian, Inc.),
 the Gaussian 92(TM) system (copyright 1992, Gaussian, Inc.),
 the Gaussian 90(TM) system (copyright 1990, Gaussian, Inc.),
 the Gaussian 88(TM) system (copyright 1988, Gaussian, Inc.),
 the Gaussian 86(TM) system (copyright 1986, Carnegie Mellon
 University), and the Gaussian 82(TM) system (copyright 1983,
 Carnegie Mellon University). Gaussian is a federally registered
 trademark of Gaussian, Inc.
  
 This software contains proprietary and confidential information,
 including trade secrets, belonging to Gaussian, Inc.
  
 This software is provided under written license and may be
 used, copied, transmitted, or stored only in accord with that
 written license.
  
 The following legend is applicable only to US Government
 contracts under FAR:
  
                    RESTRICTED RIGHTS LEGEND
  
 Use, reproduction and disclosure by the US Government is
 subject to restrictions as set forth in subparagraphs (a)
 and (c) of the Commercial Computer Software - Restricted
 Rights clause in FAR 52.227-19.
  
 Gaussian, Inc.
 340 Quinnipiac St., Bldg. 40, Wallingford CT 06492
  
  
 ---------------------------------------------------------------
 Warning -- This program may not be used in any manner that
 competes with the business of Gaussian, Inc. or will provide
 assistance to any competitor of Gaussian, Inc.  The licensee
 of this program is prohibited from giving any competitor of
 Gaussian, Inc. access to this program.  By using this program,
 the user acknowledges that Gaussian, Inc. is engaged in the
 business of creating and licensing software in the field of
 computational chemistry and represents and warrants to the
 licensee that it is not a competitor of Gaussian, Inc. and that
 it will not use this program in any manner prohibited above.
 ---------------------------------------------------------------
  

 Cite this work as:
 Gaussian 09, Revision E.01,
 M. J. Frisch, G. W. Trucks, H. B. Schlegel, G. E. Scuseria, 
 M. A. Robb, J. R. Cheeseman, G. Scalmani, V. Barone, B. Mennucci, 
 G. A. Petersson, H. Nakatsuji, M. Caricato, X. Li, H. P. Hratchian, 
 A. F. Izmaylov, J. Bloino, G. Zheng, J. L. Sonnenberg, M. Hada, 
 M. Ehara, K. Toyota, R. Fukuda, J. Hasegawa, M. Ishida, T. Nakajima, 
 Y. Honda, O. Kitao, H. Nakai, T. Vreven, J. A. Montgomery, Jr., 
 J. E. Peralta, F. Ogliaro, M. Bearpark, J. J. Heyd, E. Brothers, 
 K. N. Kudin, V. N. Staroverov, T. Keith, R. Kobayashi, J. Normand, 
 K. Raghavachari, A. Rendell, J. C. Burant, S. S. Iyengar, J. Tomasi, 
 M. Cossi, N. Rega, J. M. Millam, M. Klene, J. E. Knox, J. B. Cross, 
 V. Bakken, C. Adamo, J. Jaramillo, R. Gomperts, R. E. Stratmann, 
 O. Yazyev, A. J. Austin, R. Cammi, C. Pomelli, J. W. Ochterski, 
 R. L. Martin, K. Morokuma, V. G. Zakrzewski, G. A. Voth, 
 P. Salvador, J. J. Dannenberg, S. Dapprich, A. D. Daniels, 
 O. Farkas, J. B. Foresman, J. V. Ortiz, J. Cioslowski, 
 and D. J. Fox, Gaussian, Inc., Wallingford CT, 2013.
 
 ******************************************
 Gaussian 09:  ES64L-G09RevE.01 30-Nov-2015
                23-Feb-2017 
 ******************************************
 %chk=h10.chk
 ----------------------------------------------------------------------
 #uhf/gen scf(tight,novaracc,noincfock,fulldiag) stable(crhf) guess=rea
 d geom=nocrowd test
 ----------------------------------------------------------------------
 1/38=1/1;
 2/12=1,17=6,18=5,40=1/2;
 3/5=7,16=1,25=1,30=1,116=2/1,2,3;
 4/5=1/1;
 5/5=100002,16=1,32=2,38=6/2;
 8/6=1,10=90,11=11/1,4;
 9/8=4,13=1/2;
 6/7=2,8=2,9=2,10=2,28=1/1;
 99/5=1,9=1/99;
 ----------------------------------------------------------------------
 hf stability analysis of h10 triangular lattice, y= 0.2738333615898873
 0 alpha= 7.4000000000000004
 ----------------------------------------------------------------------
 Symbolic Z-matrix:
 Charge =  0 Multiplicity = 1
 H
 H                    1     2.12611 
 H                    1     2.12611  2     165.2 
 H                    2     2.12611  1     14.8     3     0.       0
 H                    3     2.12611  1     180.     2     0.       0
 H                    4     2.12611  2     180.     1     0.       0
 H                    5     2.12611  3     180.     2     0.       0
 H                    6     2.12611  4     180.     1     0.       0
 H                    7     2.12611  5     180.     2     0.       0
 H                    8     2.12611  6     180.     1     0.       0
 
                          Input orientation:                          
 ---------------------------------------------------------------------
 Center     Atomic      Atomic             Coordinates (Angstroms)
 Number     Number       Type             X           Y           Z
 ---------------------------------------------------------------------
      1          1           0        0.000000    0.000000    0.000000
      2          1           0        0.000000    0.000000    2.126108
      3          1           0        0.543105    0.000000   -2.055571
      4          1           0        0.543105    0.000000    0.070537
      5          1           0        1.086211    0.000000   -4.111142
      6          1           0        1.086211    0.000000   -1.985034
      7          1           0        1.629316    0.000000   -6.166713
      8          1           0        1.629316    0.000000   -4.040605
      9          1           0        2.172421    0.000000   -8.222284
     10          1           0        2.172421    0.000000   -6.096176
 ---------------------------------------------------------------------
                    Distance matrix (angstroms):
                    1          2          3          4          5
     1  H    0.000000
     2  H    2.126108   0.000000
     3  H    2.126108   4.216800   0.000000
     4  H    0.547667   2.126108   2.126108   0.000000
     5  H    4.252216   6.331125   2.126108   4.216800   0.000000
     6  H    2.262789   4.252216   0.547667   2.126108   2.126108
     7  H    6.378324   8.451364   4.252216   6.331125   2.126108
     8  H    4.356737   6.378324   2.262789   4.252216   0.547667
     9  H    8.504432  10.573960   6.378324   8.451364   4.252216
    10  H    6.471690   8.504432   4.356737   6.378324   2.262789
                    6          7          8          9         10
     6  H    0.000000
     7  H    4.216800   0.000000
     8  H    2.126108   2.126108   0.000000
     9  H    6.331125   2.126108   4.216800   0.000000
    10  H    4.252216   0.547667   2.126108   2.126108   0.000000
 Stoichiometry    H10
 Framework group  C2H[SGH(H10)]
 Deg. of freedom     9
 Full point group                 C2H     NOp   4
 Largest Abelian subgroup         C2H     NOp   4
 Largest concise Abelian subgroup C2      NOp   2
                         Standard orientation:                         
 ---------------------------------------------------------------------
 Center     Atomic      Atomic             Coordinates (Angstroms)
 Number     Number       Type             X           Y           Z
 ---------------------------------------------------------------------
      1          1           0        1.086211   -3.048088    0.000000
      2          1           0        1.086211   -5.174196    0.000000
      3          1           0        0.543105   -0.992517    0.000000
      4          1           0        0.543105   -3.118625    0.000000
      5          1           0        0.000000    1.063054    0.000000
      6          1           0       -0.000000   -1.063054    0.000000
      7          1           0       -0.543105    3.118625    0.000000
      8          1           0       -0.543105    0.992517    0.000000
      9          1           0       -1.086211    5.174196    0.000000
     10          1           0       -1.086211    3.048088    0.000000
 ---------------------------------------------------------------------
 Rotational constants (GHZ):    760.0640099      4.9625537      4.9303627
 General basis read from cards:  (5D, 7F)
 There are     5 symmetry adapted cartesian basis functions of AG  symmetry.
 There are     0 symmetry adapted cartesian basis functions of BG  symmetry.
 There are     0 symmetry adapted cartesian basis functions of AU  symmetry.
 There are     5 symmetry adapted cartesian basis functions of BU  symmetry.
 There are     5 symmetry adapted basis functions of AG  symmetry.
 There are     0 symmetry adapted basis functions of BG  symmetry.
 There are     0 symmetry adapted basis functions of AU  symmetry.
 There are     5 symmetry adapted basis functions of BU  symmetry.
    10 basis functions,   100 primitive gaussians,    10 cartesian basis functions
     5 alpha electrons        5 beta electrons
       nuclear repulsion energy        10.2578501324 Hartrees.
 NAtoms=   10 NActive=   10 NUniq=    5 SFac= 4.00D+00 NAtFMM=   60 NAOKFM=F Big=F
 Integral buffers will be    131072 words long.
 Regular integral format.
 Two-electron integral symmetry is turned on.
 One-electron integrals computed using PRISM.
 NBasis=    10 RedAO= T EigKep=  1.27D-01  NBF=     5     0     0     5
 NBsUse=    10 1.00D-06 EigRej= -1.00D+00 NBFU=     5     0     0     5
 Initial guess from the checkpoint file:  "h10.chk"
 B after Tr=     0.000000   -0.000000    0.000000
         Rot=    0.999995    0.000000    0.000000    0.003103 Ang=   0.36 deg.
 Initial guess orbital symmetries:
 Alpha Orbitals:
       Occupied  (BG) (BG) (BG) (BG) (BG)
       Virtual   (BG) (?A) (?A) (?A) (?A)
 Beta  Orbitals:
       Occupied  (BG) (BG) (BG) (BG) (BG)
       Virtual   (BG) (?A) (?A) (?A) (?A)
 Initial guess <Sx>= 0.0000 <Sy>= 0.0000 <Sz>= 0.0000 <S**2>= 1.0000 S= 0.6180
 Keep R1 and R2 ints in memory in symmetry-blocked form, NReq=872089.
 Requested convergence on RMS density matrix=1.00D-08 within 128 cycles.
 Requested convergence on MAX density matrix=1.00D-06.
 Requested convergence on             energy=1.00D-06.
 No special actions if energy rises.
 An orbital has undefined symmetry, so N**3 symmetry is turned off.
 Density matrix breaks symmetry, PCut= 1.00D-04
 Density matrix has no symmetry -- integrals replicated.
 Density matrix breaks symmetry, PCut= 1.00D-07
 Density matrix has no symmetry -- integrals replicated.
 Density matrix breaks symmetry, PCut= 1.00D-07
 Density matrix has no symmetry -- integrals replicated.
 Density matrix breaks symmetry, PCut= 1.00D-07
 Density matrix has no symmetry -- integrals replicated.
 Density matrix breaks symmetry, PCut= 1.00D-07
 Density matrix has no symmetry -- integrals replicated.
 Density matrix breaks symmetry, PCut= 1.00D-07
 Density matrix has no symmetry -- integrals replicated.
 Density matrix breaks symmetry, PCut= 1.00D-07
 Density matrix has no symmetry -- integrals replicated.
 SCF Done:  E(UHF) =  -5.00770973420     A.U. after    6 cycles
            NFock=  6  Conv=0.74D-08     -V/T= 2.0514
 <Sx>= 0.0000 <Sy>= 0.0000 <Sz>= 0.0000 <S**2>= 1.0000 S= 0.6180
 <L.S>= 0.000000000000E+00
 Annihilation of the first spin contaminant:
 S**2 before annihilation     1.0000,   after     0.0000
 Range of M.O.s used for correlation:     1    10
 NBasis=    10 NAE=     5 NBE=     5 NFC=     0 NFV=     0
 NROrb=     10 NOA=     5 NOB=     5 NVA=     5 NVB=     5
 Semi-Direct transformation.
 ModeAB=           2 MOrb=             5 LenV=     134114781
 LASXX=         1030 LTotXX=        1030 LenRXX=        1030
 LTotAB=        1825 MaxLAS=        2750 LenRXY=        2750
 NonZer=        2750 LenScr=      655360 LnRSAI=           0
 LnScr1=           0 LExtra=           0 Total=       659140
 MaxDsk=          -1 SrtSym=           F ITran=            3
 JobTyp=1 Pass  1:  I=   1 to   5.
 (rs|ai) integrals will be sorted in core.
 ModeAB=           2 MOrb=             5 LenV=     134114781
 LASXX=         1030 LTotXX=        1030 LenRXX=        2750
 LTotAB=         225 MaxLAS=        2750 LenRXY=         225
 NonZer=        2750 LenScr=      655360 LnRSAI=           0
 LnScr1=           0 LExtra=           0 Total=       658335
 MaxDsk=          -1 SrtSym=           F ITran=            3
 JobTyp=2 Pass  1:  I=   1 to   5.
 (rs|ai) integrals will be sorted in core.
 SymMOI:  orbitals are not symmetric.
 Spin components of T(2) and E(2):
     alpha-alpha T2 =       0.6531465444D-04 E2=     -0.1649291713D-03
     alpha-beta  T2 =       0.1221360964D-01 E2=     -0.3076154196D-01
     beta-beta   T2 =       0.6531465444D-04 E2=     -0.1649291713D-03
 ANorm=    0.1006153189D+01
 E2 =    -0.3109140031D-01 EUMP2 =    -0.50388011345099D+01
 (S**2,0)=  0.10000D+01           (S**2,1)=  0.10000D+01
 E(PUHF)=      -0.50077097528D+01        E(PMP2)=      -0.50388011531D+01
 Second order stability test of a single determinant UHF wave function:
 Stabil:  MDV=134217728
 ***********************************************************************
 Matrix         Lowest Root    Major Pairs
 ***********************************************************************
 Internal UHF     0.5080375    Stable
 RUHF --> CUHF (A)0.5791102    Stable
 RUHF --> CUHF (B)0.5791102    Stable
 RUHF --> GHF     0.           Zero root
 Stable under the perturbations considered.
 ***********************************************************************

 **********************************************************************

            Population analysis using the SCF density.

 **********************************************************************

 Orbital symmetries:
 Alpha Orbitals:
       Occupied  (BG) (BG) (BG) (BG) (BG)
       Virtual   (BG) (?A) (?A) (?A) (?A)
 Beta  Orbitals:
       Occupied  (BG) (BG) (BG) (BG) (BG)
       Virtual   (BG) (?A) (?A) (?A) (?A)
 Unable to determine electronic state:  partially filled degenerate orbitals.
 Alpha  occ. eigenvalues --   -0.73233  -0.71164  -0.68055  -0.64909  -0.49162
 Alpha virt. eigenvalues --    0.13844   0.46109   0.52389   0.61322   0.69663
  Beta  occ. eigenvalues --   -0.73233  -0.71164  -0.68055  -0.64909  -0.49162
  Beta virt. eigenvalues --    0.13844   0.46109   0.52389   0.61322   0.69663
          Condensed to atoms (all electrons):
               1          2          3          4          5          6
     1  H    0.573950  -0.023099  -0.021757   0.490157   0.000153  -0.018012
     2  H   -0.023099   1.041499   0.000157  -0.023087  -0.000001   0.000169
     3  H   -0.021757   0.000157   0.586181  -0.022326  -0.022079   0.497968
     4  H    0.490157  -0.023087  -0.022326   0.579696   0.000164  -0.021865
     5  H    0.000153  -0.000001  -0.022079   0.000164   0.585855  -0.022590
     6  H   -0.018012   0.000169   0.497968  -0.021865  -0.022590   0.585855
     7  H   -0.000001   0.000000   0.000154  -0.000001  -0.021865   0.000164
     8  H    0.000128  -0.000001  -0.018240   0.000154   0.497968  -0.022079
     9  H    0.000000   0.000000  -0.000001   0.000000   0.000169  -0.000001
    10  H   -0.000000   0.000000   0.000128  -0.000001  -0.018012   0.000153
               7          8          9         10
     1  H   -0.000001   0.000128   0.000000  -0.000000
     2  H    0.000000  -0.000001   0.000000   0.000000
     3  H    0.000154  -0.018240  -0.000001   0.000128
     4  H   -0.000001   0.000154   0.000000  -0.000001
     5  H   -0.021865   0.497968   0.000169  -0.018012
     6  H    0.000164  -0.022079  -0.000001   0.000153
     7  H    0.579696  -0.022326  -0.023087   0.490157
     8  H   -0.022326   0.586181   0.000157  -0.021757
     9  H   -0.023087   0.000157   1.041499  -0.023099
    10  H    0.490157  -0.021757  -0.023099   0.573950
          Atomic-Atomic Spin Densities.
               1          2          3          4          5          6
     1  H   -0.008949   0.018099   0.000234  -0.007525  -0.000002   0.000255
     2  H    0.018099  -1.040245  -0.000127   0.018062   0.000000  -0.000142
     3  H    0.000234  -0.000127  -0.000087   0.000230  -0.000005  -0.000185
     4  H   -0.007525   0.018062   0.000230  -0.008760  -0.000002   0.000297
     5  H   -0.000002   0.000000  -0.000005  -0.000002   0.000353   0.000000
     6  H    0.000255  -0.000142  -0.000185   0.000297   0.000000  -0.000353
     7  H   -0.000000  -0.000000   0.000002  -0.000000  -0.000297   0.000002
     8  H   -0.000002   0.000001  -0.000000  -0.000002   0.000185   0.000005
     9  H    0.000000  -0.000000  -0.000001   0.000000   0.000142  -0.000000
    10  H    0.000000  -0.000000   0.000002   0.000000  -0.000255   0.000002
               7          8          9         10
     1  H   -0.000000  -0.000002   0.000000   0.000000
     2  H   -0.000000   0.000001  -0.000000  -0.000000
     3  H    0.000002  -0.000000  -0.000001   0.000002
     4  H   -0.000000  -0.000002   0.000000   0.000000
     5  H   -0.000297   0.000185   0.000142  -0.000255
     6  H    0.000002   0.000005  -0.000000   0.000002
     7  H    0.008760  -0.000230  -0.018062   0.007525
     8  H   -0.000230   0.000087   0.000127  -0.000234
     9  H   -0.018062   0.000127   1.040245  -0.018099
    10  H    0.007525  -0.000234  -0.018099   0.008949
 Mulliken charges and spin densities:
               1          2
     1  H   -0.001520   0.002110
     2  H    0.004361  -1.004352
     3  H   -0.000186   0.000062
     4  H   -0.002892   0.002300
     5  H    0.000237   0.000119
     6  H    0.000237  -0.000119
     7  H   -0.002892  -0.002300
     8  H   -0.000186  -0.000062
     9  H    0.004361   1.004352
    10  H   -0.001520  -0.002110
 Sum of Mulliken charges =   0.00000  -0.00000
 Mulliken charges and spin densities with hydrogens summed into heavy atoms:
               1          2
 Electronic spatial extent (au):  <R**2>=            393.7788
 Charge=              0.0000 electrons
 Dipole moment (field-independent basis, Debye):
    X=             -0.0000    Y=              0.0000    Z=              0.0000  Tot=              0.0000
 Quadrupole moment (field-independent basis, Debye-Ang):
   XX=            -12.4093   YY=            -15.3828   ZZ=            -13.3316
   XY=              0.6001   XZ=             -0.0000   YZ=             -0.0000
 Traceless Quadrupole moment (field-independent basis, Debye-Ang):
   XX=              1.2986   YY=             -1.6749   ZZ=              0.3763
   XY=              0.6001   XZ=             -0.0000   YZ=             -0.0000
 Octapole moment (field-independent basis, Debye-Ang**2):
  XXX=             -0.0000  YYY=              0.0000  ZZZ=             -0.0000  XYY=             -0.0000
  XXY=              0.0000  XXZ=             -0.0000  XZZ=             -0.0000  YZZ=              0.0000
  YYZ=             -0.0000  XYZ=             -0.0000
 Hexadecapole moment (field-independent basis, Debye-Ang**3):
 XXXX=            -59.9051 YYYY=           -875.9527 ZZZZ=            -16.5132 XXXY=             86.5802
 XXXZ=              0.0000 YYYX=            110.2480 YYYZ=             -0.0000 ZZZX=              0.0000
 ZZZY=             -0.0000 XXYY=           -140.4952 XXZZ=            -13.0990 YYZZ=           -133.8334
 XXYZ=             -0.0000 YYXZ=              0.0000 ZZXY=             29.9739
 N-N= 1.025785013239D+01 E-N=-2.876376014933D+01  KE= 4.763106481965D+00
 Symmetry AG   KE= 2.184235666619D+00
 Symmetry BG   KE= 0.000000000000D+00
 Symmetry AU   KE= 0.000000000000D+00
 Symmetry BU   KE= 2.578870815346D+00
                          Isotropic Fermi Contact Couplings
        Atom                 a.u.       MegaHertz       Gauss      10(-4) cm-1
     1  H(1)              -0.00370      -8.26253      -2.94828      -2.75608
     2  H(1)              -0.32250    -720.76503    -257.18688    -240.42133
     3  H(1)              -0.00005      -0.12189      -0.04349      -0.04066
     4  H(1)              -0.00364      -8.14109      -2.90494      -2.71557
     5  H(1)               0.00013       0.28011       0.09995       0.09343
     6  H(1)              -0.00013      -0.28011      -0.09995      -0.09343
     7  H(1)               0.00364       8.14109       2.90494       2.71557
     8  H(1)               0.00005       0.12189       0.04349       0.04066
     9  H(1)               0.32250     720.76503     257.18688     240.42133
    10  H(1)               0.00370       8.26253       2.94828       2.75608
 --------------------------------------------------------
       Center         ----  Spin Dipole Couplings  ----
                      3XX-RR        3YY-RR        3ZZ-RR
 --------------------------------------------------------
     1   Atom        0.009760     -0.024518      0.014758
     2   Atom       -0.001600      0.003387     -0.001787
     3   Atom        0.001409     -0.002996      0.001586
     4   Atom        0.007589     -0.022369      0.014780
     5   Atom       -0.001007      0.002473     -0.001466
     6   Atom        0.001007     -0.002473      0.001466
     7   Atom       -0.007589      0.022369     -0.014780
     8   Atom       -0.001409      0.002996     -0.001586
     9   Atom        0.001600     -0.003387      0.001787
    10   Atom       -0.009760      0.024518     -0.014758
 --------------------------------------------------------
                        XY            XZ            YZ
 --------------------------------------------------------
     1   Atom        0.000200     -0.000000     -0.000000
     2   Atom       -0.000688     -0.000000      0.000000
     3   Atom        0.000379     -0.000000      0.000000
     4   Atom        0.008112     -0.000000      0.000000
     5   Atom       -0.001237     -0.000000      0.000000
     6   Atom        0.001237     -0.000000      0.000000
     7   Atom       -0.008112     -0.000000      0.000000
     8   Atom       -0.000379     -0.000000      0.000000
     9   Atom        0.000688      0.000000     -0.000000
    10   Atom       -0.000200     -0.000000      0.000000
 --------------------------------------------------------


 ---------------------------------------------------------------------------------
              Anisotropic Spin Dipole Couplings in Principal Axis System
 ---------------------------------------------------------------------------------

       Atom             a.u.   MegaHertz   Gauss  10(-4) cm-1        Axes

              Baa    -0.0245   -13.082    -4.668    -4.364 -0.0058  1.0000 -0.0000
     1 H(1)   Bbb     0.0098     5.208     1.858     1.737  1.0000  0.0058  0.0000
              Bcc     0.0148     7.874     2.810     2.627  0.0000  0.0000  1.0000
 
              Baa    -0.0018    -0.953    -0.340    -0.318  0.0000  0.0000  1.0000
     2 H(1)   Bbb    -0.0017    -0.904    -0.322    -0.301  0.9909  0.1343  0.0000
              Bcc     0.0035     1.857     0.663     0.619 -0.1343  0.9909  0.0000
 
              Baa    -0.0030    -1.616    -0.576    -0.539 -0.0851  0.9964  0.0000
     3 H(1)   Bbb     0.0014     0.769     0.274     0.257  0.9964  0.0851  0.0000
              Bcc     0.0016     0.846     0.302     0.282  0.0000  0.0000  1.0000
 
              Baa    -0.0244   -13.032    -4.650    -4.347 -0.2456  0.9694  0.0000
     4 H(1)   Bbb     0.0096     5.146     1.836     1.716  0.9694  0.2456  0.0000
              Bcc     0.0148     7.886     2.814     2.630  0.0000  0.0000  1.0000
 
              Baa    -0.0015    -0.782    -0.279    -0.261  0.0000  0.0000  1.0000
     5 H(1)   Bbb    -0.0014    -0.748    -0.267    -0.249  0.9526  0.3042  0.0000
              Bcc     0.0029     1.530     0.546     0.510 -0.3042  0.9526  0.0000
 
              Baa    -0.0029    -1.530    -0.546    -0.510 -0.3042  0.9526  0.0000
     6 H(1)   Bbb     0.0014     0.748     0.267     0.249  0.9526  0.3042  0.0000
              Bcc     0.0015     0.782     0.279     0.261  0.0000  0.0000  1.0000
 
              Baa    -0.0148    -7.886    -2.814    -2.630  0.0000  0.0000  1.0000
     7 H(1)   Bbb    -0.0096    -5.146    -1.836    -1.716  0.9694  0.2456  0.0000
              Bcc     0.0244    13.032     4.650     4.347 -0.2456  0.9694  0.0000
 
              Baa    -0.0016    -0.846    -0.302    -0.282  0.0000  0.0000  1.0000
     8 H(1)   Bbb    -0.0014    -0.769    -0.274    -0.257  0.9964  0.0851  0.0000
              Bcc     0.0030     1.616     0.576     0.539 -0.0851  0.9964  0.0000
 
              Baa    -0.0035    -1.857    -0.663    -0.619 -0.1343  0.9909  0.0000
     9 H(1)   Bbb     0.0017     0.904     0.322     0.301  0.9909  0.1343  0.0000
              Bcc     0.0018     0.953     0.340     0.318  0.0000  0.0000  1.0000
 
              Baa    -0.0148    -7.874    -2.810    -2.627  0.0000  0.0000  1.0000
    10 H(1)   Bbb    -0.0098    -5.208    -1.858    -1.737  1.0000  0.0058  0.0000
              Bcc     0.0245    13.082     4.668     4.364 -0.0058  1.0000  0.0000
 

 ---------------------------------------------------------------------------------


 Test job not archived.
 1\1\GINC-SULU\Stability\UHF\Gen\H10\LCJ1\23-Feb-2017\0\\#uhf/gen scf(t
 ight,novaracc,noincfock,fulldiag) stable(crhf) guess=read geom=nocrowd
  test\\hf stability analysis of h10 triangular lattice, y= 0.273833361
 58988730 alpha= 7.4000000000000004\\0,1\H\H,1,2.1261080448\H,1,2.12610
 80448,2,165.2\H,2,2.1261080448,1,14.8,3,0.,0\H,3,2.1261080448,1,180.,2
 ,0.,0\H,4,2.1261080448,2,180.,1,0.,0\H,5,2.1261080448,3,180.,2,0.,0\H,
 6,2.1261080448,4,180.,1,0.,0\H,7,2.1261080448,5,180.,2,0.,0\H,8,2.1261
 080448,6,180.,1,0.,0\\Version=ES64L-G09RevE.01\HF=-5.0077097\MP2=-5.03
 88011\PUHF=-5.0077098\PMP2-0=-5.0388012\S2=1.\S2-1=1.\S2A=0.\RMSD=7.41
 6e-09\Dipole=0.,0.,0.\Quadrupole=0.9654574,0.2797714,-1.2452288,0.,0.4
 461363,0.\PG=C02H [SGH(H10)]\\@


 "PERFECTION IS NOT AN ACCIDENT"
         --  EAGLE ELECTRIC MANUFACTURING CO.,INC. NY
 Job cpu time:       0 days  0 hours  0 minutes  1.1 seconds.
 File lengths (MBytes):  RWF=     94 Int=      0 D2E=      0 Chk=      2 Scr=      2
 Normal termination of Gaussian 09 at Thu Feb 23 17:02:49 2017.
