 Entering Gaussian System, Link 0=g09
 AtFile(1): H.gbs
            H     0
            S   10   1.00
               1000.000000000000            0.000068713567
                316.227766000000            0.000169141320
                100.000000000000            0.000823394812
                 31.622776600000            0.003425569236
                 10.000000000000            0.013951996000
                  3.162277660000            0.056909313560
                  1.000000000000            0.198286399900
                  0.316227766000            0.496922426700
                  0.100000000000            0.369846276400
                  0.031622776600            0.003752720039
            ****
 Initial command:
 /projects/guscus/apps/gau/g09-e1/g09/l1.exe "/users/lcj1/gaussian/h10/2rows_uhf/ag2bu3/singlet/follow23/Gau-30984.inp" -scrdir="/users/lcj1/gaussian/h10/2rows_uhf/ag2bu3/singlet/follow23/"
 Entering Link 1 = /projects/guscus/apps/gau/g09-e1/g09/l1.exe PID=     30985.
  
 Copyright (c) 1988,1990,1992,1993,1995,1998,2003,2009,2015,
            Gaussian, Inc.  All Rights Reserved.
  
 This is part of the Gaussian(R) 09 program.  It is based on
 the Gaussian(R) 03 system (copyright 2003, Gaussian, Inc.),
 the Gaussian(R) 98 system (copyright 1998, Gaussian, Inc.),
 the Gaussian(R) 94 system (copyright 1995, Gaussian, Inc.),
 the Gaussian 92(TM) system (copyright 1992, Gaussian, Inc.),
 the Gaussian 90(TM) system (copyright 1990, Gaussian, Inc.),
 the Gaussian 88(TM) system (copyright 1988, Gaussian, Inc.),
 the Gaussian 86(TM) system (copyright 1986, Carnegie Mellon
 University), and the Gaussian 82(TM) system (copyright 1983,
 Carnegie Mellon University). Gaussian is a federally registered
 trademark of Gaussian, Inc.
  
 This software contains proprietary and confidential information,
 including trade secrets, belonging to Gaussian, Inc.
  
 This software is provided under written license and may be
 used, copied, transmitted, or stored only in accord with that
 written license.
  
 The following legend is applicable only to US Government
 contracts under FAR:
  
                    RESTRICTED RIGHTS LEGEND
  
 Use, reproduction and disclosure by the US Government is
 subject to restrictions as set forth in subparagraphs (a)
 and (c) of the Commercial Computer Software - Restricted
 Rights clause in FAR 52.227-19.
  
 Gaussian, Inc.
 340 Quinnipiac St., Bldg. 40, Wallingford CT 06492
  
  
 ---------------------------------------------------------------
 Warning -- This program may not be used in any manner that
 competes with the business of Gaussian, Inc. or will provide
 assistance to any competitor of Gaussian, Inc.  The licensee
 of this program is prohibited from giving any competitor of
 Gaussian, Inc. access to this program.  By using this program,
 the user acknowledges that Gaussian, Inc. is engaged in the
 business of creating and licensing software in the field of
 computational chemistry and represents and warrants to the
 licensee that it is not a competitor of Gaussian, Inc. and that
 it will not use this program in any manner prohibited above.
 ---------------------------------------------------------------
  

 Cite this work as:
 Gaussian 09, Revision E.01,
 M. J. Frisch, G. W. Trucks, H. B. Schlegel, G. E. Scuseria, 
 M. A. Robb, J. R. Cheeseman, G. Scalmani, V. Barone, B. Mennucci, 
 G. A. Petersson, H. Nakatsuji, M. Caricato, X. Li, H. P. Hratchian, 
 A. F. Izmaylov, J. Bloino, G. Zheng, J. L. Sonnenberg, M. Hada, 
 M. Ehara, K. Toyota, R. Fukuda, J. Hasegawa, M. Ishida, T. Nakajima, 
 Y. Honda, O. Kitao, H. Nakai, T. Vreven, J. A. Montgomery, Jr., 
 J. E. Peralta, F. Ogliaro, M. Bearpark, J. J. Heyd, E. Brothers, 
 K. N. Kudin, V. N. Staroverov, T. Keith, R. Kobayashi, J. Normand, 
 K. Raghavachari, A. Rendell, J. C. Burant, S. S. Iyengar, J. Tomasi, 
 M. Cossi, N. Rega, J. M. Millam, M. Klene, J. E. Knox, J. B. Cross, 
 V. Bakken, C. Adamo, J. Jaramillo, R. Gomperts, R. E. Stratmann, 
 O. Yazyev, A. J. Austin, R. Cammi, C. Pomelli, J. W. Ochterski, 
 R. L. Martin, K. Morokuma, V. G. Zakrzewski, G. A. Voth, 
 P. Salvador, J. J. Dannenberg, S. Dapprich, A. D. Daniels, 
 O. Farkas, J. B. Foresman, J. V. Ortiz, J. Cioslowski, 
 and D. J. Fox, Gaussian, Inc., Wallingford CT, 2013.
 
 ******************************************
 Gaussian 09:  ES64L-G09RevE.01 30-Nov-2015
                23-Feb-2017 
 ******************************************
 %chk=h10.chk
 ----------------------------------------------------------------------
 #uhf/gen scf(tight,novaracc,noincfock,fulldiag) stable(crhf) guess=rea
 d geom=nocrowd test
 ----------------------------------------------------------------------
 1/38=1/1;
 2/12=1,17=6,18=5,40=1/2;
 3/5=7,16=1,25=1,30=1,116=2/1,2,3;
 4/5=1/1;
 5/5=100002,16=1,32=2,38=6/2;
 8/6=1,10=90,11=11/1,4;
 9/8=4,13=1/2;
 6/7=2,8=2,9=2,10=2,28=1/1;
 99/5=1,9=1/99;
 ----------------------------------------------------------------------
 hf stability analysis of h10 triangular lattice, y= 0.3765777897089523
 4 alpha= 13.800000000000001
 ----------------------------------------------------------------------
 Symbolic Z-matrix:
 Charge =  0 Multiplicity = 1
 H
 H                    1     1.57872 
 H                    1     1.57872  2     152.4 
 H                    2     1.57872  1     27.6     3     0.       0
 H                    3     1.57872  1     180.     2     0.       0
 H                    4     1.57872  2     180.     1     0.       0
 H                    5     1.57872  3     180.     2     0.       0
 H                    6     1.57872  4     180.     1     0.       0
 H                    7     1.57872  5     180.     2     0.       0
 H                    8     1.57872  6     180.     1     0.       0
 
                          Input orientation:                          
 ---------------------------------------------------------------------
 Center     Atomic      Atomic             Coordinates (Angstroms)
 Number     Number       Type             X           Y           Z
 ---------------------------------------------------------------------
      1          1           0        0.000000    0.000000    0.000000
      2          1           0        0.000000    0.000000    1.578721
      3          1           0        0.731415    0.000000   -1.399068
      4          1           0        0.731415    0.000000    0.179653
      5          1           0        1.462830    0.000000   -2.798136
      6          1           0        1.462830    0.000000   -1.219415
      7          1           0        2.194246    0.000000   -4.197205
      8          1           0        2.194246    0.000000   -2.618484
      9          1           0        2.925661    0.000000   -5.596273
     10          1           0        2.925661    0.000000   -4.017552
 ---------------------------------------------------------------------
                    Distance matrix (angstroms):
                    1          2          3          4          5
     1  H    0.000000
     2  H    1.578721   0.000000
     3  H    1.578721   3.066300   0.000000
     4  H    0.753156   1.578721   1.578721   0.000000
     5  H    3.157442   4.614841   1.578721   3.066300   0.000000
     6  H    1.904428   3.157442   0.753156   1.578721   1.578721
     7  H    4.736163   6.178675   3.157442   4.614841   1.578721
     8  H    3.416309   4.736163   1.904428   3.157442   0.753156
     9  H    6.314884   7.748550   4.736163   6.178675   3.157442
    10  H    4.969931   6.314884   3.416309   4.736163   1.904428
                    6          7          8          9         10
     6  H    0.000000
     7  H    3.066300   0.000000
     8  H    1.578721   1.578721   0.000000
     9  H    4.614841   1.578721   3.066300   0.000000
    10  H    3.157442   0.753156   1.578721   1.578721   0.000000
 Stoichiometry    H10
 Framework group  C2H[SGH(H10)]
 Deg. of freedom     9
 Full point group                 C2H     NOp   4
 Largest Abelian subgroup         C2H     NOp   4
 Largest concise Abelian subgroup C2      NOp   2
                         Standard orientation:                         
 ---------------------------------------------------------------------
 Center     Atomic      Atomic             Coordinates (Angstroms)
 Number     Number       Type             X           Y           Z
 ---------------------------------------------------------------------
      1          1           0        1.462830   -2.008776   -0.000000
      2          1           0        1.462830   -3.587497   -0.000000
      3          1           0        0.731415   -0.609708   -0.000000
      4          1           0        0.731415   -2.188429   -0.000000
      5          1           0        0.000000    0.789361    0.000000
      6          1           0       -0.000000   -0.789361    0.000000
      7          1           0       -0.731415    2.188429   -0.000000
      8          1           0       -0.731415    0.609708   -0.000000
      9          1           0       -1.462830    3.587497   -0.000000
     10          1           0       -1.462830    2.008776   -0.000000
 ---------------------------------------------------------------------
 Rotational constants (GHZ):    412.6696206      9.1401409      8.9420843
 General basis read from cards:  (5D, 7F)
 There are     5 symmetry adapted cartesian basis functions of AG  symmetry.
 There are     0 symmetry adapted cartesian basis functions of BG  symmetry.
 There are     0 symmetry adapted cartesian basis functions of AU  symmetry.
 There are     5 symmetry adapted cartesian basis functions of BU  symmetry.
 There are     5 symmetry adapted basis functions of AG  symmetry.
 There are     0 symmetry adapted basis functions of BG  symmetry.
 There are     0 symmetry adapted basis functions of AU  symmetry.
 There are     5 symmetry adapted basis functions of BU  symmetry.
    10 basis functions,   100 primitive gaussians,    10 cartesian basis functions
     5 alpha electrons        5 beta electrons
       nuclear repulsion energy        11.3118484265 Hartrees.
 NAtoms=   10 NActive=   10 NUniq=    5 SFac= 4.00D+00 NAtFMM=   60 NAOKFM=F Big=F
 Integral buffers will be    131072 words long.
 Regular integral format.
 Two-electron integral symmetry is turned on.
 One-electron integrals computed using PRISM.
 NBasis=    10 RedAO= T EigKep=  1.69D-01  NBF=     5     0     0     5
 NBsUse=    10 1.00D-06 EigRej= -1.00D+00 NBFU=     5     0     0     5
 Initial guess from the checkpoint file:  "h10.chk"
 B after Tr=    -0.000000    0.000000   -0.000000
         Rot=    0.999995    0.000000    0.000000    0.003103 Ang=   0.36 deg.
 Initial guess orbital symmetries:
 Alpha Orbitals:
       Occupied  (BG) (BG) (BG) (BG) (BG)
       Virtual   (BG) (BG) (BG) (BG) (BG)
 Beta  Orbitals:
       Occupied  (BG) (BG) (BG) (BG) (BG)
       Virtual   (BG) (BG) (BG) (BG) (BG)
 Initial guess <Sx>= 0.0000 <Sy>= 0.0000 <Sz>= 0.0000 <S**2>= 1.0002 S= 0.6181
 Keep R1 and R2 ints in memory in symmetry-blocked form, NReq=874595.
 Requested convergence on RMS density matrix=1.00D-08 within 128 cycles.
 Requested convergence on MAX density matrix=1.00D-06.
 Requested convergence on             energy=1.00D-06.
 No special actions if energy rises.
 An orbital has undefined symmetry, so N**3 symmetry is turned off.
 Density matrix breaks symmetry, PCut= 1.00D-04
 Density matrix has no symmetry -- integrals replicated.
 Density matrix breaks symmetry, PCut= 1.00D-07
 Density matrix has no symmetry -- integrals replicated.
 Density matrix breaks symmetry, PCut= 1.00D-07
 Density matrix has no symmetry -- integrals replicated.
 Density matrix breaks symmetry, PCut= 1.00D-07
 Density matrix has no symmetry -- integrals replicated.
 Density matrix breaks symmetry, PCut= 1.00D-07
 Density matrix has no symmetry -- integrals replicated.
 Density matrix breaks symmetry, PCut= 1.00D-07
 Density matrix has no symmetry -- integrals replicated.
 Density matrix breaks symmetry, PCut= 1.00D-07
 Density matrix has no symmetry -- integrals replicated.
 Density matrix breaks symmetry, PCut= 1.00D-07
 Density matrix has no symmetry -- integrals replicated.
 Density matrix breaks symmetry, PCut= 1.00D-07
 Density matrix has no symmetry -- integrals replicated.
 Density matrix breaks symmetry, PCut= 1.00D-07
 Density matrix has no symmetry -- integrals replicated.
 Density matrix breaks symmetry, PCut= 1.00D-07
 Density matrix has no symmetry -- integrals replicated.
 SCF Done:  E(UHF) =  -5.15602316725     A.U. after   10 cycles
            NFock= 10  Conv=0.13D-08     -V/T= 1.9822
 <Sx>= 0.0000 <Sy>= 0.0000 <Sz>= 0.0000 <S**2>= 1.0001 S= 0.6181
 <L.S>= 0.000000000000E+00
 Annihilation of the first spin contaminant:
 S**2 before annihilation     1.0001,   after     0.0023
 Range of M.O.s used for correlation:     1    10
 NBasis=    10 NAE=     5 NBE=     5 NFC=     0 NFV=     0
 NROrb=     10 NOA=     5 NOB=     5 NVA=     5 NVB=     5
 Semi-Direct transformation.
 ModeAB=           2 MOrb=             5 LenV=     134111477
 LASXX=         1030 LTotXX=        1030 LenRXX=        1030
 LTotAB=        1825 MaxLAS=        2750 LenRXY=        2750
 NonZer=        2750 LenScr=      655360 LnRSAI=           0
 LnScr1=           0 LExtra=           0 Total=       659140
 MaxDsk=          -1 SrtSym=           F ITran=            3
 JobTyp=1 Pass  1:  I=   1 to   5.
 (rs|ai) integrals will be sorted in core.
 ModeAB=           2 MOrb=             5 LenV=     134111477
 LASXX=         1030 LTotXX=        1030 LenRXX=        2750
 LTotAB=         225 MaxLAS=        2750 LenRXY=         225
 NonZer=        2750 LenScr=      655360 LnRSAI=           0
 LnScr1=           0 LExtra=           0 Total=       658335
 MaxDsk=          -1 SrtSym=           F ITran=            3
 JobTyp=2 Pass  1:  I=   1 to   5.
 (rs|ai) integrals will be sorted in core.
 SymMOI:  orbitals are not symmetric.
 Spin components of T(2) and E(2):
     alpha-alpha T2 =       0.3827742094D-03 E2=     -0.7868235167D-03
     alpha-beta  T2 =       0.2313081328D-01 E2=     -0.4699057503D-01
     beta-beta   T2 =       0.3827742094D-03 E2=     -0.7868235167D-03
 ANorm=    0.1011877642D+01
 E2 =    -0.4856422206D-01 EUMP2 =    -0.52045873893138D+01
 (S**2,0)=  0.10001D+01           (S**2,1)=  0.99993D+00
 E(PUHF)=      -0.51561632835D+01        E(PMP2)=      -0.52047274916D+01
 Second order stability test of a single determinant UHF wave function:
 Stabil:  MDV=134217728
 ***********************************************************************
 Matrix         Lowest Root    Major Pairs
 ***********************************************************************
 Internal UHF     0.1719412    Stable
 RUHF --> CUHF (A)0.3405106    Stable
 RUHF --> CUHF (B)0.3405106    Stable
 RUHF --> GHF     0.           Zero root
 Stable under the perturbations considered.
 ***********************************************************************

 **********************************************************************

            Population analysis using the SCF density.

 **********************************************************************

 Orbital symmetries:
 Alpha Orbitals:
       Occupied  (BG) (BG) (BG) (BG) (BG)
       Virtual   (BG) (BG) (BG) (BG) (BG)
 Beta  Orbitals:
       Occupied  (BG) (BG) (BG) (BG) (BG)
       Virtual   (BG) (BG) (BG) (BG) (BG)
 Unable to determine electronic state:  partially filled degenerate orbitals.
 Alpha  occ. eigenvalues --   -0.75149  -0.69777  -0.60820  -0.49588  -0.40112
 Alpha virt. eigenvalues --    0.18593   0.23144   0.33318   0.49053   0.64885
  Beta  occ. eigenvalues --   -0.75149  -0.69777  -0.60820  -0.49588  -0.40112
  Beta virt. eigenvalues --    0.18593   0.23144   0.33318   0.49053   0.64885
          Condensed to atoms (all electrons):
               1          2          3          4          5          6
     1  H    0.734901  -0.087088  -0.102376   0.533917   0.003709  -0.080508
     2  H   -0.087088   1.180383   0.000913  -0.078864   0.000035   0.002756
     3  H   -0.102376   0.000913   0.783448  -0.082813  -0.106753   0.582163
     4  H    0.533917  -0.078864  -0.082813   0.700378   0.002299  -0.096429
     5  H    0.003709   0.000035  -0.106753   0.002299   0.781791  -0.092468
     6  H   -0.080508   0.002756   0.582163  -0.096429  -0.092468   0.781791
     7  H   -0.000050  -0.000002   0.003242  -0.000000  -0.096429   0.002299
     8  H    0.003438  -0.000019  -0.083492   0.003242   0.582163  -0.106753
     9  H   -0.000001   0.000000  -0.000019  -0.000002   0.002756   0.000035
    10  H   -0.000075  -0.000001   0.003438  -0.000050  -0.080508   0.003709
               7          8          9         10
     1  H   -0.000050   0.003438  -0.000001  -0.000075
     2  H   -0.000002  -0.000019   0.000000  -0.000001
     3  H    0.003242  -0.083492  -0.000019   0.003438
     4  H   -0.000000   0.003242  -0.000002  -0.000050
     5  H   -0.096429   0.582163   0.002756  -0.080508
     6  H    0.002299  -0.106753   0.000035   0.003709
     7  H    0.700378  -0.082813  -0.078864   0.533917
     8  H   -0.082813   0.783448   0.000913  -0.102376
     9  H   -0.078864   0.000913   1.180383  -0.087088
    10  H    0.533917  -0.102376  -0.087088   0.734901
          Atomic-Atomic Spin Densities.
               1          2          3          4          5          6
     1  H   -0.088792   0.105786   0.005966  -0.051716  -0.000251   0.008966
     2  H    0.105786  -1.173520  -0.004290   0.096451   0.000120  -0.005676
     3  H    0.005966  -0.004290   0.011159   0.003899  -0.002683  -0.004902
     4  H   -0.051716   0.096451   0.003899  -0.050796  -0.000218   0.009946
     5  H   -0.000251   0.000120  -0.002683  -0.000218   0.025770  -0.000000
     6  H    0.008966  -0.005676  -0.004902   0.009946  -0.000000  -0.025770
     7  H   -0.000004  -0.000002   0.000405  -0.000000  -0.009946   0.000218
     8  H   -0.000373   0.000152   0.000000  -0.000405   0.004902   0.002683
     9  H    0.000003  -0.000000  -0.000152   0.000002   0.005676  -0.000120
    10  H    0.000000  -0.000003   0.000373   0.000004  -0.008966   0.000251
               7          8          9         10
     1  H   -0.000004  -0.000373   0.000003   0.000000
     2  H   -0.000002   0.000152  -0.000000  -0.000003
     3  H    0.000405   0.000000  -0.000152   0.000373
     4  H   -0.000000  -0.000405   0.000002   0.000004
     5  H   -0.009946   0.004902   0.005676  -0.008966
     6  H    0.000218   0.002683  -0.000120   0.000251
     7  H    0.050796  -0.003899  -0.096451   0.051716
     8  H   -0.003899  -0.011159   0.004290  -0.005966
     9  H   -0.096451   0.004290   1.173520  -0.105786
    10  H    0.051716  -0.005966  -0.105786   0.088792
 Mulliken charges and spin densities:
               1          2
     1  H   -0.005867  -0.020416
     2  H   -0.018113  -0.980982
     3  H    0.002250   0.009776
     4  H    0.018323   0.007167
     5  H    0.003407   0.014403
     6  H    0.003407  -0.014403
     7  H    0.018323  -0.007167
     8  H    0.002250  -0.009776
     9  H   -0.018113   0.980982
    10  H   -0.005867   0.020416
 Sum of Mulliken charges =  -0.00000   0.00000
 Mulliken charges and spin densities with hydrogens summed into heavy atoms:
               1          2
 Electronic spatial extent (au):  <R**2>=            233.5236
 Charge=             -0.0000 electrons
 Dipole moment (field-independent basis, Debye):
    X=             -0.0000    Y=              0.0000    Z=              0.0000  Tot=              0.0000
 Quadrupole moment (field-independent basis, Debye-Ang):
   XX=            -12.5350   YY=            -19.4092   ZZ=            -12.7984
   XY=              3.4388   XZ=             -0.0000   YZ=              0.0000
 Traceless Quadrupole moment (field-independent basis, Debye-Ang):
   XX=              2.3792   YY=             -4.4950   ZZ=              2.1158
   XY=              3.4388   XZ=             -0.0000   YZ=              0.0000
 Octapole moment (field-independent basis, Debye-Ang**2):
  XXX=             -0.0000  YYY=              0.0000  ZZZ=              0.0000  XYY=             -0.0000
  XXY=              0.0000  XXZ=              0.0000  XZZ=             -0.0000  YZZ=              0.0000
  YYZ=              0.0000  XYZ=             -0.0000
 Hexadecapole moment (field-independent basis, Debye-Ang**3):
 XXXX=            -95.3597 YYYY=           -503.1715 ZZZZ=            -15.3895 XXXY=             86.2594
 XXXZ=             -0.0000 YYYX=            135.7417 YYYZ=              0.0000 ZZZX=             -0.0000
 ZZZY=              0.0000 XXYY=            -98.4900 XXZZ=            -18.9131 YYZZ=            -65.9746
 XXYZ=              0.0000 YYXZ=             -0.0000 ZZXY=             27.5922
 N-N= 1.131184842648D+01 E-N=-3.227601292570D+01  KE= 5.249210585434D+00
 Symmetry AG   KE= 2.264218129241D+00
 Symmetry BG   KE= 0.000000000000D+00
 Symmetry AU   KE= 0.000000000000D+00
 Symmetry BU   KE= 2.984992456193D+00
                          Isotropic Fermi Contact Couplings
        Atom                 a.u.       MegaHertz       Gauss      10(-4) cm-1
     1  H(1)              -0.02738     -61.19014     -21.83416     -20.41083
     2  H(1)              -0.34867    -779.26748    -278.06201    -259.93565
     3  H(1)               0.00283       6.31776       2.25433       2.10738
     4  H(1)              -0.01668     -37.28033     -13.30255     -12.43538
     5  H(1)               0.00727      16.24178       5.79547       5.41767
     6  H(1)              -0.00727     -16.24178      -5.79547      -5.41767
     7  H(1)               0.01668      37.28033      13.30255      12.43538
     8  H(1)              -0.00283      -6.31776      -2.25433      -2.10738
     9  H(1)               0.34867     779.26748     278.06201     259.93565
    10  H(1)               0.02738      61.19014      21.83416      20.41083
 --------------------------------------------------------
       Center         ----  Spin Dipole Couplings  ----
                      3XX-RR        3YY-RR        3ZZ-RR
 --------------------------------------------------------
     1   Atom        0.008428     -0.036809      0.028381
     2   Atom       -0.005793      0.015069     -0.009276
     3   Atom       -0.000717     -0.007067      0.007784
     4   Atom       -0.007894     -0.024518      0.032412
     5   Atom       -0.000827      0.003374     -0.002546
     6   Atom        0.000827     -0.003374      0.002546
     7   Atom        0.007894      0.024518     -0.032412
     8   Atom        0.000717      0.007067     -0.007784
     9   Atom        0.005793     -0.015069      0.009276
    10   Atom       -0.008428      0.036809     -0.028381
 --------------------------------------------------------
                        XY            XZ            YZ
 --------------------------------------------------------
     1   Atom       -0.000564      0.000000     -0.000000
     2   Atom       -0.005854      0.000000      0.000000
     3   Atom        0.002179      0.000000     -0.000000
     4   Atom        0.015076      0.000000     -0.000000
     5   Atom       -0.005913      0.000000     -0.000000
     6   Atom        0.005913      0.000000     -0.000000
     7   Atom       -0.015076     -0.000000     -0.000000
     8   Atom       -0.002179      0.000000     -0.000000
     9   Atom        0.005854     -0.000000      0.000000
    10   Atom        0.000564     -0.000000     -0.000000
 --------------------------------------------------------


 ---------------------------------------------------------------------------------
              Anisotropic Spin Dipole Couplings in Principal Axis System
 ---------------------------------------------------------------------------------

       Atom             a.u.   MegaHertz   Gauss  10(-4) cm-1        Axes

              Baa    -0.0368   -19.643    -7.009    -6.552  0.0125  0.9999  0.0000
     1 H(1)   Bbb     0.0084     4.500     1.606     1.501  0.9999 -0.0125  0.0000
              Bcc     0.0284    15.143     5.403     5.051  0.0000  0.0000  1.0000
 
              Baa    -0.0093    -4.949    -1.766    -1.651  0.0000  0.0000  1.0000
     2 H(1)   Bbb    -0.0073    -3.908    -1.394    -1.303  0.9675  0.2529  0.0000
              Bcc     0.0166     8.857     3.160     2.954 -0.2529  0.9675  0.0000
 
              Baa    -0.0077    -4.131    -1.474    -1.378 -0.2962  0.9551  0.0000
     3 H(1)   Bbb    -0.0000    -0.022    -0.008    -0.007  0.9551  0.2962  0.0000
              Bcc     0.0078     4.153     1.482     1.385  0.0000  0.0000  1.0000
 
              Baa    -0.0334   -17.832    -6.363    -5.948 -0.5085  0.8611  0.0000
     4 H(1)   Bbb     0.0010     0.539     0.192     0.180  0.8611  0.5085  0.0000
              Bcc     0.0324    17.293     6.171     5.768  0.0000  0.0000  1.0000
 
              Baa    -0.0050    -2.669    -0.952    -0.890  0.8169  0.5767  0.0000
     5 H(1)   Bbb    -0.0025    -1.359    -0.485    -0.453  0.0000  0.0000  1.0000
              Bcc     0.0075     4.027     1.437     1.343 -0.5767  0.8169  0.0000
 
              Baa    -0.0075    -4.027    -1.437    -1.343 -0.5767  0.8169  0.0000
     6 H(1)   Bbb     0.0025     1.359     0.485     0.453  0.0000  0.0000  1.0000
              Bcc     0.0050     2.669     0.952     0.890  0.8169  0.5767  0.0000
 
              Baa    -0.0324   -17.293    -6.171    -5.768  0.0000  0.0000  1.0000
     7 H(1)   Bbb    -0.0010    -0.539    -0.192    -0.180  0.8611  0.5085  0.0000
              Bcc     0.0334    17.832     6.363     5.948 -0.5085  0.8611  0.0000
 
              Baa    -0.0078    -4.153    -1.482    -1.385  0.0000  0.0000  1.0000
     8 H(1)   Bbb     0.0000     0.022     0.008     0.007  0.9551  0.2962  0.0000
              Bcc     0.0077     4.131     1.474     1.378 -0.2962  0.9551  0.0000
 
              Baa    -0.0166    -8.857    -3.160    -2.954 -0.2529  0.9675  0.0000
     9 H(1)   Bbb     0.0073     3.908     1.394     1.303  0.9675  0.2529  0.0000
              Bcc     0.0093     4.949     1.766     1.651  0.0000  0.0000  1.0000
 
              Baa    -0.0284   -15.143    -5.403    -5.051  0.0000  0.0000  1.0000
    10 H(1)   Bbb    -0.0084    -4.500    -1.606    -1.501  0.9999 -0.0125  0.0000
              Bcc     0.0368    19.643     7.009     6.552  0.0125  0.9999 -0.0000
 

 ---------------------------------------------------------------------------------


 Test job not archived.
 1\1\GINC-SULU\Stability\UHF\Gen\H10\LCJ1\23-Feb-2017\0\\#uhf/gen scf(t
 ight,novaracc,noincfock,fulldiag) stable(crhf) guess=read geom=nocrowd
  test\\hf stability analysis of h10 triangular lattice, y= 0.376577789
 70895234 alpha= 13.800000000000001\\0,1\H\H,1,1.5787210031\H,1,1.57872
 10031,2,152.4\H,2,1.5787210031,1,27.6,3,0.,0\H,3,1.5787210031,1,180.,2
 ,0.,0\H,4,1.5787210031,2,180.,1,0.,0\H,5,1.5787210031,3,180.,2,0.,0\H,
 6,1.5787210031,4,180.,1,0.,0\H,7,1.5787210031,5,180.,2,0.,0\H,8,1.5787
 210031,6,180.,1,0.,0\\Version=ES64L-G09RevE.01\HF=-5.1560232\MP2=-5.20
 45874\PUHF=-5.1561633\PMP2-0=-5.2047275\S2=1.000127\S2-1=0.999929\S2A=
 0.002313\RMSD=1.323e-09\Dipole=0.,0.,0.\Quadrupole=1.7688712,1.5730394
 ,-3.3419105,0.,2.5566529,0.\PG=C02H [SGH(H10)]\\@


 THE DIFFICULTY IN SCIENCE IS OFTEN NOT SO MUCH HOW
 TO MAKE A DISCOVERY BUT RATHER TO KNOW ONE HAS MADE IT.

                                                   -- J. D. BERNAL
 Job cpu time:       0 days  0 hours  0 minutes  1.2 seconds.
 File lengths (MBytes):  RWF=     94 Int=      0 D2E=      0 Chk=      2 Scr=      2
 Normal termination of Gaussian 09 at Thu Feb 23 17:01:23 2017.
