 Entering Gaussian System, Link 0=g09
 AtFile(1): H.gbs
            H     0
            S   10   1.00
               1000.000000000000            0.000068713567
                316.227766000000            0.000169141320
                100.000000000000            0.000823394812
                 31.622776600000            0.003425569236
                 10.000000000000            0.013951996000
                  3.162277660000            0.056909313560
                  1.000000000000            0.198286399900
                  0.316227766000            0.496922426700
                  0.100000000000            0.369846276400
                  0.031622776600            0.003752720039
            ****
 Initial command:
 /projects/guscus/apps/gau/g09-e1/g09/l1.exe "/users/lcj1/gaussian/h10/2rows_uhf/ag2bu3/singlet/follow23/Gau-29974.inp" -scrdir="/users/lcj1/gaussian/h10/2rows_uhf/ag2bu3/singlet/follow23/"
 Entering Link 1 = /projects/guscus/apps/gau/g09-e1/g09/l1.exe PID=     29975.
  
 Copyright (c) 1988,1990,1992,1993,1995,1998,2003,2009,2015,
            Gaussian, Inc.  All Rights Reserved.
  
 This is part of the Gaussian(R) 09 program.  It is based on
 the Gaussian(R) 03 system (copyright 2003, Gaussian, Inc.),
 the Gaussian(R) 98 system (copyright 1998, Gaussian, Inc.),
 the Gaussian(R) 94 system (copyright 1995, Gaussian, Inc.),
 the Gaussian 92(TM) system (copyright 1992, Gaussian, Inc.),
 the Gaussian 90(TM) system (copyright 1990, Gaussian, Inc.),
 the Gaussian 88(TM) system (copyright 1988, Gaussian, Inc.),
 the Gaussian 86(TM) system (copyright 1986, Carnegie Mellon
 University), and the Gaussian 82(TM) system (copyright 1983,
 Carnegie Mellon University). Gaussian is a federally registered
 trademark of Gaussian, Inc.
  
 This software contains proprietary and confidential information,
 including trade secrets, belonging to Gaussian, Inc.
  
 This software is provided under written license and may be
 used, copied, transmitted, or stored only in accord with that
 written license.
  
 The following legend is applicable only to US Government
 contracts under FAR:
  
                    RESTRICTED RIGHTS LEGEND
  
 Use, reproduction and disclosure by the US Government is
 subject to restrictions as set forth in subparagraphs (a)
 and (c) of the Commercial Computer Software - Restricted
 Rights clause in FAR 52.227-19.
  
 Gaussian, Inc.
 340 Quinnipiac St., Bldg. 40, Wallingford CT 06492
  
  
 ---------------------------------------------------------------
 Warning -- This program may not be used in any manner that
 competes with the business of Gaussian, Inc. or will provide
 assistance to any competitor of Gaussian, Inc.  The licensee
 of this program is prohibited from giving any competitor of
 Gaussian, Inc. access to this program.  By using this program,
 the user acknowledges that Gaussian, Inc. is engaged in the
 business of creating and licensing software in the field of
 computational chemistry and represents and warrants to the
 licensee that it is not a competitor of Gaussian, Inc. and that
 it will not use this program in any manner prohibited above.
 ---------------------------------------------------------------
  

 Cite this work as:
 Gaussian 09, Revision E.01,
 M. J. Frisch, G. W. Trucks, H. B. Schlegel, G. E. Scuseria, 
 M. A. Robb, J. R. Cheeseman, G. Scalmani, V. Barone, B. Mennucci, 
 G. A. Petersson, H. Nakatsuji, M. Caricato, X. Li, H. P. Hratchian, 
 A. F. Izmaylov, J. Bloino, G. Zheng, J. L. Sonnenberg, M. Hada, 
 M. Ehara, K. Toyota, R. Fukuda, J. Hasegawa, M. Ishida, T. Nakajima, 
 Y. Honda, O. Kitao, H. Nakai, T. Vreven, J. A. Montgomery, Jr., 
 J. E. Peralta, F. Ogliaro, M. Bearpark, J. J. Heyd, E. Brothers, 
 K. N. Kudin, V. N. Staroverov, T. Keith, R. Kobayashi, J. Normand, 
 K. Raghavachari, A. Rendell, J. C. Burant, S. S. Iyengar, J. Tomasi, 
 M. Cossi, N. Rega, J. M. Millam, M. Klene, J. E. Knox, J. B. Cross, 
 V. Bakken, C. Adamo, J. Jaramillo, R. Gomperts, R. E. Stratmann, 
 O. Yazyev, A. J. Austin, R. Cammi, C. Pomelli, J. W. Ochterski, 
 R. L. Martin, K. Morokuma, V. G. Zakrzewski, G. A. Voth, 
 P. Salvador, J. J. Dannenberg, S. Dapprich, A. D. Daniels, 
 O. Farkas, J. B. Foresman, J. V. Ortiz, J. Cioslowski, 
 and D. J. Fox, Gaussian, Inc., Wallingford CT, 2013.
 
 ******************************************
 Gaussian 09:  ES64L-G09RevE.01 30-Nov-2015
                23-Feb-2017 
 ******************************************
 %chk=h10.chk
 ----------------------------------------------------------------------
 #uhf/gen scf(tight,novaracc,noincfock,fulldiag) stable(crhf) guess=rea
 d geom=nocrowd test
 ----------------------------------------------------------------------
 1/38=1/1;
 2/12=1,17=6,18=5,40=1/2;
 3/5=7,16=1,25=1,30=1,116=2/1,2,3;
 4/5=1/1;
 5/5=100002,16=1,32=2,38=6/2;
 8/6=1,10=90,11=11/1,4;
 9/8=4,13=1/2;
 6/7=2,8=2,9=2,10=2,28=1/1;
 99/5=1,9=1/99;
 ----------------------------------------------------------------------
 hf stability analysis of h10 triangular lattice, y= 0.4253593920508348
 4 alpha= 17.399999999999999
 ----------------------------------------------------------------------
 Symbolic Z-matrix:
 Charge =  0 Multiplicity = 1
 H
 H                    1     1.42241 
 H                    1     1.42241  2     145.2 
 H                    2     1.42241  1     34.8     3     0.       0
 H                    3     1.42241  1     180.     2     0.       0
 H                    4     1.42241  2     180.     1     0.       0
 H                    5     1.42241  3     180.     2     0.       0
 H                    6     1.42241  4     180.     1     0.       0
 H                    7     1.42241  5     180.     2     0.       0
 H                    8     1.42241  6     180.     1     0.       0
 
                          Input orientation:                          
 ---------------------------------------------------------------------
 Center     Atomic      Atomic             Coordinates (Angstroms)
 Number     Number       Type             X           Y           Z
 ---------------------------------------------------------------------
      1          1           0        0.000000    0.000000    0.000000
      2          1           0        0.000000    0.000000    1.422413
      3          1           0        0.811790    0.000000   -1.168013
      4          1           0        0.811790    0.000000    0.254400
      5          1           0        1.623580    0.000000   -2.336026
      6          1           0        1.623580    0.000000   -0.913613
      7          1           0        2.435370    0.000000   -3.504039
      8          1           0        2.435370    0.000000   -2.081626
      9          1           0        3.247161    0.000000   -4.672052
     10          1           0        3.247161    0.000000   -3.249639
 ---------------------------------------------------------------------
                    Distance matrix (angstroms):
                    1          2          3          4          5
     1  H    0.000000
     2  H    1.422413   0.000000
     3  H    1.422413   2.714647   0.000000
     4  H    0.850719   1.422413   1.422413   0.000000
     5  H    2.844825   4.094127   1.422413   2.714647   0.000000
     6  H    1.862982   2.844825   0.850719   1.422413   1.422413
     7  H    4.267238   5.495539   2.844825   4.094127   1.422413
     8  H    3.203779   4.267238   1.862982   2.844825   0.850719
     9  H    5.689650   6.905545   4.267238   5.495539   2.844825
    10  H    4.593932   5.689650   3.203779   4.267238   1.862982
                    6          7          8          9         10
     6  H    0.000000
     7  H    2.714647   0.000000
     8  H    1.422413   1.422413   0.000000
     9  H    4.094127   1.422413   2.714647   0.000000
    10  H    2.844825   0.850719   1.422413   1.422413   0.000000
 Stoichiometry    H10
 Framework group  C2H[SGH(H10)]
 Deg. of freedom     9
 Full point group                 C2H     NOp   4
 Largest Abelian subgroup         C2H     NOp   4
 Largest concise Abelian subgroup C2      NOp   2
                         Standard orientation:                         
 ---------------------------------------------------------------------
 Center     Atomic      Atomic             Coordinates (Angstroms)
 Number     Number       Type             X           Y           Z
 ---------------------------------------------------------------------
      1          1           0        1.623580   -1.624820   -0.000000
      2          1           0        1.623580   -3.047232   -0.000000
      3          1           0        0.811790   -0.456807   -0.000000
      4          1           0        0.811790   -1.879219   -0.000000
      5          1           0        0.000000    0.711206    0.000000
      6          1           0       -0.000000   -0.711206   -0.000000
      7          1           0       -0.811790    1.879219   -0.000000
      8          1           0       -0.811790    0.456807   -0.000000
      9          1           0       -1.623580    3.047232   -0.000000
     10          1           0       -1.623580    1.624820   -0.000000
 ---------------------------------------------------------------------
 Rotational constants (GHZ):    331.0238124     11.3945230     11.0153519
 General basis read from cards:  (5D, 7F)
 There are     5 symmetry adapted cartesian basis functions of AG  symmetry.
 There are     0 symmetry adapted cartesian basis functions of BG  symmetry.
 There are     0 symmetry adapted cartesian basis functions of AU  symmetry.
 There are     5 symmetry adapted cartesian basis functions of BU  symmetry.
 There are     5 symmetry adapted basis functions of AG  symmetry.
 There are     0 symmetry adapted basis functions of BG  symmetry.
 There are     0 symmetry adapted basis functions of AU  symmetry.
 There are     5 symmetry adapted basis functions of BU  symmetry.
    10 basis functions,   100 primitive gaussians,    10 cartesian basis functions
     5 alpha electrons        5 beta electrons
       nuclear repulsion energy        11.8570311320 Hartrees.
 NAtoms=   10 NActive=   10 NUniq=    5 SFac= 4.00D+00 NAtFMM=   60 NAOKFM=F Big=F
 Integral buffers will be    131072 words long.
 Regular integral format.
 Two-electron integral symmetry is turned on.
 One-electron integrals computed using PRISM.
 NBasis=    10 RedAO= T EigKep=  1.80D-01  NBF=     5     0     0     5
 NBsUse=    10 1.00D-06 EigRej= -1.00D+00 NBFU=     5     0     0     5
 Initial guess from the checkpoint file:  "h10.chk"
 B after Tr=    -0.000000    0.000000   -0.000000
         Rot=    0.999995    0.000000    0.000000    0.003103 Ang=   0.36 deg.
 Initial guess orbital symmetries:
 Alpha Orbitals:
       Occupied  (BG) (BG) (BG) (BG) (BG)
       Virtual   (BG) (BG) (BG) (BG) (BG)
 Beta  Orbitals:
       Occupied  (BG) (BG) (BG) (BG) (BG)
       Virtual   (BG) (BG) (BG) (BG) (BG)
 Initial guess <Sx>= 0.0000 <Sy>= 0.0000 <Sz>= 0.0000 <S**2>= 1.0317 S= 0.6321
 Keep R1 and R2 ints in memory in symmetry-blocked form, NReq=875841.
 Requested convergence on RMS density matrix=1.00D-08 within 128 cycles.
 Requested convergence on MAX density matrix=1.00D-06.
 Requested convergence on             energy=1.00D-06.
 No special actions if energy rises.
 An orbital has undefined symmetry, so N**3 symmetry is turned off.
 Density matrix breaks symmetry, PCut= 1.00D-04
 Density matrix has no symmetry -- integrals replicated.
 Density matrix breaks symmetry, PCut= 1.00D-07
 Density matrix has no symmetry -- integrals replicated.
 Density matrix breaks symmetry, PCut= 1.00D-07
 Density matrix has no symmetry -- integrals replicated.
 Density matrix breaks symmetry, PCut= 1.00D-07
 Density matrix has no symmetry -- integrals replicated.
 Density matrix breaks symmetry, PCut= 1.00D-07
 Density matrix has no symmetry -- integrals replicated.
 Density matrix breaks symmetry, PCut= 1.00D-07
 Density matrix has no symmetry -- integrals replicated.
 Density matrix breaks symmetry, PCut= 1.00D-07
 Density matrix has no symmetry -- integrals replicated.
 Density matrix breaks symmetry, PCut= 1.00D-07
 Density matrix has no symmetry -- integrals replicated.
 Density matrix breaks symmetry, PCut= 1.00D-07
 Density matrix has no symmetry -- integrals replicated.
 Density matrix breaks symmetry, PCut= 1.00D-07
 Density matrix has no symmetry -- integrals replicated.
 Density matrix breaks symmetry, PCut= 1.00D-07
 Density matrix has no symmetry -- integrals replicated.
 Density matrix breaks symmetry, PCut= 1.00D-07
 Density matrix has no symmetry -- integrals replicated.
 Density matrix breaks symmetry, PCut= 1.00D-07
 Density matrix has no symmetry -- integrals replicated.
 SCF Done:  E(UHF) =  -4.99523516603     A.U. after   12 cycles
            NFock= 12  Conv=0.30D-08     -V/T= 1.9076
 <Sx>= 0.0000 <Sy>= 0.0000 <Sz>= 0.0000 <S**2>= 1.0244 S= 0.6289
 <L.S>= 0.000000000000E+00
 Annihilation of the first spin contaminant:
 S**2 before annihilation     1.0244,   after     0.2135
 Range of M.O.s used for correlation:     1    10
 NBasis=    10 NAE=     5 NBE=     5 NFC=     0 NFV=     0
 NROrb=     10 NOA=     5 NOB=     5 NVA=     5 NVB=     5
 Semi-Direct transformation.
 ModeAB=           2 MOrb=             5 LenV=     134110805
 LASXX=         1030 LTotXX=        1030 LenRXX=        1030
 LTotAB=        1825 MaxLAS=        2750 LenRXY=        2750
 NonZer=        2750 LenScr=      655360 LnRSAI=           0
 LnScr1=           0 LExtra=           0 Total=       659140
 MaxDsk=          -1 SrtSym=           F ITran=            3
 JobTyp=1 Pass  1:  I=   1 to   5.
 (rs|ai) integrals will be sorted in core.
 ModeAB=           2 MOrb=             5 LenV=     134110805
 LASXX=         1030 LTotXX=        1030 LenRXX=        2750
 LTotAB=         225 MaxLAS=        2750 LenRXY=         225
 NonZer=        2750 LenScr=      655360 LnRSAI=           0
 LnScr1=           0 LExtra=           0 Total=       658335
 MaxDsk=          -1 SrtSym=           F ITran=            3
 JobTyp=2 Pass  1:  I=   1 to   5.
 (rs|ai) integrals will be sorted in core.
 SymMOI:  orbitals are not symmetric.
 Spin components of T(2) and E(2):
     alpha-alpha T2 =       0.6692690958D-03 E2=     -0.1246507313D-02
     alpha-beta  T2 =       0.3026452676D-01 E2=     -0.5519491373D-01
     beta-beta   T2 =       0.6692690958D-03 E2=     -0.1246507313D-02
 ANorm=    0.1015678623D+01
 E2 =    -0.5768792836D-01 EUMP2 =    -0.50529230943902D+01
 (S**2,0)=  0.10244D+01           (S**2,1)=  0.10146D+01
 E(PUHF)=      -0.50024517166D+01        E(PMP2)=      -0.50601083931D+01
 Second order stability test of a single determinant UHF wave function:
 Stabil:  MDV=134217728
 ***********************************************************************
 Matrix         Lowest Root    Major Pairs
 ***********************************************************************
 Internal UHF     0.022122     Stable
 RUHF --> CUHF (A)0.1562164    Stable
 RUHF --> CUHF (B)0.1562164    Stable



 RUHF --> GHF    -0.0047669    5A=7B 5B=7A 5A=6B 5B=6A 4A=7B 4B=7A 3A=8B 3B=8A 3A
 =7B 3B=7A 4B=6A 4A=6B 2B=9A 2A=9B 1A=10B 1B=10A 5A=8B 5B=8A 2A=7B 2B=7A
 Not stable.
 ***********************************************************************

 **********************************************************************

            Population analysis using the SCF density.

 **********************************************************************

 Orbital symmetries:
 Alpha Orbitals:
       Occupied  (BG) (BG) (BG) (BG) (BG)
       Virtual   (BG) (BG) (BG) (BG) (BG)
 Beta  Orbitals:
       Occupied  (BG) (BG) (BG) (BG) (BG)
       Virtual   (BG) (BG) (BG) (BG) (BG)
 Unable to determine electronic state:  partially filled degenerate orbitals.
 Alpha  occ. eigenvalues --   -0.77879  -0.70711  -0.59063  -0.44356  -0.31652
 Alpha virt. eigenvalues --    0.13639   0.22664   0.25989   0.43756   0.61568
  Beta  occ. eigenvalues --   -0.77879  -0.70711  -0.59063  -0.44356  -0.31652
  Beta virt. eigenvalues --    0.13639   0.22664   0.25989   0.43756   0.61568
          Condensed to atoms (all electrons):
               1          2          3          4          5          6
     1  H    0.907862  -0.144547  -0.156833   0.530204   0.009312  -0.132316
     2  H   -0.144547   1.289484  -0.006329  -0.077050   0.000515   0.006329
     3  H   -0.156833  -0.006329   0.895699  -0.090681  -0.172675   0.617252
     4  H    0.530204  -0.077050  -0.090681   0.696387   0.001374  -0.134364
     5  H    0.009312   0.000515  -0.172675   0.001374   0.940404  -0.134371
     6  H   -0.132316   0.006329   0.617252  -0.134364  -0.134371   0.940404
     7  H   -0.000058  -0.000024   0.005064   0.000306  -0.134364   0.001374
     8  H    0.008778   0.000094  -0.123492   0.005064   0.617252  -0.172675
     9  H   -0.000021   0.000003   0.000094  -0.000024   0.006329   0.000515
    10  H   -0.000327  -0.000021   0.008778  -0.000058  -0.132316   0.009312
               7          8          9         10
     1  H   -0.000058   0.008778  -0.000021  -0.000327
     2  H   -0.000024   0.000094   0.000003  -0.000021
     3  H    0.005064  -0.123492   0.000094   0.008778
     4  H    0.000306   0.005064  -0.000024  -0.000058
     5  H   -0.134364   0.617252   0.006329  -0.132316
     6  H    0.001374  -0.172675   0.000515   0.009312
     7  H    0.696387  -0.090681  -0.077050   0.530204
     8  H   -0.090681   0.895699  -0.006329  -0.156833
     9  H   -0.077050  -0.006329   1.289484  -0.144547
    10  H    0.530204  -0.156833  -0.144547   0.907862
          Atomic-Atomic Spin Densities.
               1          2          3          4          5          6
     1  H   -0.321646   0.206680   0.008421  -0.081753  -0.001360   0.042276
     2  H    0.206680  -1.239324  -0.009886   0.138632   0.000712  -0.018277
     3  H    0.008421  -0.009886   0.137385  -0.017327  -0.027811  -0.003881
     4  H   -0.081753   0.138632  -0.017327   0.036499   0.000312   0.018379
     5  H   -0.001360   0.000712  -0.027811   0.000312   0.173996   0.000000
     6  H    0.042276  -0.018277  -0.003881   0.018379   0.000000  -0.173996
     7  H    0.000029  -0.000007   0.000412   0.000000  -0.018379  -0.000312
     8  H   -0.002751   0.000769  -0.000000  -0.000412   0.003881   0.027811
     9  H    0.000032  -0.000000  -0.000769   0.000007   0.018277  -0.000712
    10  H   -0.000000  -0.000032   0.002751  -0.000029  -0.042276   0.001360
               7          8          9         10
     1  H    0.000029  -0.002751   0.000032  -0.000000
     2  H   -0.000007   0.000769  -0.000000  -0.000032
     3  H    0.000412  -0.000000  -0.000769   0.002751
     4  H    0.000000  -0.000412   0.000007  -0.000029
     5  H   -0.018379   0.003881   0.018277  -0.042276
     6  H   -0.000312   0.027811  -0.000712   0.001360
     7  H   -0.036499   0.017327  -0.138632   0.081753
     8  H    0.017327  -0.137385   0.009886  -0.008421
     9  H   -0.138632   0.009886   1.239324  -0.206680
    10  H    0.081753  -0.008421  -0.206680   0.321646
 Mulliken charges and spin densities:
               1          2
     1  H   -0.022053  -0.150072
     2  H   -0.068455  -0.920733
     3  H    0.023124   0.089293
     4  H    0.068843   0.094308
     5  H   -0.001459   0.107351
     6  H   -0.001459  -0.107351
     7  H    0.068843  -0.094308
     8  H    0.023124  -0.089293
     9  H   -0.068455   0.920733
    10  H   -0.022053   0.150072
 Sum of Mulliken charges =  -0.00000   0.00000
 Mulliken charges and spin densities with hydrogens summed into heavy atoms:
               1          2
 Electronic spatial extent (au):  <R**2>=            198.9131
 Charge=             -0.0000 electrons
 Dipole moment (field-independent basis, Debye):
    X=              0.0000    Y=             -0.0000    Z=              0.0000  Tot=              0.0000
 Quadrupole moment (field-independent basis, Debye-Ang):
   XX=            -14.3450   YY=            -21.9295   ZZ=            -12.6127
   XY=              6.2534   XZ=             -0.0000   YZ=              0.0000
 Traceless Quadrupole moment (field-independent basis, Debye-Ang):
   XX=              1.9507   YY=             -5.6338   ZZ=              3.6831
   XY=              6.2534   XZ=             -0.0000   YZ=              0.0000
 Octapole moment (field-independent basis, Debye-Ang**2):
  XXX=              0.0000  YYY=             -0.0000  ZZZ=              0.0000  XYY=              0.0000
  XXY=             -0.0000  XXZ=              0.0000  XZZ=              0.0000  YZZ=             -0.0000
  YYZ=              0.0000  XYZ=             -0.0000
 Hexadecapole moment (field-independent basis, Debye-Ang**3):
 XXXX=           -122.6201 YYYY=           -402.6501 ZZZZ=            -15.0297 XXXY=             93.8090
 XXXZ=             -0.0000 YYYX=            145.8460 YYYZ=              0.0000 ZZZX=             -0.0000
 ZZZY=              0.0000 XXYY=           -101.2513 XXZZ=            -22.3592 YYZZ=            -49.4065
 XXYZ=              0.0000 YYXZ=             -0.0000 ZZXY=             26.2112
 N-N= 1.185703113195D+01 E-N=-3.353514168295D+01  KE= 5.503827972174D+00
 Symmetry AG   KE= 2.358438327911D+00
 Symmetry BG   KE= 0.000000000000D+00
 Symmetry AU   KE= 0.000000000000D+00
 Symmetry BU   KE= 3.145389644263D+00
                          Isotropic Fermi Contact Couplings
        Atom                 a.u.       MegaHertz       Gauss      10(-4) cm-1
     1  H(1)              -0.08933    -199.65216     -71.24085     -66.59679
     2  H(1)              -0.35321    -789.39224    -281.67477    -263.31291
     3  H(1)               0.03725      83.25623      29.70789      27.77129
     4  H(1)               0.00976      21.80596       7.78091       7.27368
     5  H(1)               0.04717     105.41574      37.61496      35.16291
     6  H(1)              -0.04717    -105.41574     -37.61496     -35.16291
     7  H(1)              -0.00976     -21.80596      -7.78091      -7.27368
     8  H(1)              -0.03725     -83.25623     -29.70789     -27.77129
     9  H(1)               0.35321     789.39224     281.67477     263.31291
    10  H(1)               0.08933     199.65216      71.24085      66.59679
 --------------------------------------------------------
       Center         ----  Spin Dipole Couplings  ----
                      3XX-RR        3YY-RR        3ZZ-RR
 --------------------------------------------------------
     1   Atom        0.019895     -0.037955      0.018060
     2   Atom       -0.002529      0.015776     -0.013246
     3   Atom       -0.023773      0.000750      0.023024
     4   Atom       -0.042683     -0.009431      0.052114
     5   Atom       -0.008124     -0.000877      0.009001
     6   Atom        0.008124      0.000877     -0.009001
     7   Atom        0.042683      0.009431     -0.052114
     8   Atom        0.023773     -0.000750     -0.023024
     9   Atom        0.002529     -0.015776      0.013246
    10   Atom       -0.019895      0.037955     -0.018060
 --------------------------------------------------------
                        XY            XZ            YZ
 --------------------------------------------------------
     1   Atom        0.003391     -0.000000     -0.000000
     2   Atom       -0.013794     -0.000000      0.000000
     3   Atom        0.002080      0.000000      0.000000
     4   Atom        0.008294      0.000000      0.000000
     5   Atom       -0.016715     -0.000000     -0.000000
     6   Atom        0.016715     -0.000000      0.000000
     7   Atom       -0.008294      0.000000     -0.000000
     8   Atom       -0.002080      0.000000     -0.000000
     9   Atom        0.013794     -0.000000      0.000000
    10   Atom       -0.003391      0.000000      0.000000
 --------------------------------------------------------


 ---------------------------------------------------------------------------------
              Anisotropic Spin Dipole Couplings in Principal Axis System
 ---------------------------------------------------------------------------------

       Atom             a.u.   MegaHertz   Gauss  10(-4) cm-1        Axes

              Baa    -0.0382   -20.357    -7.264    -6.790 -0.0583  0.9983 -0.0000
     1 H(1)   Bbb     0.0181     9.636     3.438     3.214  0.0000  0.0000  1.0000
              Bcc     0.0201    10.721     3.825     3.576  0.9983  0.0583  0.0000
 
              Baa    -0.0132    -7.068    -2.522    -2.358  0.0000  0.0000  1.0000
     2 H(1)   Bbb    -0.0099    -5.299    -1.891    -1.768  0.8812  0.4728  0.0000
              Bcc     0.0232    12.367     4.413     4.125 -0.4728  0.8812  0.0000
 
              Baa    -0.0239   -12.778    -4.559    -4.262  0.9965 -0.0839  0.0000
     3 H(1)   Bbb     0.0009     0.493     0.176     0.165  0.0839  0.9965 -0.0000
              Bcc     0.0230    12.284     4.383     4.098  0.0000  0.0000  1.0000
 
              Baa    -0.0446   -23.816    -8.498    -7.944  0.9734 -0.2293  0.0000
     4 H(1)   Bbb    -0.0075    -3.989    -1.424    -1.331  0.2293  0.9734 -0.0000
              Bcc     0.0521    27.806     9.922     9.275  0.0000  0.0000  1.0000
 
              Baa    -0.0216   -11.526    -4.113    -3.845  0.7784  0.6278  0.0000
     5 H(1)   Bbb     0.0090     4.802     1.714     1.602  0.0000  0.0000  1.0000
              Bcc     0.0126     6.724     2.399     2.243 -0.6278  0.7784 -0.0000
 
              Baa    -0.0126    -6.724    -2.399    -2.243 -0.6278  0.7784  0.0000
     6 H(1)   Bbb    -0.0090    -4.802    -1.714    -1.602  0.0000  0.0000  1.0000
              Bcc     0.0216    11.526     4.113     3.845  0.7784  0.6278  0.0000
 
              Baa    -0.0521   -27.806    -9.922    -9.275  0.0000  0.0000  1.0000
     7 H(1)   Bbb     0.0075     3.989     1.424     1.331  0.2293  0.9734  0.0000
              Bcc     0.0446    23.816     8.498     7.944  0.9734 -0.2293  0.0000
 
              Baa    -0.0230   -12.284    -4.383    -4.098  0.0000  0.0000  1.0000
     8 H(1)   Bbb    -0.0009    -0.493    -0.176    -0.165  0.0839  0.9965  0.0000
              Bcc     0.0239    12.778     4.559     4.262  0.9965 -0.0839  0.0000
 
              Baa    -0.0232   -12.367    -4.413    -4.125 -0.4728  0.8812  0.0000
     9 H(1)   Bbb     0.0099     5.299     1.891     1.768  0.8812  0.4728  0.0000
              Bcc     0.0132     7.068     2.522     2.358  0.0000  0.0000  1.0000
 
              Baa    -0.0201   -10.721    -3.825    -3.576  0.9983  0.0583  0.0000
    10 H(1)   Bbb    -0.0181    -9.636    -3.438    -3.214  0.0000  0.0000  1.0000
              Bcc     0.0382    20.357     7.264     6.790 -0.0583  0.9983 -0.0000
 

 ---------------------------------------------------------------------------------


 Test job not archived.
 1\1\GINC-SULU\Stability\UHF\Gen\H10\LCJ1\23-Feb-2017\0\\#uhf/gen scf(t
 ight,novaracc,noincfock,fulldiag) stable(crhf) guess=read geom=nocrowd
  test\\hf stability analysis of h10 triangular lattice, y= 0.425359392
 05083484 alpha= 17.399999999999999\\0,1\H\H,1,1.4224125658\H,1,1.42241
 25658,2,145.2\H,2,1.4224125658,1,34.8,3,0.,0\H,3,1.4224125658,1,180.,2
 ,0.,0\H,4,1.4224125658,2,180.,1,0.,0\H,5,1.4224125658,3,180.,2,0.,0\H,
 6,1.4224125658,4,180.,1,0.,0\H,7,1.4224125658,5,180.,2,0.,0\H,8,1.4224
 125658,6,180.,1,0.,0\\Version=ES64L-G09RevE.01\HF=-4.9952352\MP2=-5.05
 29231\PUHF=-5.0024517\PMP2-0=-5.0601084\S2=1.024424\S2-1=1.014593\S2A=
 0.21354\RMSD=2.988e-09\Dipole=0.,0.,0.\Quadrupole=1.4503091,2.7382648,
 -4.1885739,0.,4.6492659,0.\PG=C02H [SGH(H10)]\\@


 MICHAEL FARADAY, ASKED BY A POLITICIAN WHAT GOOD
 HIS ELECTRICAL DISCOVERIES WERE, REPLIED 
 "AT PRESENT I DO NOT KNOW, BUT ONE DAY YOU WILL BE
 ABLE TO TAX THEM."
 Job cpu time:       0 days  0 hours  0 minutes  1.2 seconds.
 File lengths (MBytes):  RWF=     94 Int=      0 D2E=      0 Chk=      2 Scr=      2
 Normal termination of Gaussian 09 at Thu Feb 23 17:00:34 2017.
