 Entering Gaussian System, Link 0=g09
 AtFile(1): H.gbs
            H     0
            S   10   1.00
               1000.000000000000            0.000068713567
                316.227766000000            0.000169141320
                100.000000000000            0.000823394812
                 31.622776600000            0.003425569236
                 10.000000000000            0.013951996000
                  3.162277660000            0.056909313560
                  1.000000000000            0.198286399900
                  0.316227766000            0.496922426700
                  0.100000000000            0.369846276400
                  0.031622776600            0.003752720039
            ****
 Initial command:
 /projects/guscus/apps/gau/g09-e1/g09/l1.exe "/users/lcj1/gaussian/h10/2rows_uhf/ag2bu3/singlet/follow23/Gau-31536.inp" -scrdir="/users/lcj1/gaussian/h10/2rows_uhf/ag2bu3/singlet/follow23/"
 Entering Link 1 = /projects/guscus/apps/gau/g09-e1/g09/l1.exe PID=     31537.
  
 Copyright (c) 1988,1990,1992,1993,1995,1998,2003,2009,2015,
            Gaussian, Inc.  All Rights Reserved.
  
 This is part of the Gaussian(R) 09 program.  It is based on
 the Gaussian(R) 03 system (copyright 2003, Gaussian, Inc.),
 the Gaussian(R) 98 system (copyright 1998, Gaussian, Inc.),
 the Gaussian(R) 94 system (copyright 1995, Gaussian, Inc.),
 the Gaussian 92(TM) system (copyright 1992, Gaussian, Inc.),
 the Gaussian 90(TM) system (copyright 1990, Gaussian, Inc.),
 the Gaussian 88(TM) system (copyright 1988, Gaussian, Inc.),
 the Gaussian 86(TM) system (copyright 1986, Carnegie Mellon
 University), and the Gaussian 82(TM) system (copyright 1983,
 Carnegie Mellon University). Gaussian is a federally registered
 trademark of Gaussian, Inc.
  
 This software contains proprietary and confidential information,
 including trade secrets, belonging to Gaussian, Inc.
  
 This software is provided under written license and may be
 used, copied, transmitted, or stored only in accord with that
 written license.
  
 The following legend is applicable only to US Government
 contracts under FAR:
  
                    RESTRICTED RIGHTS LEGEND
  
 Use, reproduction and disclosure by the US Government is
 subject to restrictions as set forth in subparagraphs (a)
 and (c) of the Commercial Computer Software - Restricted
 Rights clause in FAR 52.227-19.
  
 Gaussian, Inc.
 340 Quinnipiac St., Bldg. 40, Wallingford CT 06492
  
  
 ---------------------------------------------------------------
 Warning -- This program may not be used in any manner that
 competes with the business of Gaussian, Inc. or will provide
 assistance to any competitor of Gaussian, Inc.  The licensee
 of this program is prohibited from giving any competitor of
 Gaussian, Inc. access to this program.  By using this program,
 the user acknowledges that Gaussian, Inc. is engaged in the
 business of creating and licensing software in the field of
 computational chemistry and represents and warrants to the
 licensee that it is not a competitor of Gaussian, Inc. and that
 it will not use this program in any manner prohibited above.
 ---------------------------------------------------------------
  

 Cite this work as:
 Gaussian 09, Revision E.01,
 M. J. Frisch, G. W. Trucks, H. B. Schlegel, G. E. Scuseria, 
 M. A. Robb, J. R. Cheeseman, G. Scalmani, V. Barone, B. Mennucci, 
 G. A. Petersson, H. Nakatsuji, M. Caricato, X. Li, H. P. Hratchian, 
 A. F. Izmaylov, J. Bloino, G. Zheng, J. L. Sonnenberg, M. Hada, 
 M. Ehara, K. Toyota, R. Fukuda, J. Hasegawa, M. Ishida, T. Nakajima, 
 Y. Honda, O. Kitao, H. Nakai, T. Vreven, J. A. Montgomery, Jr., 
 J. E. Peralta, F. Ogliaro, M. Bearpark, J. J. Heyd, E. Brothers, 
 K. N. Kudin, V. N. Staroverov, T. Keith, R. Kobayashi, J. Normand, 
 K. Raghavachari, A. Rendell, J. C. Burant, S. S. Iyengar, J. Tomasi, 
 M. Cossi, N. Rega, J. M. Millam, M. Klene, J. E. Knox, J. B. Cross, 
 V. Bakken, C. Adamo, J. Jaramillo, R. Gomperts, R. E. Stratmann, 
 O. Yazyev, A. J. Austin, R. Cammi, C. Pomelli, J. W. Ochterski, 
 R. L. Martin, K. Morokuma, V. G. Zakrzewski, G. A. Voth, 
 P. Salvador, J. J. Dannenberg, S. Dapprich, A. D. Daniels, 
 O. Farkas, J. B. Foresman, J. V. Ortiz, J. Cioslowski, 
 and D. J. Fox, Gaussian, Inc., Wallingford CT, 2013.
 
 ******************************************
 Gaussian 09:  ES64L-G09RevE.01 30-Nov-2015
                23-Feb-2017 
 ******************************************
 %chk=h10.chk
 ----------------------------------------------------------------------
 #uhf/gen scf(tight,novaracc,noincfock,fulldiag) stable(crhf) guess=rea
 d geom=nocrowd test
 ----------------------------------------------------------------------
 1/38=1/1;
 2/12=1,17=6,18=5,40=1/2;
 3/5=7,16=1,25=1,30=1,116=2/1,2,3;
 4/5=1/1;
 5/5=100002,16=1,32=2,38=6/2;
 8/6=1,10=90,11=11/1,4;
 9/8=4,13=1/2;
 6/7=2,8=2,9=2,10=2,28=1/1;
 99/5=1,9=1/99;
 ----------------------------------------------------------------------
 hf stability analysis of h10 triangular lattice, y= 0.3472963558201168
 6 alpha= 11.800000000000001
 ----------------------------------------------------------------------
 Symbolic Z-matrix:
 Charge =  0 Multiplicity = 1
 H
 H                    1     1.6983 
 H                    1     1.6983   2     156.4 
 H                    2     1.6983   1     23.6     3     0.       0
 H                    3     1.6983   1     180.     2     0.       0
 H                    4     1.6983   2     180.     1     0.       0
 H                    5     1.6983   3     180.     2     0.       0
 H                    6     1.6983   4     180.     1     0.       0
 H                    7     1.6983   5     180.     2     0.       0
 H                    8     1.6983   6     180.     1     0.       0
 
                          Input orientation:                          
 ---------------------------------------------------------------------
 Center     Atomic      Atomic             Coordinates (Angstroms)
 Number     Number       Type             X           Y           Z
 ---------------------------------------------------------------------
      1          1           0        0.000000    0.000000    0.000000
      2          1           0        0.000000    0.000000    1.698303
      3          1           0        0.679914    0.000000   -1.556262
      4          1           0        0.679914    0.000000    0.142041
      5          1           0        1.359828    0.000000   -3.112524
      6          1           0        1.359828    0.000000   -1.414221
      7          1           0        2.039742    0.000000   -4.668786
      8          1           0        2.039742    0.000000   -2.970482
      9          1           0        2.719657    0.000000   -6.225048
     10          1           0        2.719657    0.000000   -4.526744
 ---------------------------------------------------------------------
                    Distance matrix (angstroms):
                    1          2          3          4          5
     1  H    0.000000
     2  H    1.698303   0.000000
     3  H    1.698303   3.324828   0.000000
     4  H    0.694593   1.698303   1.698303   0.000000
     5  H    3.396607   4.999319   1.698303   3.324828   0.000000
     6  H    1.961926   3.396607   0.694593   1.698303   1.698303
     7  H    5.094910   6.685834   3.396607   4.999319   1.698303
     8  H    3.603376   5.094910   1.961926   3.396607   0.694593
     9  H    6.793214   8.377113   5.094910   6.685834   3.396607
    10  H    5.280904   6.793214   3.603376   5.094910   1.961926
                    6          7          8          9         10
     6  H    0.000000
     7  H    3.324828   0.000000
     8  H    1.698303   1.698303   0.000000
     9  H    4.999319   1.698303   3.324828   0.000000
    10  H    3.396607   0.694593   1.698303   1.698303   0.000000
 Stoichiometry    H10
 Framework group  C2H[SGH(H10)]
 Deg. of freedom     9
 Full point group                 C2H     NOp   4
 Largest Abelian subgroup         C2H     NOp   4
 Largest concise Abelian subgroup C2      NOp   2
                         Standard orientation:                         
 ---------------------------------------------------------------------
 Center     Atomic      Atomic             Coordinates (Angstroms)
 Number     Number       Type             X           Y           Z
 ---------------------------------------------------------------------
      1          1           0        1.359828   -2.263372    0.000000
      2          1           0        1.359828   -3.961676    0.000000
      3          1           0        0.679914   -0.707110    0.000000
      4          1           0        0.679914   -2.405414    0.000000
      5          1           0        0.000000    0.849152   -0.000000
      6          1           0       -0.000000   -0.849152   -0.000000
      7          1           0       -0.679914    2.405414    0.000000
      8          1           0       -0.679914    0.707110    0.000000
      9          1           0       -1.359828    3.961676    0.000000
     10          1           0       -1.359828    2.263372    0.000000
 ---------------------------------------------------------------------
 Rotational constants (GHZ):    480.2775440      7.8534974      7.7271432
 General basis read from cards:  (5D, 7F)
 There are     5 symmetry adapted cartesian basis functions of AG  symmetry.
 There are     0 symmetry adapted cartesian basis functions of BG  symmetry.
 There are     0 symmetry adapted cartesian basis functions of AU  symmetry.
 There are     5 symmetry adapted cartesian basis functions of BU  symmetry.
 There are     5 symmetry adapted basis functions of AG  symmetry.
 There are     0 symmetry adapted basis functions of BG  symmetry.
 There are     0 symmetry adapted basis functions of AU  symmetry.
 There are     5 symmetry adapted basis functions of BU  symmetry.
    10 basis functions,   100 primitive gaussians,    10 cartesian basis functions
     5 alpha electrons        5 beta electrons
       nuclear repulsion energy        10.9828703407 Hartrees.
 NAtoms=   10 NActive=   10 NUniq=    5 SFac= 4.00D+00 NAtFMM=   60 NAOKFM=F Big=F
 Integral buffers will be    131072 words long.
 Regular integral format.
 Two-electron integral symmetry is turned on.
 One-electron integrals computed using PRISM.
 NBasis=    10 RedAO= T EigKep=  1.59D-01  NBF=     5     0     0     5
 NBsUse=    10 1.00D-06 EigRej= -1.00D+00 NBFU=     5     0     0     5
 Initial guess from the checkpoint file:  "h10.chk"
 B after Tr=     0.000000   -0.000000    0.000000
         Rot=    0.999995   -0.000000    0.000000    0.003103 Ang=   0.36 deg.
 Initial guess orbital symmetries:
 Alpha Orbitals:
       Occupied  (BG) (BG) (BG) (BG) (BG)
       Virtual   (BG) (BG) (BG) (BG) (BG)
 Beta  Orbitals:
       Occupied  (BG) (BG) (BG) (BG) (BG)
       Virtual   (BG) (BG) (BG) (BG) (BG)
 Initial guess <Sx>= 0.0000 <Sy>= 0.0000 <Sz>= 0.0000 <S**2>= 1.0000 S= 0.6180
 Keep R1 and R2 ints in memory in symmetry-blocked form, NReq=874063.
 Requested convergence on RMS density matrix=1.00D-08 within 128 cycles.
 Requested convergence on MAX density matrix=1.00D-06.
 Requested convergence on             energy=1.00D-06.
 No special actions if energy rises.
 An orbital has undefined symmetry, so N**3 symmetry is turned off.
 Density matrix breaks symmetry, PCut= 1.00D-04
 Density matrix has no symmetry -- integrals replicated.
 Density matrix breaks symmetry, PCut= 1.00D-07
 Density matrix has no symmetry -- integrals replicated.
 Density matrix breaks symmetry, PCut= 1.00D-07
 Density matrix has no symmetry -- integrals replicated.
 Density matrix breaks symmetry, PCut= 1.00D-07
 Density matrix has no symmetry -- integrals replicated.
 Density matrix breaks symmetry, PCut= 1.00D-07
 Density matrix has no symmetry -- integrals replicated.
 Density matrix breaks symmetry, PCut= 1.00D-07
 Density matrix has no symmetry -- integrals replicated.
 Density matrix breaks symmetry, PCut= 1.00D-07
 Density matrix has no symmetry -- integrals replicated.
 Density matrix breaks symmetry, PCut= 1.00D-07
 Density matrix has no symmetry -- integrals replicated.
 Density matrix breaks symmetry, PCut= 1.00D-07
 Density matrix has no symmetry -- integrals replicated.
 SCF Done:  E(UHF) =  -5.19711346815     A.U. after    8 cycles
            NFock=  8  Conv=0.90D-08     -V/T= 2.0215
 <Sx>= 0.0000 <Sy>= 0.0000 <Sz>= 0.0000 <S**2>= 1.0000 S= 0.6180
 <L.S>= 0.000000000000E+00
 Annihilation of the first spin contaminant:
 S**2 before annihilation     1.0000,   after     0.0002
 Range of M.O.s used for correlation:     1    10
 NBasis=    10 NAE=     5 NBE=     5 NFC=     0 NFV=     0
 NROrb=     10 NOA=     5 NOB=     5 NVA=     5 NVB=     5
 Semi-Direct transformation.
 ModeAB=           2 MOrb=             5 LenV=     134112177
 LASXX=         1030 LTotXX=        1030 LenRXX=        1030
 LTotAB=        1825 MaxLAS=        2750 LenRXY=        2750
 NonZer=        2750 LenScr=      655360 LnRSAI=           0
 LnScr1=           0 LExtra=           0 Total=       659140
 MaxDsk=          -1 SrtSym=           F ITran=            3
 JobTyp=1 Pass  1:  I=   1 to   5.
 (rs|ai) integrals will be sorted in core.
 ModeAB=           2 MOrb=             5 LenV=     134112177
 LASXX=         1030 LTotXX=        1030 LenRXX=        2750
 LTotAB=         225 MaxLAS=        2750 LenRXY=         225
 NonZer=        2750 LenScr=      655360 LnRSAI=           0
 LnScr1=           0 LExtra=           0 Total=       658335
 MaxDsk=          -1 SrtSym=           F ITran=            3
 JobTyp=2 Pass  1:  I=   1 to   5.
 (rs|ai) integrals will be sorted in core.
 SymMOI:  orbitals are not symmetric.
 Spin components of T(2) and E(2):
     alpha-alpha T2 =       0.2511767015D-03 E2=     -0.5479076128D-03
     alpha-beta  T2 =       0.1926573338D-01 E2=     -0.4167156933D-01
     beta-beta   T2 =       0.2511767015D-03 E2=     -0.5479076128D-03
 ANorm=    0.1009835673D+01
 E2 =    -0.4276738455D-01 EUMP2 =    -0.52398808527087D+01
 (S**2,0)=  0.10000D+01           (S**2,1)=  0.99998D+00
 E(PUHF)=      -0.51971284845D+01        E(PMP2)=      -0.52398958689D+01
 Second order stability test of a single determinant UHF wave function:
 Stabil:  MDV=134217728
 ***********************************************************************
 Matrix         Lowest Root    Major Pairs
 ***********************************************************************
 Internal UHF     0.2690521    Stable
 RUHF --> CUHF (A)0.4569853    Stable
 RUHF --> CUHF (B)0.4569853    Stable
 RUHF --> GHF     0.           Zero root
 Stable under the perturbations considered.
 ***********************************************************************

 **********************************************************************

            Population analysis using the SCF density.

 **********************************************************************

 Orbital symmetries:
 Alpha Orbitals:
       Occupied  (BG) (BG) (BG) (BG) (BG)
       Virtual   (BG) (BG) (BG) (BG) (BG)
 Beta  Orbitals:
       Occupied  (BG) (BG) (BG) (BG) (BG)
       Virtual   (BG) (BG) (BG) (BG) (BG)
 Unable to determine electronic state:  partially filled degenerate orbitals.
 Alpha  occ. eigenvalues --   -0.74125  -0.69719  -0.62397  -0.53405  -0.44268
 Alpha virt. eigenvalues --    0.16829   0.28931   0.38181   0.52260   0.66288
  Beta  occ. eigenvalues --   -0.74125  -0.69719  -0.62397  -0.53405  -0.44268
  Beta virt. eigenvalues --    0.16829   0.28931   0.38181   0.52260   0.66288
          Condensed to atoms (all electrons):
               1          2          3          4          5          6
     1  H    0.673713  -0.064792  -0.071860   0.520694   0.001856  -0.057441
     2  H   -0.064792   1.128071   0.000979  -0.062309  -0.000001   0.001576
     3  H   -0.071860   0.000979   0.712910  -0.064332  -0.074423   0.552597
     4  H    0.520694  -0.062309  -0.064332   0.667639   0.001479  -0.070150
     5  H    0.001856  -0.000001  -0.074423   0.001479   0.710961  -0.068358
     6  H   -0.057441   0.001576   0.552597  -0.070150  -0.068358   0.710961
     7  H   -0.000020  -0.000000   0.001755  -0.000010  -0.070150   0.001479
     8  H    0.001675  -0.000013  -0.059446   0.001755   0.552597  -0.074423
     9  H   -0.000000   0.000000  -0.000013  -0.000000   0.001576  -0.000001
    10  H   -0.000024  -0.000000   0.001675  -0.000020  -0.057441   0.001856
               7          8          9         10
     1  H   -0.000020   0.001675  -0.000000  -0.000024
     2  H   -0.000000  -0.000013   0.000000  -0.000000
     3  H    0.001755  -0.059446  -0.000013   0.001675
     4  H   -0.000010   0.001755  -0.000000  -0.000020
     5  H   -0.070150   0.552597   0.001576  -0.057441
     6  H    0.001479  -0.074423  -0.000001   0.001856
     7  H    0.667639  -0.064332  -0.062309   0.520694
     8  H   -0.064332   0.712910   0.000979  -0.071860
     9  H   -0.062309   0.000979   1.128071  -0.064792
    10  H    0.520694  -0.071860  -0.064792   0.673713
          Atomic-Atomic Spin Densities.
               1          2          3          4          5          6
     1  H   -0.047308   0.068932   0.002872  -0.032755  -0.000083   0.003723
     2  H    0.068932  -1.126998  -0.001967   0.066191   0.000034  -0.002453
     3  H    0.002872  -0.001967   0.002120   0.002443  -0.000616  -0.002372
     4  H   -0.032755   0.066191   0.002443  -0.037084  -0.000082   0.004482
     5  H   -0.000083   0.000034  -0.000616  -0.000082   0.008619  -0.000000
     6  H    0.003723  -0.002453  -0.002372   0.004482  -0.000000  -0.008619
     7  H   -0.000001  -0.000000   0.000129   0.000000  -0.004482   0.000082
     8  H   -0.000106   0.000042   0.000000  -0.000129   0.002372   0.000616
     9  H    0.000001  -0.000000  -0.000042   0.000000   0.002453  -0.000034
    10  H    0.000000  -0.000001   0.000106   0.000001  -0.003723   0.000083
               7          8          9         10
     1  H   -0.000001  -0.000106   0.000001   0.000000
     2  H   -0.000000   0.000042  -0.000000  -0.000001
     3  H    0.000129   0.000000  -0.000042   0.000106
     4  H    0.000000  -0.000129   0.000000   0.000001
     5  H   -0.004482   0.002372   0.002453  -0.003723
     6  H    0.000082   0.000616  -0.000034   0.000083
     7  H    0.037084  -0.002443  -0.066191   0.032755
     8  H   -0.002443  -0.002120   0.001967  -0.002872
     9  H   -0.066191   0.001967   1.126998  -0.068932
    10  H    0.032755  -0.002872  -0.068932   0.047308
 Mulliken charges and spin densities:
               1          2
     1  H   -0.003802  -0.004724
     2  H   -0.003511  -0.996220
     3  H    0.000157   0.002673
     4  H    0.005254   0.003067
     5  H    0.001902   0.004493
     6  H    0.001902  -0.004493
     7  H    0.005254  -0.003067
     8  H    0.000157  -0.002673
     9  H   -0.003511   0.996220
    10  H   -0.003802   0.004724
 Sum of Mulliken charges =  -0.00000   0.00000
 Mulliken charges and spin densities with hydrogens summed into heavy atoms:
               1          2
 Electronic spatial extent (au):  <R**2>=            263.8036
 Charge=             -0.0000 electrons
 Dipole moment (field-independent basis, Debye):
    X=             -0.0000    Y=              0.0000    Z=             -0.0000  Tot=              0.0000
 Quadrupole moment (field-independent basis, Debye-Ang):
   XX=            -12.1897   YY=            -17.9854   ZZ=            -12.9444
   XY=              2.2384   XZ=              0.0000   YZ=              0.0000
 Traceless Quadrupole moment (field-independent basis, Debye-Ang):
   XX=              2.1835   YY=             -3.6122   ZZ=              1.4287
   XY=              2.2384   XZ=              0.0000   YZ=              0.0000
 Octapole moment (field-independent basis, Debye-Ang**2):
  XXX=             -0.0000  YYY=              0.0000  ZZZ=             -0.0000  XYY=             -0.0000
  XXY=              0.0000  XXZ=             -0.0000  XZZ=             -0.0000  YZZ=              0.0000
  YYZ=             -0.0000  XYZ=              0.0000
 Hexadecapole moment (field-independent basis, Debye-Ang**3):
 XXXX=            -83.3693 YYYY=           -578.4312 ZZZZ=            -15.6838 XXXY=             84.6907
 XXXZ=             -0.0000 YYYX=            127.8573 YYYZ=              0.0000 ZZZX=             -0.0000
 ZZZY=              0.0000 XXYY=           -102.2725 XXZZ=            -17.0813 YYZZ=            -79.4476
 XXYZ=              0.0000 YYXZ=             -0.0000 ZZXY=             28.3448
 N-N= 1.098287034067D+01 E-N=-3.136932529893D+01  KE= 5.087646243016D+00
 Symmetry AG   KE= 2.224911988164D+00
 Symmetry BG   KE= 0.000000000000D+00
 Symmetry AU   KE= 0.000000000000D+00
 Symmetry BU   KE= 2.862734254852D+00
                          Isotropic Fermi Contact Couplings
        Atom                 a.u.       MegaHertz       Gauss      10(-4) cm-1
     1  H(1)              -0.01576     -35.21170     -12.56441     -11.74536
     2  H(1)              -0.34096    -762.01573    -271.90615    -254.18109
     3  H(1)               0.00040       0.90443       0.32272       0.30168
     4  H(1)              -0.01286     -28.73790     -10.25440      -9.58593
     5  H(1)               0.00253       5.65578       2.01812       1.88657
     6  H(1)              -0.00253      -5.65578      -2.01812      -1.88657
     7  H(1)               0.01286      28.73790      10.25440       9.58593
     8  H(1)              -0.00040      -0.90443      -0.32272      -0.30168
     9  H(1)               0.34096     762.01573     271.90615     254.18109
    10  H(1)               0.01576      35.21170      12.56441      11.74536
 --------------------------------------------------------
       Center         ----  Spin Dipole Couplings  ----
                      3XX-RR        3YY-RR        3ZZ-RR
 --------------------------------------------------------
     1   Atom        0.009406     -0.034928      0.025522
     2   Atom       -0.004865      0.011503     -0.006638
     3   Atom        0.001489     -0.006220      0.004730
     4   Atom        0.000390     -0.027065      0.026675
     5   Atom       -0.000866      0.003706     -0.002840
     6   Atom        0.000866     -0.003706      0.002840
     7   Atom       -0.000390      0.027065     -0.026675
     8   Atom       -0.001489      0.006220     -0.004730
     9   Atom        0.004865     -0.011503      0.006638
    10   Atom       -0.009406      0.034928     -0.025522
 --------------------------------------------------------
                        XY            XZ            YZ
 --------------------------------------------------------
     1   Atom       -0.000025     -0.000000      0.000000
     2   Atom       -0.003690     -0.000000     -0.000000
     3   Atom        0.001481     -0.000000      0.000000
     4   Atom        0.014706      0.000000      0.000000
     5   Atom       -0.003964     -0.000000      0.000000
     6   Atom        0.003964     -0.000000      0.000000
     7   Atom       -0.014706      0.000000      0.000000
     8   Atom       -0.001481     -0.000000      0.000000
     9   Atom        0.003690      0.000000     -0.000000
    10   Atom        0.000025      0.000000      0.000000
 --------------------------------------------------------


 ---------------------------------------------------------------------------------
              Anisotropic Spin Dipole Couplings in Principal Axis System
 ---------------------------------------------------------------------------------

       Atom             a.u.   MegaHertz   Gauss  10(-4) cm-1        Axes

              Baa    -0.0349   -18.636    -6.650    -6.216  0.0006  1.0000  0.0000
     1 H(1)   Bbb     0.0094     5.018     1.791     1.674  1.0000 -0.0006  0.0000
              Bcc     0.0255    13.617     4.859     4.542  0.0000  0.0000  1.0000
 
              Baa    -0.0066    -3.542    -1.264    -1.181  0.0000  0.0000  1.0000
     2 H(1)   Bbb    -0.0057    -3.019    -1.077    -1.007  0.9777  0.2102  0.0000
              Bcc     0.0123     6.561     2.341     2.188 -0.2102  0.9777  0.0000
 
              Baa    -0.0065    -3.465    -1.236    -1.156 -0.1824  0.9832  0.0000
     3 H(1)   Bbb     0.0018     0.941     0.336     0.314  0.9832  0.1824  0.0000
              Bcc     0.0047     2.524     0.901     0.842  0.0000  0.0000  1.0000
 
              Baa    -0.0335   -17.850    -6.369    -5.954 -0.3985  0.9172  0.0000
     4 H(1)   Bbb     0.0068     3.617     1.291     1.207  0.9172  0.3985  0.0000
              Bcc     0.0267    14.233     5.079     4.747  0.0000  0.0000  1.0000
 
              Baa    -0.0032    -1.684    -0.601    -0.562  0.8659  0.5002  0.0000
     5 H(1)   Bbb    -0.0028    -1.515    -0.541    -0.505  0.0000  0.0000  1.0000
              Bcc     0.0060     3.199     1.142     1.067 -0.5002  0.8659  0.0000
 
              Baa    -0.0060    -3.199    -1.142    -1.067 -0.5002  0.8659  0.0000
     6 H(1)   Bbb     0.0028     1.515     0.541     0.505  0.0000  0.0000  1.0000
              Bcc     0.0032     1.684     0.601     0.562  0.8659  0.5002  0.0000
 
              Baa    -0.0267   -14.233    -5.079    -4.747  0.0000  0.0000  1.0000
     7 H(1)   Bbb    -0.0068    -3.617    -1.291    -1.207  0.9172  0.3985  0.0000
              Bcc     0.0335    17.850     6.369     5.954 -0.3985  0.9172 -0.0000
 
              Baa    -0.0047    -2.524    -0.901    -0.842  0.0000  0.0000  1.0000
     8 H(1)   Bbb    -0.0018    -0.941    -0.336    -0.314  0.9832  0.1824  0.0000
              Bcc     0.0065     3.465     1.236     1.156 -0.1824  0.9832  0.0000
 
              Baa    -0.0123    -6.561    -2.341    -2.188 -0.2102  0.9777  0.0000
     9 H(1)   Bbb     0.0057     3.019     1.077     1.007  0.9777  0.2102  0.0000
              Bcc     0.0066     3.542     1.264     1.181  0.0000  0.0000  1.0000
 
              Baa    -0.0255   -13.617    -4.859    -4.542  0.0000  0.0000  1.0000
    10 H(1)   Bbb    -0.0094    -5.018    -1.791    -1.674  1.0000 -0.0006  0.0000
              Bcc     0.0349    18.636     6.650     6.216  0.0006  1.0000 -0.0000
 

 ---------------------------------------------------------------------------------


 Test job not archived.
 1\1\GINC-SULU\Stability\UHF\Gen\H10\LCJ1\23-Feb-2017\0\\#uhf/gen scf(t
 ight,novaracc,noincfock,fulldiag) stable(crhf) guess=read geom=nocrowd
  test\\hf stability analysis of h10 triangular lattice, y= 0.347296355
 82011686 alpha= 11.800000000000001\\0,1\H\H,1,1.6983034301\H,1,1.69830
 34301,2,156.4\H,2,1.6983034301,1,23.6,3,0.,0\H,3,1.6983034301,1,180.,2
 ,0.,0\H,4,1.6983034301,2,180.,1,0.,0\H,5,1.6983034301,3,180.,2,0.,0\H,
 6,1.6983034301,4,180.,1,0.,0\H,7,1.6983034301,5,180.,2,0.,0\H,8,1.6983
 034301,6,180.,1,0.,0\\Version=ES64L-G09RevE.01\HF=-5.1971135\MP2=-5.23
 98809\PUHF=-5.1971285\PMP2-0=-5.2398959\S2=0.999999\S2-1=0.999978\S2A=
 0.000178\RMSD=9.035e-09\Dipole=0.,0.,0.\Quadrupole=1.6233462,1.0622265
 ,-2.6855727,0.,1.6642192,0.\PG=C02H [SGH(H10)]\\@


 OLD AGE AND TREACHERY WILL ALWAYS PREVAIL OVER YOUTH AND SKILL.
 Job cpu time:       0 days  0 hours  0 minutes  1.1 seconds.
 File lengths (MBytes):  RWF=     94 Int=      0 D2E=      0 Chk=      2 Scr=      2
 Normal termination of Gaussian 09 at Thu Feb 23 17:01:51 2017.
