 Entering Gaussian System, Link 0=g09
 AtFile(1): H.gbs
            H     0
            S   10   1.00
               1000.000000000000            0.000068713567
                316.227766000000            0.000169141320
                100.000000000000            0.000823394812
                 31.622776600000            0.003425569236
                 10.000000000000            0.013951996000
                  3.162277660000            0.056909313560
                  1.000000000000            0.198286399900
                  0.316227766000            0.496922426700
                  0.100000000000            0.369846276400
                  0.031622776600            0.003752720039
            ****
 Initial command:
 /projects/guscus/apps/gau/g09-e1/g09/l1.exe "/users/lcj1/gaussian/h10/2rows_uhf/ag2bu3/singlet/follow23/Gau-30760.inp" -scrdir="/users/lcj1/gaussian/h10/2rows_uhf/ag2bu3/singlet/follow23/"
 Entering Link 1 = /projects/guscus/apps/gau/g09-e1/g09/l1.exe PID=     30761.
  
 Copyright (c) 1988,1990,1992,1993,1995,1998,2003,2009,2015,
            Gaussian, Inc.  All Rights Reserved.
  
 This is part of the Gaussian(R) 09 program.  It is based on
 the Gaussian(R) 03 system (copyright 2003, Gaussian, Inc.),
 the Gaussian(R) 98 system (copyright 1998, Gaussian, Inc.),
 the Gaussian(R) 94 system (copyright 1995, Gaussian, Inc.),
 the Gaussian 92(TM) system (copyright 1992, Gaussian, Inc.),
 the Gaussian 90(TM) system (copyright 1990, Gaussian, Inc.),
 the Gaussian 88(TM) system (copyright 1988, Gaussian, Inc.),
 the Gaussian 86(TM) system (copyright 1986, Carnegie Mellon
 University), and the Gaussian 82(TM) system (copyright 1983,
 Carnegie Mellon University). Gaussian is a federally registered
 trademark of Gaussian, Inc.
  
 This software contains proprietary and confidential information,
 including trade secrets, belonging to Gaussian, Inc.
  
 This software is provided under written license and may be
 used, copied, transmitted, or stored only in accord with that
 written license.
  
 The following legend is applicable only to US Government
 contracts under FAR:
  
                    RESTRICTED RIGHTS LEGEND
  
 Use, reproduction and disclosure by the US Government is
 subject to restrictions as set forth in subparagraphs (a)
 and (c) of the Commercial Computer Software - Restricted
 Rights clause in FAR 52.227-19.
  
 Gaussian, Inc.
 340 Quinnipiac St., Bldg. 40, Wallingford CT 06492
  
  
 ---------------------------------------------------------------
 Warning -- This program may not be used in any manner that
 competes with the business of Gaussian, Inc. or will provide
 assistance to any competitor of Gaussian, Inc.  The licensee
 of this program is prohibited from giving any competitor of
 Gaussian, Inc. access to this program.  By using this program,
 the user acknowledges that Gaussian, Inc. is engaged in the
 business of creating and licensing software in the field of
 computational chemistry and represents and warrants to the
 licensee that it is not a competitor of Gaussian, Inc. and that
 it will not use this program in any manner prohibited above.
 ---------------------------------------------------------------
  

 Cite this work as:
 Gaussian 09, Revision E.01,
 M. J. Frisch, G. W. Trucks, H. B. Schlegel, G. E. Scuseria, 
 M. A. Robb, J. R. Cheeseman, G. Scalmani, V. Barone, B. Mennucci, 
 G. A. Petersson, H. Nakatsuji, M. Caricato, X. Li, H. P. Hratchian, 
 A. F. Izmaylov, J. Bloino, G. Zheng, J. L. Sonnenberg, M. Hada, 
 M. Ehara, K. Toyota, R. Fukuda, J. Hasegawa, M. Ishida, T. Nakajima, 
 Y. Honda, O. Kitao, H. Nakai, T. Vreven, J. A. Montgomery, Jr., 
 J. E. Peralta, F. Ogliaro, M. Bearpark, J. J. Heyd, E. Brothers, 
 K. N. Kudin, V. N. Staroverov, T. Keith, R. Kobayashi, J. Normand, 
 K. Raghavachari, A. Rendell, J. C. Burant, S. S. Iyengar, J. Tomasi, 
 M. Cossi, N. Rega, J. M. Millam, M. Klene, J. E. Knox, J. B. Cross, 
 V. Bakken, C. Adamo, J. Jaramillo, R. Gomperts, R. E. Stratmann, 
 O. Yazyev, A. J. Austin, R. Cammi, C. Pomelli, J. W. Ochterski, 
 R. L. Martin, K. Morokuma, V. G. Zakrzewski, G. A. Voth, 
 P. Salvador, J. J. Dannenberg, S. Dapprich, A. D. Daniels, 
 O. Farkas, J. B. Foresman, J. V. Ortiz, J. Cioslowski, 
 and D. J. Fox, Gaussian, Inc., Wallingford CT, 2013.
 
 ******************************************
 Gaussian 09:  ES64L-G09RevE.01 30-Nov-2015
                23-Feb-2017 
 ******************************************
 %chk=h10.chk
 ----------------------------------------------------------------------
 #uhf/gen scf(tight,novaracc,noincfock,fulldiag) stable(crhf) guess=rea
 d geom=nocrowd test
 ----------------------------------------------------------------------
 1/38=1/1;
 2/12=1,17=6,18=5,40=1/2;
 3/5=7,16=1,25=1,30=1,116=2/1,2,3;
 4/5=1/1;
 5/5=100002,16=1,32=2,38=6/2;
 8/6=1,10=90,11=11/1,4;
 9/8=4,13=1/2;
 6/7=2,8=2,9=2,10=2,28=1/1;
 99/5=1,9=1/99;
 ----------------------------------------------------------------------
 hf stability analysis of h10 triangular lattice, y= 0.3877995422859770
 7 alpha= 14.600000000000000
 ----------------------------------------------------------------------
 Symbolic Z-matrix:
 Charge =  0 Multiplicity = 1
 H
 H                    1     1.53846 
 H                    1     1.53846  2     150.8 
 H                    2     1.53846  1     29.2     3     0.       0
 H                    3     1.53846  1     180.     2     0.       0
 H                    4     1.53846  2     180.     1     0.       0
 H                    5     1.53846  3     180.     2     0.       0
 H                    6     1.53846  4     180.     1     0.       0
 H                    7     1.53846  5     180.     2     0.       0
 H                    8     1.53846  6     180.     1     0.       0
 
                          Input orientation:                          
 ---------------------------------------------------------------------
 Center     Atomic      Atomic             Coordinates (Angstroms)
 Number     Number       Type             X           Y           Z
 ---------------------------------------------------------------------
      1          1           0        0.000000    0.000000    0.000000
      2          1           0        0.000000    0.000000    1.538464
      3          1           0        0.750554    0.000000   -1.342959
      4          1           0        0.750554    0.000000    0.195505
      5          1           0        1.501109    0.000000   -2.685918
      6          1           0        1.501109    0.000000   -1.147454
      7          1           0        2.251663    0.000000   -4.028877
      8          1           0        2.251663    0.000000   -2.490413
      9          1           0        3.002217    0.000000   -5.371835
     10          1           0        3.002217    0.000000   -3.833372
 ---------------------------------------------------------------------
                    Distance matrix (angstroms):
                    1          2          3          4          5
     1  H    0.000000
     2  H    1.538464   0.000000
     3  H    1.538464   2.977571   0.000000
     4  H    0.775599   1.538464   1.538464   0.000000
     5  H    3.076927   4.483160   1.538464   2.977571   0.000000
     6  H    1.889439   3.076927   0.775599   1.538464   1.538464
     7  H    4.615391   6.005436   3.076927   4.483160   1.538464
     8  H    3.357401   4.615391   1.889439   3.076927   0.775599
     9  H    6.153854   7.534291   4.615391   6.005436   3.076927
    10  H    4.869091   6.153854   3.357401   4.615391   1.889439
                    6          7          8          9         10
     6  H    0.000000
     7  H    2.977571   0.000000
     8  H    1.538464   1.538464   0.000000
     9  H    4.483160   1.538464   2.977571   0.000000
    10  H    3.076927   0.775599   1.538464   1.538464   0.000000
 Stoichiometry    H10
 Framework group  C2H[SGH(H10)]
 Deg. of freedom     9
 Full point group                 C2H     NOp   4
 Largest Abelian subgroup         C2H     NOp   4
 Largest concise Abelian subgroup C2      NOp   2
                         Standard orientation:                         
 ---------------------------------------------------------------------
 Center     Atomic      Atomic             Coordinates (Angstroms)
 Number     Number       Type             X           Y           Z
 ---------------------------------------------------------------------
      1          1           0        1.501109   -1.916686    0.000000
      2          1           0        1.501109   -3.455149    0.000000
      3          1           0        0.750554   -0.573727    0.000000
      4          1           0        0.750554   -2.112191    0.000000
      5          1           0        0.000000    0.769232   -0.000000
      6          1           0       -0.000000   -0.769232   -0.000000
      7          1           0       -0.750554    2.112191    0.000000
      8          1           0       -0.750554    0.573727    0.000000
      9          1           0       -1.501109    3.455149    0.000000
     10          1           0       -1.501109    1.916686    0.000000
 ---------------------------------------------------------------------
 Rotational constants (GHZ):    390.9231414      9.6485934      9.4161872
 General basis read from cards:  (5D, 7F)
 There are     5 symmetry adapted cartesian basis functions of AG  symmetry.
 There are     0 symmetry adapted cartesian basis functions of BG  symmetry.
 There are     0 symmetry adapted cartesian basis functions of AU  symmetry.
 There are     5 symmetry adapted cartesian basis functions of BU  symmetry.
 There are     5 symmetry adapted basis functions of AG  symmetry.
 There are     0 symmetry adapted basis functions of BG  symmetry.
 There are     0 symmetry adapted basis functions of AU  symmetry.
 There are     5 symmetry adapted basis functions of BU  symmetry.
    10 basis functions,   100 primitive gaussians,    10 cartesian basis functions
     5 alpha electrons        5 beta electrons
       nuclear repulsion energy        11.4387528267 Hartrees.
 NAtoms=   10 NActive=   10 NUniq=    5 SFac= 4.00D+00 NAtFMM=   60 NAOKFM=F Big=F
 Integral buffers will be    131072 words long.
 Regular integral format.
 Two-electron integral symmetry is turned on.
 One-electron integrals computed using PRISM.
 NBasis=    10 RedAO= T EigKep=  1.72D-01  NBF=     5     0     0     5
 NBsUse=    10 1.00D-06 EigRej= -1.00D+00 NBFU=     5     0     0     5
 Initial guess from the checkpoint file:  "h10.chk"
 B after Tr=     0.000000    0.000000    0.000000
         Rot=    0.999995    0.000000    0.000000    0.003103 Ang=   0.36 deg.
 Initial guess orbital symmetries:
 Alpha Orbitals:
       Occupied  (BG) (BG) (BG) (BG) (BG)
       Virtual   (BG) (BG) (BG) (BG) (BG)
 Beta  Orbitals:
       Occupied  (BG) (BG) (BG) (BG) (BG)
       Virtual   (BG) (BG) (BG) (BG) (BG)
 Initial guess <Sx>= 0.0000 <Sy>= 0.0000 <Sz>= 0.0000 <S**2>= 1.0006 S= 0.6183
 Keep R1 and R2 ints in memory in symmetry-blocked form, NReq=874875.
 Requested convergence on RMS density matrix=1.00D-08 within 128 cycles.
 Requested convergence on MAX density matrix=1.00D-06.
 Requested convergence on             energy=1.00D-06.
 No special actions if energy rises.
 An orbital has undefined symmetry, so N**3 symmetry is turned off.
 Density matrix breaks symmetry, PCut= 1.00D-04
 Density matrix has no symmetry -- integrals replicated.
 Density matrix breaks symmetry, PCut= 1.00D-07
 Density matrix has no symmetry -- integrals replicated.
 Density matrix breaks symmetry, PCut= 1.00D-07
 Density matrix has no symmetry -- integrals replicated.
 Density matrix breaks symmetry, PCut= 1.00D-07
 Density matrix has no symmetry -- integrals replicated.
 Density matrix breaks symmetry, PCut= 1.00D-07
 Density matrix has no symmetry -- integrals replicated.
 Density matrix breaks symmetry, PCut= 1.00D-07
 Density matrix has no symmetry -- integrals replicated.
 Density matrix breaks symmetry, PCut= 1.00D-07
 Density matrix has no symmetry -- integrals replicated.
 Density matrix breaks symmetry, PCut= 1.00D-07
 Density matrix has no symmetry -- integrals replicated.
 Density matrix breaks symmetry, PCut= 1.00D-07
 Density matrix has no symmetry -- integrals replicated.
 Density matrix breaks symmetry, PCut= 1.00D-07
 Density matrix has no symmetry -- integrals replicated.
 Density matrix breaks symmetry, PCut= 1.00D-07
 Density matrix has no symmetry -- integrals replicated.
 SCF Done:  E(UHF) =  -5.12757036201     A.U. after   10 cycles
            NFock= 10  Conv=0.15D-08     -V/T= 1.9653
 <Sx>= 0.0000 <Sy>= 0.0000 <Sz>= 0.0000 <S**2>= 1.0005 S= 0.6182
 <L.S>= 0.000000000000E+00
 Annihilation of the first spin contaminant:
 S**2 before annihilation     1.0005,   after     0.0062
 Range of M.O.s used for correlation:     1    10
 NBasis=    10 NAE=     5 NBE=     5 NFC=     0 NFV=     0
 NROrb=     10 NOA=     5 NOB=     5 NVA=     5 NVB=     5
 Semi-Direct transformation.
 ModeAB=           2 MOrb=             5 LenV=     134111365
 LASXX=         1030 LTotXX=        1030 LenRXX=        1030
 LTotAB=        1825 MaxLAS=        2750 LenRXY=        2750
 NonZer=        2750 LenScr=      655360 LnRSAI=           0
 LnScr1=           0 LExtra=           0 Total=       659140
 MaxDsk=          -1 SrtSym=           F ITran=            3
 JobTyp=1 Pass  1:  I=   1 to   5.
 (rs|ai) integrals will be sorted in core.
 ModeAB=           2 MOrb=             5 LenV=     134111365
 LASXX=         1030 LTotXX=        1030 LenRXX=        2750
 LTotAB=         225 MaxLAS=        2750 LenRXY=         225
 NonZer=        2750 LenScr=      655360 LnRSAI=           0
 LnScr1=           0 LExtra=           0 Total=       658335
 MaxDsk=          -1 SrtSym=           F ITran=            3
 JobTyp=2 Pass  1:  I=   1 to   5.
 (rs|ai) integrals will be sorted in core.
 SymMOI:  orbitals are not symmetric.
 Spin components of T(2) and E(2):
     alpha-alpha T2 =       0.4436110977D-03 E2=     -0.8910529597D-03
     alpha-beta  T2 =       0.2478109201D-01 E2=     -0.4911612903D-01
     beta-beta   T2 =       0.4436110977D-03 E2=     -0.8910529597D-03
 ANorm=    0.1012752840D+01
 E2 =    -0.5089823495D-01 EUMP2 =    -0.51784685969624D+01
 (S**2,0)=  0.10005D+01           (S**2,1)=  0.99999D+00
 E(PUHF)=      -0.51278980383D+01        E(PMP2)=      -0.51787961976D+01
 Second order stability test of a single determinant UHF wave function:
 Stabil:  MDV=134217728
 ***********************************************************************
 Matrix         Lowest Root    Major Pairs
 ***********************************************************************
 Internal UHF     0.1351398    Stable
 RUHF --> CUHF (A)0.2963003    Stable
 RUHF --> CUHF (B)0.2963003    Stable
 RUHF --> GHF     0.           Zero root
 Stable under the perturbations considered.
 ***********************************************************************

 **********************************************************************

            Population analysis using the SCF density.

 **********************************************************************

 Orbital symmetries:
 Alpha Orbitals:
       Occupied  (BG) (BG) (BG) (BG) (BG)
       Virtual   (BG) (BG) (BG) (BG) (BG)
 Beta  Orbitals:
       Occupied  (BG) (BG) (BG) (BG) (BG)
       Virtual   (BG) (BG) (BG) (BG) (BG)
 Unable to determine electronic state:  partially filled degenerate orbitals.
 Alpha  occ. eigenvalues --   -0.75648  -0.69889  -0.60321  -0.48294  -0.38236
 Alpha virt. eigenvalues --    0.19119   0.21260   0.31544   0.47842   0.64249
  Beta  occ. eigenvalues --   -0.75648  -0.69889  -0.60321  -0.48294  -0.38236
  Beta virt. eigenvalues --    0.19119   0.21260   0.31544   0.47842   0.64249
          Condensed to atoms (all electrons):
               1          2          3          4          5          6
     1  H    0.763466  -0.096916  -0.115515   0.537908   0.004688  -0.090539
     2  H   -0.096916   1.203635   0.000523  -0.084027   0.000074   0.003322
     3  H   -0.115515   0.000523   0.812175  -0.088670  -0.120814   0.593445
     4  H    0.537908  -0.084027  -0.088670   0.709341   0.002508  -0.106799
     5  H    0.004688   0.000074  -0.120814   0.002508   0.812254  -0.102064
     6  H   -0.090539   0.003322   0.593445  -0.106799  -0.102064   0.812254
     7  H   -0.000065  -0.000004   0.003899   0.000019  -0.106799   0.002508
     8  H    0.004383  -0.000015  -0.093487   0.003899   0.593445  -0.120814
     9  H   -0.000002   0.000000  -0.000015  -0.000004   0.003322   0.000074
    10  H   -0.000110  -0.000002   0.004383  -0.000065  -0.090539   0.004688
               7          8          9         10
     1  H   -0.000065   0.004383  -0.000002  -0.000110
     2  H   -0.000004  -0.000015   0.000000  -0.000002
     3  H    0.003899  -0.093487  -0.000015   0.004383
     4  H    0.000019   0.003899  -0.000004  -0.000065
     5  H   -0.106799   0.593445   0.003322  -0.090539
     6  H    0.002508  -0.120814   0.000074   0.004688
     7  H    0.709341  -0.088670  -0.084027   0.537908
     8  H   -0.088670   0.812175   0.000523  -0.115515
     9  H   -0.084027   0.000523   1.203635  -0.096916
    10  H    0.537908  -0.115515  -0.096916   0.763466
          Atomic-Atomic Spin Densities.
               1          2          3          4          5          6
     1  H   -0.114567   0.123606   0.007530  -0.060334  -0.000370   0.012491
     2  H    0.123606  -1.191809  -0.005551   0.108997   0.000186  -0.007592
     3  H    0.007530  -0.005551   0.019925   0.003823  -0.004590  -0.006109
     4  H   -0.060334   0.108997   0.003823  -0.052183  -0.000280   0.012878
     5  H   -0.000370   0.000186  -0.004590  -0.000280   0.039056  -0.000000
     6  H    0.012491  -0.007592  -0.006109   0.012878  -0.000000  -0.039056
     7  H   -0.000006  -0.000003   0.000577   0.000000  -0.012878   0.000280
     8  H   -0.000589   0.000235   0.000000  -0.000577   0.006109   0.004590
     9  H    0.000005   0.000000  -0.000235   0.000003   0.007592  -0.000186
    10  H    0.000000  -0.000005   0.000589   0.000006  -0.012491   0.000370
               7          8          9         10
     1  H   -0.000006  -0.000589   0.000005   0.000000
     2  H   -0.000003   0.000235   0.000000  -0.000005
     3  H    0.000577   0.000000  -0.000235   0.000589
     4  H    0.000000  -0.000577   0.000003   0.000006
     5  H   -0.012878   0.006109   0.007592  -0.012491
     6  H    0.000280   0.004590  -0.000186   0.000370
     7  H    0.052183  -0.003823  -0.108997   0.060334
     8  H   -0.003823  -0.019925   0.005551  -0.007530
     9  H   -0.108997   0.005551   1.191809  -0.123606
    10  H    0.060334  -0.007530  -0.123606   0.114567
 Mulliken charges and spin densities:
               1          2
     1  H   -0.007297  -0.032233
     2  H   -0.026590  -0.971937
     3  H    0.004076   0.015958
     4  H    0.025887   0.012333
     5  H    0.003924   0.022334
     6  H    0.003924  -0.022334
     7  H    0.025887  -0.012333
     8  H    0.004076  -0.015958
     9  H   -0.026590   0.971937
    10  H   -0.007297   0.032233
 Sum of Mulliken charges =  -0.00000   0.00000
 Mulliken charges and spin densities with hydrogens summed into heavy atoms:
               1          2
 Electronic spatial extent (au):  <R**2>=            224.0304
 Charge=             -0.0000 electrons
 Dipole moment (field-independent basis, Debye):
    X=              0.0000    Y=             -0.0000    Z=             -0.0000  Tot=              0.0000
 Quadrupole moment (field-independent basis, Debye-Ang):
   XX=            -12.7857   YY=            -20.0027   ZZ=            -12.7475
   XY=              4.0048   XZ=              0.0000   YZ=             -0.0000
 Traceless Quadrupole moment (field-independent basis, Debye-Ang):
   XX=              2.3929   YY=             -4.8240   ZZ=              2.4311
   XY=              4.0048   XZ=              0.0000   YZ=             -0.0000
 Octapole moment (field-independent basis, Debye-Ang**2):
  XXX=              0.0000  YYY=             -0.0000  ZZZ=             -0.0000  XYY=              0.0000
  XXY=             -0.0000  XXZ=             -0.0000  XZZ=              0.0000  YZZ=             -0.0000
  YYZ=             -0.0000  XYZ=              0.0000
 Hexadecapole moment (field-independent basis, Debye-Ang**3):
 XXXX=           -100.6411 YYYY=           -478.1025 ZZZZ=            -15.2891 XXXY=             87.4305
 XXXZ=              0.0000 YYYX=            138.6982 YYYZ=             -0.0000 ZZZX=              0.0000
 ZZZY=             -0.0000 XXYY=            -98.3484 XXZZ=            -19.6584 YYZZ=            -61.6001
 XXYZ=             -0.0000 YYXZ=              0.0000 ZZXY=             27.2919
 N-N= 1.143875282670D+01 E-N=-3.259661190506D+01  KE= 5.311714353253D+00
 Symmetry AG   KE= 2.282382180759D+00
 Symmetry BG   KE= 0.000000000000D+00
 Symmetry AU   KE= 0.000000000000D+00
 Symmetry BU   KE= 3.029332172494D+00
                          Isotropic Fermi Contact Couplings
        Atom                 a.u.       MegaHertz       Gauss      10(-4) cm-1
     1  H(1)              -0.03438     -76.82766     -27.41402     -25.62695
     2  H(1)              -0.35115    -784.79960    -280.03600    -261.78097
     3  H(1)               0.00522      11.66184       4.16124       3.88997
     4  H(1)              -0.01687     -37.70395     -13.45371     -12.57668
     5  H(1)               0.01088      24.32409       8.67944       8.11364
     6  H(1)              -0.01088     -24.32409      -8.67944      -8.11364
     7  H(1)               0.01687      37.70395      13.45371      12.57668
     8  H(1)              -0.00522     -11.66184      -4.16124      -3.88997
     9  H(1)               0.35115     784.79960     280.03600     261.78097
    10  H(1)               0.03438      76.82766      27.41402      25.62695
 --------------------------------------------------------
       Center         ----  Spin Dipole Couplings  ----
                      3XX-RR        3YY-RR        3ZZ-RR
 --------------------------------------------------------
     1   Atom        0.008541     -0.037161      0.028620
     2   Atom       -0.005857      0.016150     -0.010293
     3   Atom       -0.002662     -0.006936      0.009598
     4   Atom       -0.012512     -0.022563      0.035075
     5   Atom       -0.001108      0.002958     -0.001851
     6   Atom        0.001108     -0.002958      0.001851
     7   Atom        0.012512      0.022563     -0.035075
     8   Atom        0.002662      0.006936     -0.009598
     9   Atom        0.005857     -0.016150      0.010293
    10   Atom       -0.008541      0.037161     -0.028620
 --------------------------------------------------------
                        XY            XZ            YZ
 --------------------------------------------------------
     1   Atom       -0.000698     -0.000000      0.000000
     2   Atom       -0.006895     -0.000000     -0.000000
     3   Atom        0.002421     -0.000000      0.000000
     4   Atom        0.014483     -0.000000      0.000000
     5   Atom       -0.006988     -0.000000      0.000000
     6   Atom        0.006988      0.000000      0.000000
     7   Atom       -0.014483      0.000000      0.000000
     8   Atom       -0.002421     -0.000000      0.000000
     9   Atom        0.006895      0.000000     -0.000000
    10   Atom        0.000698      0.000000      0.000000
 --------------------------------------------------------


 ---------------------------------------------------------------------------------
              Anisotropic Spin Dipole Couplings in Principal Axis System
 ---------------------------------------------------------------------------------

       Atom             a.u.   MegaHertz   Gauss  10(-4) cm-1        Axes

              Baa    -0.0372   -19.833    -7.077    -6.616  0.0153  0.9999  0.0000
     1 H(1)   Bbb     0.0086     4.563     1.628     1.522  0.9999 -0.0153  0.0000
              Bcc     0.0286    15.270     5.449     5.094  0.0000  0.0000  1.0000
 
              Baa    -0.0103    -5.492    -1.960    -1.832  0.0000  0.0000  1.0000
     2 H(1)   Bbb    -0.0078    -4.182    -1.492    -1.395  0.9611  0.2762  0.0000
              Bcc     0.0181     9.674     3.452     3.227 -0.2762  0.9611  0.0000
 
              Baa    -0.0080    -4.284    -1.529    -1.429 -0.4112  0.9115  0.0000
     3 H(1)   Bbb    -0.0016    -0.837    -0.299    -0.279  0.9115  0.4112  0.0000
              Bcc     0.0096     5.121     1.827     1.708  0.0000  0.0000  1.0000
 
              Baa    -0.0329   -17.537    -6.258    -5.850 -0.5797  0.8148  0.0000
     4 H(1)   Bbb    -0.0022    -1.178    -0.420    -0.393  0.8148  0.5797  0.0000
              Bcc     0.0351    18.715     6.678     6.242  0.0000  0.0000  1.0000
 
              Baa    -0.0064    -3.389    -1.209    -1.130  0.7998  0.6003  0.0000
     5 H(1)   Bbb    -0.0019    -0.987    -0.352    -0.329  0.0000  0.0000  1.0000
              Bcc     0.0082     4.377     1.562     1.460 -0.6003  0.7998  0.0000
 
              Baa    -0.0082    -4.377    -1.562    -1.460 -0.6003  0.7998  0.0000
     6 H(1)   Bbb     0.0019     0.987     0.352     0.329  0.0000  0.0000  1.0000
              Bcc     0.0064     3.389     1.209     1.130  0.7998  0.6003  0.0000
 
              Baa    -0.0351   -18.715    -6.678    -6.242  0.0000  0.0000  1.0000
     7 H(1)   Bbb     0.0022     1.178     0.420     0.393  0.8148  0.5797  0.0000
              Bcc     0.0329    17.537     6.258     5.850 -0.5797  0.8148 -0.0000
 
              Baa    -0.0096    -5.121    -1.827    -1.708  0.0000  0.0000  1.0000
     8 H(1)   Bbb     0.0016     0.837     0.299     0.279  0.9115  0.4112  0.0000
              Bcc     0.0080     4.284     1.529     1.429 -0.4112  0.9115  0.0000
 
              Baa    -0.0181    -9.674    -3.452    -3.227 -0.2762  0.9611  0.0000
     9 H(1)   Bbb     0.0078     4.182     1.492     1.395  0.9611  0.2762  0.0000
              Bcc     0.0103     5.492     1.960     1.832  0.0000  0.0000  1.0000
 
              Baa    -0.0286   -15.270    -5.449    -5.094  0.0000  0.0000  1.0000
    10 H(1)   Bbb    -0.0086    -4.563    -1.628    -1.522  0.9999 -0.0153  0.0000
              Bcc     0.0372    19.833     7.077     6.616  0.0153  0.9999 -0.0000
 

 ---------------------------------------------------------------------------------


 Test job not archived.
 1\1\GINC-SULU\Stability\UHF\Gen\H10\LCJ1\23-Feb-2017\0\\#uhf/gen scf(t
 ight,novaracc,noincfock,fulldiag) stable(crhf) guess=read geom=nocrowd
  test\\hf stability analysis of h10 triangular lattice, y= 0.387799542
 28597707 alpha= 14.600000000000000\\0,1\H\H,1,1.5384635976\H,1,1.53846
 35976,2,150.8\H,2,1.5384635976,1,29.2,3,0.,0\H,3,1.5384635976,1,180.,2
 ,0.,0\H,4,1.5384635976,2,180.,1,0.,0\H,5,1.5384635976,3,180.,2,0.,0\H,
 6,1.5384635976,4,180.,1,0.,0\H,7,1.5384635976,5,180.,2,0.,0\H,8,1.5384
 635976,6,180.,1,0.,0\\Version=ES64L-G09RevE.01\HF=-5.1275704\MP2=-5.17
 84686\PUHF=-5.127898\PMP2-0=-5.1787962\S2=1.000455\S2-1=0.999991\S2A=0
 .006204\RMSD=1.513e-09\Dipole=0.,0.,0.\Quadrupole=1.7790765,1.8074804,
 -3.5865569,0.,2.9774383,0.\PG=C02H [SGH(H10)]\\@


 READER, WHETHER YOU BE DILETTANTE OR PROFESSOR ... SHOW YOURSELF TO BE
 MORE HUMAN THAN CRITICAL, AND THEN YOUR PLEASURE WILL INCREASE.
                                           -- DOMENICO SCARLATTI (1738)
 Job cpu time:       0 days  0 hours  0 minutes  1.2 seconds.
 File lengths (MBytes):  RWF=     94 Int=      0 D2E=      0 Chk=      2 Scr=      2
 Normal termination of Gaussian 09 at Thu Feb 23 17:01:13 2017.
