 Entering Gaussian System, Link 0=g09
 AtFile(1): H.gbs
            H     0
            S   10   1.00
               1000.000000000000            0.000068713567
                316.227766000000            0.000169141320
                100.000000000000            0.000823394812
                 31.622776600000            0.003425569236
                 10.000000000000            0.013951996000
                  3.162277660000            0.056909313560
                  1.000000000000            0.198286399900
                  0.316227766000            0.496922426700
                  0.100000000000            0.369846276400
                  0.031622776600            0.003752720039
            ****
 Initial command:
 /projects/guscus/apps/gau/g09-e1/g09/l1.exe "/users/lcj1/gaussian/h10/2rows_uhf/ag2bu3/singlet/follow23/Gau-30815.inp" -scrdir="/users/lcj1/gaussian/h10/2rows_uhf/ag2bu3/singlet/follow23/"
 Entering Link 1 = /projects/guscus/apps/gau/g09-e1/g09/l1.exe PID=     30816.
  
 Copyright (c) 1988,1990,1992,1993,1995,1998,2003,2009,2015,
            Gaussian, Inc.  All Rights Reserved.
  
 This is part of the Gaussian(R) 09 program.  It is based on
 the Gaussian(R) 03 system (copyright 2003, Gaussian, Inc.),
 the Gaussian(R) 98 system (copyright 1998, Gaussian, Inc.),
 the Gaussian(R) 94 system (copyright 1995, Gaussian, Inc.),
 the Gaussian 92(TM) system (copyright 1992, Gaussian, Inc.),
 the Gaussian 90(TM) system (copyright 1990, Gaussian, Inc.),
 the Gaussian 88(TM) system (copyright 1988, Gaussian, Inc.),
 the Gaussian 86(TM) system (copyright 1986, Carnegie Mellon
 University), and the Gaussian 82(TM) system (copyright 1983,
 Carnegie Mellon University). Gaussian is a federally registered
 trademark of Gaussian, Inc.
  
 This software contains proprietary and confidential information,
 including trade secrets, belonging to Gaussian, Inc.
  
 This software is provided under written license and may be
 used, copied, transmitted, or stored only in accord with that
 written license.
  
 The following legend is applicable only to US Government
 contracts under FAR:
  
                    RESTRICTED RIGHTS LEGEND
  
 Use, reproduction and disclosure by the US Government is
 subject to restrictions as set forth in subparagraphs (a)
 and (c) of the Commercial Computer Software - Restricted
 Rights clause in FAR 52.227-19.
  
 Gaussian, Inc.
 340 Quinnipiac St., Bldg. 40, Wallingford CT 06492
  
  
 ---------------------------------------------------------------
 Warning -- This program may not be used in any manner that
 competes with the business of Gaussian, Inc. or will provide
 assistance to any competitor of Gaussian, Inc.  The licensee
 of this program is prohibited from giving any competitor of
 Gaussian, Inc. access to this program.  By using this program,
 the user acknowledges that Gaussian, Inc. is engaged in the
 business of creating and licensing software in the field of
 computational chemistry and represents and warrants to the
 licensee that it is not a competitor of Gaussian, Inc. and that
 it will not use this program in any manner prohibited above.
 ---------------------------------------------------------------
  

 Cite this work as:
 Gaussian 09, Revision E.01,
 M. J. Frisch, G. W. Trucks, H. B. Schlegel, G. E. Scuseria, 
 M. A. Robb, J. R. Cheeseman, G. Scalmani, V. Barone, B. Mennucci, 
 G. A. Petersson, H. Nakatsuji, M. Caricato, X. Li, H. P. Hratchian, 
 A. F. Izmaylov, J. Bloino, G. Zheng, J. L. Sonnenberg, M. Hada, 
 M. Ehara, K. Toyota, R. Fukuda, J. Hasegawa, M. Ishida, T. Nakajima, 
 Y. Honda, O. Kitao, H. Nakai, T. Vreven, J. A. Montgomery, Jr., 
 J. E. Peralta, F. Ogliaro, M. Bearpark, J. J. Heyd, E. Brothers, 
 K. N. Kudin, V. N. Staroverov, T. Keith, R. Kobayashi, J. Normand, 
 K. Raghavachari, A. Rendell, J. C. Burant, S. S. Iyengar, J. Tomasi, 
 M. Cossi, N. Rega, J. M. Millam, M. Klene, J. E. Knox, J. B. Cross, 
 V. Bakken, C. Adamo, J. Jaramillo, R. Gomperts, R. E. Stratmann, 
 O. Yazyev, A. J. Austin, R. Cammi, C. Pomelli, J. W. Ochterski, 
 R. L. Martin, K. Morokuma, V. G. Zakrzewski, G. A. Voth, 
 P. Salvador, J. J. Dannenberg, S. Dapprich, A. D. Daniels, 
 O. Farkas, J. B. Foresman, J. V. Ortiz, J. Cioslowski, 
 and D. J. Fox, Gaussian, Inc., Wallingford CT, 2013.
 
 ******************************************
 Gaussian 09:  ES64L-G09RevE.01 30-Nov-2015
                23-Feb-2017 
 ******************************************
 %chk=h10.chk
 ----------------------------------------------------------------------
 #uhf/gen scf(tight,novaracc,noincfock,fulldiag) stable(crhf) guess=rea
 d geom=nocrowd test
 ----------------------------------------------------------------------
 1/38=1/1;
 2/12=1,17=6,18=5,40=1/2;
 3/5=7,16=1,25=1,30=1,116=2/1,2,3;
 4/5=1/1;
 5/5=100002,16=1,32=2,38=6/2;
 8/6=1,10=90,11=11/1,4;
 9/8=4,13=1/2;
 6/7=2,8=2,9=2,10=2,28=1/1;
 99/5=1,9=1/99;
 ----------------------------------------------------------------------
 hf stability analysis of h10 triangular lattice, y= 0.3850173477631024
 2 alpha= 14.400000000000000
 ----------------------------------------------------------------------
 Symbolic Z-matrix:
 Charge =  0 Multiplicity = 1
 H
 H                    1     1.54818 
 H                    1     1.54818  2     151.2 
 H                    2     1.54818  1     28.8     3     0.       0
 H                    3     1.54818  1     180.     2     0.       0
 H                    4     1.54818  2     180.     1     0.       0
 H                    5     1.54818  3     180.     2     0.       0
 H                    6     1.54818  4     180.     1     0.       0
 H                    7     1.54818  5     180.     2     0.       0
 H                    8     1.54818  6     180.     1     0.       0
 
                          Input orientation:                          
 ---------------------------------------------------------------------
 Center     Atomic      Atomic             Coordinates (Angstroms)
 Number     Number       Type             X           Y           Z
 ---------------------------------------------------------------------
      1          1           0        0.000000    0.000000    0.000000
      2          1           0        0.000000    0.000000    1.548183
      3          1           0        0.745843    0.000000   -1.356683
      4          1           0        0.745843    0.000000    0.191500
      5          1           0        1.491685    0.000000   -2.713365
      6          1           0        1.491685    0.000000   -1.165183
      7          1           0        2.237528    0.000000   -4.070048
      8          1           0        2.237528    0.000000   -2.521866
      9          1           0        2.983370    0.000000   -5.426731
     10          1           0        2.983370    0.000000   -3.878548
 ---------------------------------------------------------------------
                    Distance matrix (angstroms):
                    1          2          3          4          5
     1  H    0.000000
     2  H    1.548183   0.000000
     3  H    1.548183   2.999087   0.000000
     4  H    0.770035   1.548183   1.548183   0.000000
     5  H    3.096365   4.515076   1.548183   2.999087   0.000000
     6  H    1.892822   3.096365   0.770035   1.548183   1.548183
     7  H    4.644548   6.047400   3.096365   4.515076   1.548183
     8  H    3.371400   4.644548   1.892822   3.096365   0.770035
     9  H    6.192730   7.586166   4.644548   6.047400   3.096365
    10  H    4.893223   6.192730   3.371400   4.644548   1.892822
                    6          7          8          9         10
     6  H    0.000000
     7  H    2.999087   0.000000
     8  H    1.548183   1.548183   0.000000
     9  H    4.515076   1.548183   2.999087   0.000000
    10  H    3.096365   0.770035   1.548183   1.548183   0.000000
 Stoichiometry    H10
 Framework group  C2H[SGH(H10)]
 Deg. of freedom     9
 Full point group                 C2H     NOp   4
 Largest Abelian subgroup         C2H     NOp   4
 Largest concise Abelian subgroup C2      NOp   2
                         Standard orientation:                         
 ---------------------------------------------------------------------
 Center     Atomic      Atomic             Coordinates (Angstroms)
 Number     Number       Type             X           Y           Z
 ---------------------------------------------------------------------
      1          1           0        1.491685   -1.939274    0.000000
      2          1           0        1.491685   -3.487457   -0.000000
      3          1           0        0.745843   -0.582591    0.000000
      4          1           0        0.745843   -2.130774   -0.000000
      5          1           0        0.000000    0.774091    0.000000
      6          1           0       -0.000000   -0.774091    0.000000
      7          1           0       -0.745843    2.130774   -0.000000
      8          1           0       -0.745843    0.582591   -0.000000
      9          1           0       -1.491685    3.487457   -0.000000
     10          1           0       -1.491685    1.939274   -0.000000
 ---------------------------------------------------------------------
 Rotational constants (GHZ):    396.1269369      9.5218429      9.2983355
 General basis read from cards:  (5D, 7F)
 There are     5 symmetry adapted cartesian basis functions of AG  symmetry.
 There are     0 symmetry adapted cartesian basis functions of BG  symmetry.
 There are     0 symmetry adapted cartesian basis functions of AU  symmetry.
 There are     5 symmetry adapted cartesian basis functions of BU  symmetry.
 There are     5 symmetry adapted basis functions of AG  symmetry.
 There are     0 symmetry adapted basis functions of BG  symmetry.
 There are     0 symmetry adapted basis functions of AU  symmetry.
 There are     5 symmetry adapted basis functions of BU  symmetry.
    10 basis functions,   100 primitive gaussians,    10 cartesian basis functions
     5 alpha electrons        5 beta electrons
       nuclear repulsion energy        11.4073133548 Hartrees.
 NAtoms=   10 NActive=   10 NUniq=    5 SFac= 4.00D+00 NAtFMM=   60 NAOKFM=F Big=F
 Integral buffers will be    131072 words long.
 Regular integral format.
 Two-electron integral symmetry is turned on.
 One-electron integrals computed using PRISM.
 NBasis=    10 RedAO= T EigKep=  1.71D-01  NBF=     5     0     0     5
 NBsUse=    10 1.00D-06 EigRej= -1.00D+00 NBFU=     5     0     0     5
 Initial guess from the checkpoint file:  "h10.chk"
 B after Tr=    -0.000000    0.000000   -0.000000
         Rot=    0.999995    0.000000    0.000000    0.003103 Ang=   0.36 deg.
 Initial guess orbital symmetries:
 Alpha Orbitals:
       Occupied  (BG) (BG) (BG) (BG) (BG)
       Virtual   (BG) (BG) (BG) (BG) (BG)
 Beta  Orbitals:
       Occupied  (BG) (BG) (BG) (BG) (BG)
       Virtual   (BG) (BG) (BG) (BG) (BG)
 Initial guess <Sx>= 0.0000 <Sy>= 0.0000 <Sz>= 0.0000 <S**2>= 1.0005 S= 0.6182
 Keep R1 and R2 ints in memory in symmetry-blocked form, NReq=874875.
 Requested convergence on RMS density matrix=1.00D-08 within 128 cycles.
 Requested convergence on MAX density matrix=1.00D-06.
 Requested convergence on             energy=1.00D-06.
 No special actions if energy rises.
 An orbital has undefined symmetry, so N**3 symmetry is turned off.
 Density matrix breaks symmetry, PCut= 1.00D-04
 Density matrix has no symmetry -- integrals replicated.
 Density matrix breaks symmetry, PCut= 1.00D-07
 Density matrix has no symmetry -- integrals replicated.
 Density matrix breaks symmetry, PCut= 1.00D-07
 Density matrix has no symmetry -- integrals replicated.
 Density matrix breaks symmetry, PCut= 1.00D-07
 Density matrix has no symmetry -- integrals replicated.
 Density matrix breaks symmetry, PCut= 1.00D-07
 Density matrix has no symmetry -- integrals replicated.
 Density matrix breaks symmetry, PCut= 1.00D-07
 Density matrix has no symmetry -- integrals replicated.
 Density matrix breaks symmetry, PCut= 1.00D-07
 Density matrix has no symmetry -- integrals replicated.
 Density matrix breaks symmetry, PCut= 1.00D-07
 Density matrix has no symmetry -- integrals replicated.
 Density matrix breaks symmetry, PCut= 1.00D-07
 Density matrix has no symmetry -- integrals replicated.
 Density matrix breaks symmetry, PCut= 1.00D-07
 Density matrix has no symmetry -- integrals replicated.
 Density matrix breaks symmetry, PCut= 1.00D-07
 Density matrix has no symmetry -- integrals replicated.
 SCF Done:  E(UHF) =  -5.13519995967     A.U. after   10 cycles
            NFock= 10  Conv=0.17D-08     -V/T= 1.9696
 <Sx>= 0.0000 <Sy>= 0.0000 <Sz>= 0.0000 <S**2>= 1.0003 S= 0.6182
 <L.S>= 0.000000000000E+00
 Annihilation of the first spin contaminant:
 S**2 before annihilation     1.0003,   after     0.0049
 Range of M.O.s used for correlation:     1    10
 NBasis=    10 NAE=     5 NBE=     5 NFC=     0 NFV=     0
 NROrb=     10 NOA=     5 NOB=     5 NVA=     5 NVB=     5
 Semi-Direct transformation.
 ModeAB=           2 MOrb=             5 LenV=     134111449
 LASXX=         1030 LTotXX=        1030 LenRXX=        1030
 LTotAB=        1825 MaxLAS=        2750 LenRXY=        2750
 NonZer=        2750 LenScr=      655360 LnRSAI=           0
 LnScr1=           0 LExtra=           0 Total=       659140
 MaxDsk=          -1 SrtSym=           F ITran=            3
 JobTyp=1 Pass  1:  I=   1 to   5.
 (rs|ai) integrals will be sorted in core.
 ModeAB=           2 MOrb=             5 LenV=     134111449
 LASXX=         1030 LTotXX=        1030 LenRXX=        2750
 LTotAB=         225 MaxLAS=        2750 LenRXY=         225
 NonZer=        2750 LenScr=      655360 LnRSAI=           0
 LnScr1=           0 LExtra=           0 Total=       658335
 MaxDsk=          -1 SrtSym=           F ITran=            3
 JobTyp=2 Pass  1:  I=   1 to   5.
 (rs|ai) integrals will be sorted in core.
 SymMOI:  orbitals are not symmetric.
 Spin components of T(2) and E(2):
     alpha-alpha T2 =       0.4279928016D-03 E2=     -0.8646315527D-03
     alpha-beta  T2 =       0.2436399950D-01 E2=     -0.4858750110D-01
     beta-beta   T2 =       0.4279928016D-03 E2=     -0.8646315527D-03
 ANorm=    0.1012531474D+01
 E2 =    -0.5031676420D-01 EUMP2 =    -0.51855167238719D+01
 (S**2,0)=  0.10003D+01           (S**2,1)=  0.99996D+00
 E(PUHF)=      -0.51354651373D+01        E(PMP2)=      -0.51857818518D+01
 Second order stability test of a single determinant UHF wave function:
 Stabil:  MDV=134217728
 ***********************************************************************
 Matrix         Lowest Root    Major Pairs
 ***********************************************************************
 Internal UHF     0.1442182    Stable
 RUHF --> CUHF (A)0.3072154    Stable
 RUHF --> CUHF (B)0.3072154    Stable
 RUHF --> GHF     0.           Zero root
 Stable under the perturbations considered.
 ***********************************************************************

 **********************************************************************

            Population analysis using the SCF density.

 **********************************************************************

 Orbital symmetries:
 Alpha Orbitals:
       Occupied  (BG) (BG) (BG) (BG) (BG)
       Virtual   (BG) (BG) (BG) (BG) (BG)
 Beta  Orbitals:
       Occupied  (BG) (BG) (BG) (BG) (BG)
       Virtual   (BG) (BG) (BG) (BG) (BG)
 Unable to determine electronic state:  partially filled degenerate orbitals.
 Alpha  occ. eigenvalues --   -0.75519  -0.69857  -0.60439  -0.48608  -0.38711
 Alpha virt. eigenvalues --    0.19039   0.21668   0.31980   0.48142   0.64413
  Beta  occ. eigenvalues --   -0.75519  -0.69857  -0.60439  -0.48608  -0.38711
  Beta virt. eigenvalues --    0.19039   0.21668   0.31980   0.48142   0.64413
          Condensed to atoms (all electrons):
               1          2          3          4          5          6
     1  H    0.756039  -0.094385  -0.112199   0.537016   0.004430  -0.087984
     2  H   -0.094385   1.197701   0.000651  -0.082862   0.000062   0.003175
     3  H   -0.112199   0.000651   0.805031  -0.087331  -0.117249   0.590693
     4  H    0.537016  -0.082862  -0.087331   0.707412   0.002468  -0.104239
     5  H    0.004430   0.000062  -0.117249   0.002468   0.804509  -0.099679
     6  H   -0.087984   0.003175   0.590693  -0.104239  -0.099679   0.804509
     7  H   -0.000061  -0.000003   0.003736   0.000013  -0.104239   0.002468
     8  H    0.004133  -0.000017  -0.090988   0.003736   0.590693  -0.117249
     9  H   -0.000002   0.000000  -0.000017  -0.000003   0.003175   0.000062
    10  H   -0.000100  -0.000002   0.004133  -0.000061  -0.087984   0.004430
               7          8          9         10
     1  H   -0.000061   0.004133  -0.000002  -0.000100
     2  H   -0.000003  -0.000017   0.000000  -0.000002
     3  H    0.003736  -0.090988  -0.000017   0.004133
     4  H    0.000013   0.003736  -0.000003  -0.000061
     5  H   -0.104239   0.590693   0.003175  -0.087984
     6  H    0.002468  -0.117249   0.000062   0.004430
     7  H    0.707412  -0.087331  -0.082862   0.537016
     8  H   -0.087331   0.805031   0.000651  -0.112199
     9  H   -0.082862   0.000651   1.197701  -0.094385
    10  H    0.537016  -0.112199  -0.094385   0.756039
          Atomic-Atomic Spin Densities.
               1          2          3          4          5          6
     1  H   -0.107418   0.118962   0.007130  -0.058150  -0.000337   0.011502
     2  H    0.118962  -1.187300  -0.005220   0.105883   0.000167  -0.007073
     3  H    0.007130  -0.005220   0.017280   0.003922  -0.004021  -0.005809
     4  H   -0.058150   0.105883   0.003922  -0.052266  -0.000265   0.012116
     5  H   -0.000337   0.000167  -0.004021  -0.000265   0.035218  -0.000000
     6  H    0.011502  -0.007073  -0.005809   0.012116  -0.000000  -0.035218
     7  H   -0.000005  -0.000002   0.000531  -0.000000  -0.012116   0.000265
     8  H   -0.000526   0.000211  -0.000000  -0.000531   0.005809   0.004021
     9  H    0.000005  -0.000000  -0.000211   0.000002   0.007073  -0.000167
    10  H    0.000000  -0.000005   0.000526   0.000005  -0.011502   0.000337
               7          8          9         10
     1  H   -0.000005  -0.000526   0.000005   0.000000
     2  H   -0.000002   0.000211  -0.000000  -0.000005
     3  H    0.000531  -0.000000  -0.000211   0.000526
     4  H   -0.000000  -0.000531   0.000002   0.000005
     5  H   -0.012116   0.005809   0.007073  -0.011502
     6  H    0.000265   0.004021  -0.000167   0.000337
     7  H    0.052266  -0.003922  -0.105883   0.058150
     8  H   -0.003922  -0.017280   0.005220  -0.007130
     9  H   -0.105883   0.005220   1.187300  -0.118962
    10  H    0.058150  -0.007130  -0.118962   0.107418
 Mulliken charges and spin densities:
               1          2
     1  H   -0.006887  -0.028837
     2  H   -0.024320  -0.974378
     3  H    0.003540   0.014129
     4  H    0.023852   0.010716
     5  H    0.003815   0.020027
     6  H    0.003815  -0.020027
     7  H    0.023852  -0.010716
     8  H    0.003540  -0.014129
     9  H   -0.024320   0.974378
    10  H   -0.006887   0.028837
 Sum of Mulliken charges =  -0.00000  -0.00000
 Mulliken charges and spin densities with hydrogens summed into heavy atoms:
               1          2
 Electronic spatial extent (au):  <R**2>=            226.2876
 Charge=             -0.0000 electrons
 Dipole moment (field-independent basis, Debye):
    X=             -0.0000    Y=              0.0000    Z=              0.0000  Tot=              0.0000
 Quadrupole moment (field-independent basis, Debye-Ang):
   XX=            -12.7162   YY=            -19.8538   ZZ=            -12.7598
   XY=              3.8588   XZ=             -0.0000   YZ=              0.0000
 Traceless Quadrupole moment (field-independent basis, Debye-Ang):
   XX=              2.3937   YY=             -4.7438   ZZ=              2.3501
   XY=              3.8588   XZ=             -0.0000   YZ=              0.0000
 Octapole moment (field-independent basis, Debye-Ang**2):
  XXX=             -0.0000  YYY=              0.0000  ZZZ=              0.0000  XYY=             -0.0000
  XXY=              0.0000  XXZ=              0.0000  XZZ=             -0.0000  YZZ=              0.0000
  YYZ=              0.0000  XYZ=             -0.0000
 Hexadecapole moment (field-independent basis, Debye-Ang**3):
 XXXX=            -99.2887 YYYY=           -484.1602 ZZZZ=            -15.3132 XXXY=             87.1074
 XXXZ=             -0.0000 YYYX=            137.9764 YYYZ=              0.0000 ZZZX=             -0.0000
 ZZZY=              0.0000 XXYY=            -98.3232 XXZZ=            -19.4712 YYZZ=            -62.6490
 XXYZ=              0.0000 YYXZ=             -0.0000 ZZXY=             27.3670
 N-N= 1.140731335484D+01 E-N=-3.251863197677D+01  KE= 5.296276005055D+00
 Symmetry AG   KE= 2.277711542535D+00
 Symmetry BG   KE= 0.000000000000D+00
 Symmetry AU   KE= 0.000000000000D+00
 Symmetry BU   KE= 3.018564462520D+00
                          Isotropic Fermi Contact Couplings
        Atom                 a.u.       MegaHertz       Gauss      10(-4) cm-1
     1  H(1)              -0.03244     -72.51221     -25.87416     -24.18747
     2  H(1)              -0.35058    -783.51808    -279.57873    -261.35350
     3  H(1)               0.00450      10.04723       3.58510       3.35140
     4  H(1)              -0.01695     -37.89278     -13.52109     -12.63967
     5  H(1)               0.00984      21.99463       7.84823       7.33662
     6  H(1)              -0.00984     -21.99463      -7.84823      -7.33662
     7  H(1)               0.01695      37.89278      13.52109      12.63967
     8  H(1)              -0.00450     -10.04723      -3.58510      -3.35140
     9  H(1)               0.35058     783.51808     279.57873     261.35350
    10  H(1)               0.03244      72.51221      25.87416      24.18747
 --------------------------------------------------------
       Center         ----  Spin Dipole Couplings  ----
                      3XX-RR        3YY-RR        3ZZ-RR
 --------------------------------------------------------
     1   Atom        0.008459     -0.037090      0.028631
     2   Atom       -0.005864      0.015907     -0.010043
     3   Atom       -0.002091     -0.007009      0.009100
     4   Atom       -0.011266     -0.023107      0.034373
     5   Atom       -0.001008      0.003081     -0.002073
     6   Atom        0.001008     -0.003081      0.002073
     7   Atom        0.011266      0.023107     -0.034373
     8   Atom        0.002091      0.007009     -0.009100
     9   Atom        0.005864     -0.015907      0.010043
    10   Atom       -0.008459      0.037090     -0.028631
 --------------------------------------------------------
                        XY            XZ            YZ
 --------------------------------------------------------
     1   Atom       -0.000680      0.000000     -0.000000
     2   Atom       -0.006620      0.000000      0.000000
     3   Atom        0.002366      0.000000     -0.000000
     4   Atom        0.014676     -0.000000     -0.000000
     5   Atom       -0.006692      0.000000     -0.000000
     6   Atom        0.006692      0.000000     -0.000000
     7   Atom       -0.014676     -0.000000     -0.000000
     8   Atom       -0.002366      0.000000     -0.000000
     9   Atom        0.006620     -0.000000      0.000000
    10   Atom        0.000680     -0.000000     -0.000000
 --------------------------------------------------------


 ---------------------------------------------------------------------------------
              Anisotropic Spin Dipole Couplings in Principal Axis System
 ---------------------------------------------------------------------------------

       Atom             a.u.   MegaHertz   Gauss  10(-4) cm-1        Axes

              Baa    -0.0371   -19.795    -7.063    -6.603  0.0149  0.9999  0.0000
     1 H(1)   Bbb     0.0085     4.519     1.612     1.507  0.9999 -0.0149  0.0000
              Bcc     0.0286    15.276     5.451     5.096  0.0000  0.0000  1.0000
 
              Baa    -0.0100    -5.359    -1.912    -1.787  0.0000  0.0000  1.0000
     2 H(1)   Bbb    -0.0077    -4.118    -1.470    -1.374  0.9629  0.2698  0.0000
              Bcc     0.0178     9.477     3.382     3.161 -0.2698  0.9629  0.0000
 
              Baa    -0.0080    -4.248    -1.516    -1.417 -0.3737  0.9275  0.0000
     3 H(1)   Bbb    -0.0011    -0.607    -0.217    -0.202  0.9275  0.3737  0.0000
              Bcc     0.0091     4.855     1.732     1.620  0.0000  0.0000  1.0000
 
              Baa    -0.0330   -17.614    -6.285    -5.875 -0.5594  0.8289  0.0000
     4 H(1)   Bbb    -0.0014    -0.726    -0.259    -0.242  0.8289  0.5594 -0.0000
              Bcc     0.0344    18.340     6.544     6.118  0.0000  0.0000  1.0000
 
              Baa    -0.0060    -3.181    -1.135    -1.061  0.8038  0.5949  0.0000
     5 H(1)   Bbb    -0.0021    -1.106    -0.395    -0.369  0.0000  0.0000  1.0000
              Bcc     0.0080     4.287     1.530     1.430 -0.5949  0.8038  0.0000
 
              Baa    -0.0080    -4.287    -1.530    -1.430 -0.5949  0.8038  0.0000
     6 H(1)   Bbb     0.0021     1.106     0.395     0.369  0.0000  0.0000  1.0000
              Bcc     0.0060     3.181     1.135     1.061  0.8038  0.5949  0.0000
 
              Baa    -0.0344   -18.340    -6.544    -6.118  0.0000  0.0000  1.0000
     7 H(1)   Bbb     0.0014     0.726     0.259     0.242  0.8289  0.5594  0.0000
              Bcc     0.0330    17.614     6.285     5.875 -0.5594  0.8289 -0.0000
 
              Baa    -0.0091    -4.855    -1.732    -1.620  0.0000  0.0000  1.0000
     8 H(1)   Bbb     0.0011     0.607     0.217     0.202  0.9275  0.3737  0.0000
              Bcc     0.0080     4.248     1.516     1.417 -0.3737  0.9275  0.0000
 
              Baa    -0.0178    -9.477    -3.382    -3.161 -0.2698  0.9629  0.0000
     9 H(1)   Bbb     0.0077     4.118     1.470     1.374  0.9629  0.2698  0.0000
              Bcc     0.0100     5.359     1.912     1.787  0.0000  0.0000  1.0000
 
              Baa    -0.0286   -15.276    -5.451    -5.096  0.0000  0.0000  1.0000
    10 H(1)   Bbb    -0.0085    -4.519    -1.612    -1.507  0.9999 -0.0149  0.0000
              Bcc     0.0371    19.795     7.063     6.603  0.0149  0.9999 -0.0000
 

 ---------------------------------------------------------------------------------


 Test job not archived.
 1\1\GINC-SULU\Stability\UHF\Gen\H10\LCJ1\23-Feb-2017\0\\#uhf/gen scf(t
 ight,novaracc,noincfock,fulldiag) stable(crhf) guess=read geom=nocrowd
  test\\hf stability analysis of h10 triangular lattice, y= 0.385017347
 76310242 alpha= 14.400000000000000\\0,1\H\H,1,1.5481825243\H,1,1.54818
 25243,2,151.2\H,2,1.5481825243,1,28.8,3,0.,0\H,3,1.5481825243,1,180.,2
 ,0.,0\H,4,1.5481825243,2,180.,1,0.,0\H,5,1.5481825243,3,180.,2,0.,0\H,
 6,1.5481825243,4,180.,1,0.,0\H,7,1.5481825243,5,180.,2,0.,0\H,8,1.5481
 825243,6,180.,1,0.,0\\Version=ES64L-G09RevE.01\HF=-5.1352\MP2=-5.18551
 67\PUHF=-5.1354651\PMP2-0=-5.1857819\S2=1.000335\S2-1=0.999959\S2A=0.0
 04851\RMSD=1.684e-09\Dipole=0.,0.,0.\Quadrupole=1.7796769,1.7472595,-3
 .5269364,0.,2.868907,0.\PG=C02H [SGH(H10)]\\@


 IN SO FAR AS QUANTUM MECHANICS IS CORRECT, CHEMICAL 
 QUESTIONS ARE PROBLEMS IN APPLIED MATHEMATICS.

                    -- EYRING, WALTER, & KIMBALL, 1944
 Job cpu time:       0 days  0 hours  0 minutes  1.1 seconds.
 File lengths (MBytes):  RWF=     94 Int=      0 D2E=      0 Chk=      2 Scr=      2
 Normal termination of Gaussian 09 at Thu Feb 23 17:01:16 2017.
