 Entering Gaussian System, Link 0=g09
 AtFile(1): H.gbs
            H     0
            S   10   1.00
               1000.000000000000            0.000068713567
                316.227766000000            0.000169141320
                100.000000000000            0.000823394812
                 31.622776600000            0.003425569236
                 10.000000000000            0.013951996000
                  3.162277660000            0.056909313560
                  1.000000000000            0.198286399900
                  0.316227766000            0.496922426700
                  0.100000000000            0.369846276400
                  0.031622776600            0.003752720039
            ****
 Initial command:
 /projects/guscus/apps/gau/g09-e1/g09/l1.exe "/users/lcj1/gaussian/h10/rhfstability/2rows/zmat/guessfrommix/alpha25/finermesh/Gau-9794.inp" -scrdir="/users/lcj1/gaussian/h10/rhfstability/2rows/zmat/guessfrommix/alpha25/finermesh/"
 Entering Link 1 = /projects/guscus/apps/gau/g09-e1/g09/l1.exe PID=      9795.
  
 Copyright (c) 1988,1990,1992,1993,1995,1998,2003,2009,2015,
            Gaussian, Inc.  All Rights Reserved.
  
 This is part of the Gaussian(R) 09 program.  It is based on
 the Gaussian(R) 03 system (copyright 2003, Gaussian, Inc.),
 the Gaussian(R) 98 system (copyright 1998, Gaussian, Inc.),
 the Gaussian(R) 94 system (copyright 1995, Gaussian, Inc.),
 the Gaussian 92(TM) system (copyright 1992, Gaussian, Inc.),
 the Gaussian 90(TM) system (copyright 1990, Gaussian, Inc.),
 the Gaussian 88(TM) system (copyright 1988, Gaussian, Inc.),
 the Gaussian 86(TM) system (copyright 1986, Carnegie Mellon
 University), and the Gaussian 82(TM) system (copyright 1983,
 Carnegie Mellon University). Gaussian is a federally registered
 trademark of Gaussian, Inc.
  
 This software contains proprietary and confidential information,
 including trade secrets, belonging to Gaussian, Inc.
  
 This software is provided under written license and may be
 used, copied, transmitted, or stored only in accord with that
 written license.
  
 The following legend is applicable only to US Government
 contracts under FAR:
  
                    RESTRICTED RIGHTS LEGEND
  
 Use, reproduction and disclosure by the US Government is
 subject to restrictions as set forth in subparagraphs (a)
 and (c) of the Commercial Computer Software - Restricted
 Rights clause in FAR 52.227-19.
  
 Gaussian, Inc.
 340 Quinnipiac St., Bldg. 40, Wallingford CT 06492
  
  
 ---------------------------------------------------------------
 Warning -- This program may not be used in any manner that
 competes with the business of Gaussian, Inc. or will provide
 assistance to any competitor of Gaussian, Inc.  The licensee
 of this program is prohibited from giving any competitor of
 Gaussian, Inc. access to this program.  By using this program,
 the user acknowledges that Gaussian, Inc. is engaged in the
 business of creating and licensing software in the field of
 computational chemistry and represents and warrants to the
 licensee that it is not a competitor of Gaussian, Inc. and that
 it will not use this program in any manner prohibited above.
 ---------------------------------------------------------------
  

 Cite this work as:
 Gaussian 09, Revision E.01,
 M. J. Frisch, G. W. Trucks, H. B. Schlegel, G. E. Scuseria, 
 M. A. Robb, J. R. Cheeseman, G. Scalmani, V. Barone, B. Mennucci, 
 G. A. Petersson, H. Nakatsuji, M. Caricato, X. Li, H. P. Hratchian, 
 A. F. Izmaylov, J. Bloino, G. Zheng, J. L. Sonnenberg, M. Hada, 
 M. Ehara, K. Toyota, R. Fukuda, J. Hasegawa, M. Ishida, T. Nakajima, 
 Y. Honda, O. Kitao, H. Nakai, T. Vreven, J. A. Montgomery, Jr., 
 J. E. Peralta, F. Ogliaro, M. Bearpark, J. J. Heyd, E. Brothers, 
 K. N. Kudin, V. N. Staroverov, T. Keith, R. Kobayashi, J. Normand, 
 K. Raghavachari, A. Rendell, J. C. Burant, S. S. Iyengar, J. Tomasi, 
 M. Cossi, N. Rega, J. M. Millam, M. Klene, J. E. Knox, J. B. Cross, 
 V. Bakken, C. Adamo, J. Jaramillo, R. Gomperts, R. E. Stratmann, 
 O. Yazyev, A. J. Austin, R. Cammi, C. Pomelli, J. W. Ochterski, 
 R. L. Martin, K. Morokuma, V. G. Zakrzewski, G. A. Voth, 
 P. Salvador, J. J. Dannenberg, S. Dapprich, A. D. Daniels, 
 O. Farkas, J. B. Foresman, J. V. Ortiz, J. Cioslowski, 
 and D. J. Fox, Gaussian, Inc., Wallingford CT, 2013.
 
 ******************************************
 Gaussian 09:  ES64L-G09RevE.01 30-Nov-2015
                21-Feb-2017 
 ******************************************
 %chk=h10.chk
 ----------------------------------------------------------------------
 #rhf/gen scf(symm,tight,novaracc,noincfock,fulldiag) stable(crhf) gues
 s=read geom=nocrowd test
 ----------------------------------------------------------------------
 1/38=1/1;
 2/12=1,17=6,18=5,40=1/2;
 3/5=7,16=1,25=1,30=1,116=1/1,2,3;
 4/5=1,9=4/1;
 5/5=100002,15=2,16=1,32=2,38=6/2;
 8/6=1,10=90,11=11/1,4;
 9/8=4,13=1/2;
 6/7=2,8=2,9=2,10=2,28=1/1;
 99/5=1,9=1/99;
 ----------------------------------------------------------------------
 hf stability analysis of h10 triangular lattice, y= 0.8683169678758470
 0
 ----------------------------------------------------------------------
 Symbolic Z-matrix:
 Charge =  0 Multiplicity = 1
 H
 H                    1     1.09365 
 H                    1     1.09365  2     74.88564 
 H                    2     1.09365  1     105.11436  3     0.       0
 H                    3     1.09365  1     180.     2     0.       0
 H                    4     1.09365  2     180.     1     0.       0
 H                    5     1.09365  3     180.     2     0.       0
 H                    6     1.09365  4     180.     1     0.       0
 H                    7     1.09365  5     180.     2     0.       0
 H                    8     1.09365  6     180.     1     0.       0
 
                          Input orientation:                          
 ---------------------------------------------------------------------
 Center     Atomic      Atomic             Coordinates (Angstroms)
 Number     Number       Type             X           Y           Z
 ---------------------------------------------------------------------
      1          1           0        0.000000    0.000000    0.000000
      2          1           0        0.000000    0.000000    1.093653
      3          1           0        1.055820    0.000000    0.285166
      4          1           0        1.055820    0.000000    1.378819
      5          1           0        2.111640    0.000000    0.570332
      6          1           0        2.111640    0.000000    1.663985
      7          1           0        3.167461    0.000000    0.855498
      8          1           0        3.167461    0.000000    1.949151
      9          1           0        4.223281    0.000000    1.140664
     10          1           0        4.223281    0.000000    2.234317
 ---------------------------------------------------------------------
                    Distance matrix (angstroms):
                    1          2          3          4          5
     1  H    0.000000
     2  H    1.093653   0.000000
     3  H    1.093653   1.329815   0.000000
     4  H    1.736634   1.093653   1.093653   0.000000
     5  H    2.187305   2.175521   1.093653   1.329815   0.000000
     6  H    2.688470   2.187305   1.736634   1.093653   1.093653
     7  H    3.280958   3.176401   2.187305   2.175521   1.093653
     8  H    3.719139   3.280958   2.688470   2.187305   1.736634
     9  H    4.374610   4.223543   3.280958   3.176401   2.187305
    10  H    4.777894   4.374610   3.719139   3.280958   2.688470
                    6          7          8          9         10
     6  H    0.000000
     7  H    1.329815   0.000000
     8  H    1.093653   1.093653   0.000000
     9  H    2.175521   1.093653   1.329815   0.000000
    10  H    2.187305   1.736634   1.093653   1.093653   0.000000
 Stoichiometry    H10
 Framework group  C2H[SGH(H10)]
 Deg. of freedom     9
 Full point group                 C2H     NOp   4
 Largest Abelian subgroup         C2H     NOp   4
 Largest concise Abelian subgroup C2      NOp   2
                         Standard orientation:                         
 ---------------------------------------------------------------------
 Center     Atomic      Atomic             Coordinates (Angstroms)
 Number     Number       Type             X           Y           Z
 ---------------------------------------------------------------------
      1          1           0        2.111640    1.117158   -0.000000
      2          1           0        2.111640    0.023506   -0.000000
      3          1           0        1.055820    0.831992   -0.000000
      4          1           0        1.055820   -0.261660   -0.000000
      5          1           0        0.000000    0.546826   -0.000000
      6          1           0       -0.000000   -0.546826   -0.000000
      7          1           0       -1.055820    0.261660   -0.000000
      8          1           0       -1.055820   -0.831992   -0.000000
      9          1           0       -2.111640   -0.023506   -0.000000
     10          1           0       -2.111640   -1.117158   -0.000000
 ---------------------------------------------------------------------
 Rotational constants (GHZ):    181.6621802     20.7630347     18.6333415
 General basis read from cards:  (5D, 7F)
 There are     5 symmetry adapted cartesian basis functions of AG  symmetry.
 There are     0 symmetry adapted cartesian basis functions of BG  symmetry.
 There are     0 symmetry adapted cartesian basis functions of AU  symmetry.
 There are     5 symmetry adapted cartesian basis functions of BU  symmetry.
 There are     5 symmetry adapted basis functions of AG  symmetry.
 There are     0 symmetry adapted basis functions of BG  symmetry.
 There are     0 symmetry adapted basis functions of AU  symmetry.
 There are     5 symmetry adapted basis functions of BU  symmetry.
    10 basis functions,   100 primitive gaussians,    10 cartesian basis functions
     5 alpha electrons        5 beta electrons
       nuclear repulsion energy        13.6134977464 Hartrees.
 NAtoms=   10 NActive=   10 NUniq=    5 SFac= 4.00D+00 NAtFMM=   60 NAOKFM=F Big=F
 Integral buffers will be    131072 words long.
 Regular integral format.
 Two-electron integral symmetry is turned on.
 One-electron integrals computed using PRISM.
 NBasis=    10 RedAO= T EigKep=  1.38D-01  NBF=     5     0     0     5
 NBsUse=    10 1.00D-06 EigRej= -1.00D+00 NBFU=     5     0     0     5
 Initial guess from the checkpoint file:  "h10.chk"
 B after Tr=     0.000000    0.000000    0.000000
         Rot=    1.000000    0.000000    0.000000   -0.000000 Ang=  -0.00 deg.
 Initial guess orbital symmetries:
       Occupied  (AG) (BU) (AG) (BU) (BU)
       Virtual   (AG) (BU) (AG) (AG) (BU)
 Keep R1 ints in memory in symmetry-blocked form, NReq=879287.
 Requested convergence on RMS density matrix=1.00D-08 within 128 cycles.
 Requested convergence on MAX density matrix=1.00D-06.
 Requested convergence on             energy=1.00D-06.
 No special actions if energy rises.
 SCF Done:  E(RHF) =  -4.85361585764     A.U. after    3 cycles
            NFock=  3  Conv=0.57D-08     -V/T= 1.9347
 Range of M.O.s used for correlation:     1    10
 NBasis=    10 NAE=     5 NBE=     5 NFC=     0 NFV=     0
 NROrb=     10 NOA=     5 NOB=     5 NVA=     5 NVB=     5
 Semi-Direct transformation.
 ModeAB=           4 MOrb=             5 LenV=     134107176
 LASXX=         1030 LTotXX=        1030 LenRXX=        2480
 LTotAB=        1450 MaxLAS=        1500 LenRXY=           0
 NonZer=        3510 LenScr=      655360 LnRSAI=        1500
 LnScr1=      655360 LExtra=           0 Total=      1314700
 MaxDsk=          -1 SrtSym=           T ITran=            3
 JobTyp=0 Pass  1:  I=   1 to   5.
 (rs|ai) integrals will be sorted in core.
 Spin components of T(2) and E(2):
     alpha-alpha T2 =       0.6329347606D-02 E2=     -0.7795092328D-02
     alpha-beta  T2 =       0.7613338895D-01 E2=     -0.9829577116D-01
     beta-beta   T2 =       0.6329347606D-02 E2=     -0.7795092328D-02
 ANorm=    0.1043452004D+01
 E2 =    -0.1138859558D+00 EUMP2 =    -0.49675018134514D+01
 Second order stability test of a single determinant RHF wave function:
 Stabil:  MDV=134217728
 ***********************************************************************
 Matrix         Lowest Root    Major Pairs
 ***********************************************************************
 Internal RHF     0.0411054    Stable
 RRHF --> CRHF   -0.0163561    5A=6A
 RRHF --> RUHF   -0.1428223    5A=6B
 Not stable.
 ***********************************************************************

 **********************************************************************

            Population analysis using the SCF density.

 **********************************************************************

 Orbital symmetries:
       Occupied  (AG) (BU) (AG) (BU) (BU)
       Virtual   (AG) (BU) (AG) (AG) (BU)
 The electronic state is 1-AG.
 Alpha  occ. eigenvalues --   -0.85980  -0.73836  -0.54589  -0.39290  -0.29227
 Alpha virt. eigenvalues --   -0.02703   0.21593   0.30551   0.52842   0.81535
          Condensed to atoms (all electrons):
               1          2          3          4          5          6
     1  H    1.005714   0.414469  -0.106339  -0.193476  -0.054755  -0.015323
     2  H    0.414469   0.716360  -0.100370  -0.082739  -0.091764   0.016333
     3  H   -0.106339  -0.100370   0.844655   0.180357   0.344575  -0.151900
     4  H   -0.193476  -0.082739   0.180357   1.172111  -0.024658   0.217137
     5  H   -0.054755  -0.091764   0.344575  -0.024658   0.919464  -0.158748
     6  H   -0.015323   0.016333  -0.151900   0.217137  -0.158748   0.919464
     7  H    0.021300   0.002911  -0.030216  -0.167670   0.217137  -0.024658
     8  H    0.006592   0.015037  -0.062004  -0.030216  -0.151900   0.344575
     9  H   -0.000868  -0.001188   0.015037   0.002911   0.016333  -0.091764
    10  H   -0.001300  -0.000868   0.006592   0.021300  -0.015323  -0.054755
               7          8          9         10
     1  H    0.021300   0.006592  -0.000868  -0.001300
     2  H    0.002911   0.015037  -0.001188  -0.000868
     3  H   -0.030216  -0.062004   0.015037   0.006592
     4  H   -0.167670  -0.030216   0.002911   0.021300
     5  H    0.217137  -0.151900   0.016333  -0.015323
     6  H   -0.024658   0.344575  -0.091764  -0.054755
     7  H    1.172111   0.180357  -0.082739  -0.193476
     8  H    0.180357   0.844655  -0.100370  -0.106339
     9  H   -0.082739  -0.100370   0.716360   0.414469
    10  H   -0.193476  -0.106339   0.414469   1.005714
 Mulliken charges:
               1
     1  H   -0.076013
     2  H    0.111819
     3  H    0.059614
     4  H   -0.095058
     5  H   -0.000362
     6  H   -0.000362
     7  H   -0.095058
     8  H    0.059614
     9  H    0.111819
    10  H   -0.076013
 Sum of Mulliken charges =  -0.00000
 Mulliken charges with hydrogens summed into heavy atoms:
               1
 Electronic spatial extent (au):  <R**2>=            127.8135
 Charge=              0.0000 electrons
 Dipole moment (field-independent basis, Debye):
    X=              0.0000    Y=              0.0000    Z=             -0.0000  Tot=              0.0000
 Quadrupole moment (field-independent basis, Debye-Ang):
   XX=            -15.4356   YY=            -14.3653   ZZ=            -12.8502
   XY=             -1.7029   XZ=             -0.0000   YZ=             -0.0000
 Traceless Quadrupole moment (field-independent basis, Debye-Ang):
   XX=             -1.2186   YY=             -0.1483   ZZ=              1.3668
   XY=             -1.7029   XZ=             -0.0000   YZ=             -0.0000
 Octapole moment (field-independent basis, Debye-Ang**2):
  XXX=              0.0000  YYY=             -0.0000  ZZZ=              0.0000  XYY=             -0.0000
  XXY=             -0.0000  XXZ=              0.0000  XZZ=              0.0000  YZZ=             -0.0000
  YYZ=              0.0000  XYZ=              0.0000
 Hexadecapole moment (field-independent basis, Debye-Ang**3):
 XXXX=           -237.5636 YYYY=            -55.2883 ZZZZ=            -15.4324 XXXY=            -45.6660
 XXXZ=             -0.0000 YYYX=            -25.2510 YYYZ=             -0.0000 ZZZX=             -0.0000
 ZZZY=             -0.0000 XXYY=            -46.4726 XXZZ=            -35.8757 YYZZ=            -11.8349
 XXYZ=             -0.0000 YYXZ=             -0.0000 ZZXY=             -8.4902
 N-N= 1.361349774640D+01 E-N=-3.646833779412D+01  KE= 5.192545574523D+00
 Symmetry AG   KE= 1.508364912767D+00
 Symmetry BG   KE= 0.000000000000D+00
 Symmetry AU   KE= 0.000000000000D+00
 Symmetry BU   KE= 3.684180661756D+00

 Test job not archived.
 1\1\GINC-SULU\Stability\RHF\Gen\H10\LCJ1\21-Feb-2017\0\\#rhf/gen scf(s
 ymm,tight,novaracc,noincfock,fulldiag) stable(crhf) guess=read geom=no
 crowd test\\hf stability analysis of h10 triangular lattice, y= 0.8683
 1696787584700\\0,1\H\H,1,1.0936526146\H,1,1.0936526146,2,74.88564\H,2,
 1.0936526146,1,105.11436,3,0.,0\H,3,1.0936526146,1,180.,2,0.,0\H,4,1.0
 936526146,2,180.,1,0.,0\H,5,1.0936526146,3,180.,2,0.,0\H,6,1.093652614
 6,4,180.,1,0.,0\H,7,1.0936526146,5,180.,2,0.,0\H,8,1.0936526146,6,180.
 ,1,0.,0\\Version=ES64L-G09RevE.01\State=1-AG\HF=-4.8536159\MP2=-4.9675
 018\RMSD=5.659e-09\Dipole=0.,0.,0.\Quadrupole=-0.9059785,1.016203,-0.1
 102245,0.,-1.2660736,0.\PG=C02H [SGH(H10)]\\@


 ALL MY ATTEMPTS TO ADAPT THE THEORETICAL FOUNDATIONS OF PHYSICS
 TO THESE NEW NOTIONS FAILED COMPLETELY. IT WAS AS IF THE GROUND HAD
 BEEN PULLED OUT FROM UNDER ONE WITH NO FIRM FOUNDATION TO BE SEEN ANYWHERE,
 UPON WHICH ONE COULD HAVE BUILT.  -- A.EINSTEIN
 Job cpu time:       0 days  0 hours  0 minutes  0.8 seconds.
 File lengths (MBytes):  RWF=     84 Int=      0 D2E=      0 Chk=      2 Scr=      2
 Normal termination of Gaussian 09 at Tue Feb 21 09:38:15 2017.
