 Entering Gaussian System, Link 0=g09
 AtFile(1): H.gbs
            H     0
            S   10   1.00
               1000.000000000000            0.000068713567
                316.227766000000            0.000169141320
                100.000000000000            0.000823394812
                 31.622776600000            0.003425569236
                 10.000000000000            0.013951996000
                  3.162277660000            0.056909313560
                  1.000000000000            0.198286399900
                  0.316227766000            0.496922426700
                  0.100000000000            0.369846276400
                  0.031622776600            0.003752720039
            ****
 Initial command:
 /projects/guscus/apps/gau/g09-e1/g09/l1.exe "/users/lcj1/gaussian/h10/rhfstability/2rows/zmat/guessfrommix/alpha25/test/Gau-14736.inp" -scrdir="/users/lcj1/gaussian/h10/rhfstability/2rows/zmat/guessfrommix/alpha25/test/"
 Entering Link 1 = /projects/guscus/apps/gau/g09-e1/g09/l1.exe PID=     14737.
  
 Copyright (c) 1988,1990,1992,1993,1995,1998,2003,2009,2015,
            Gaussian, Inc.  All Rights Reserved.
  
 This is part of the Gaussian(R) 09 program.  It is based on
 the Gaussian(R) 03 system (copyright 2003, Gaussian, Inc.),
 the Gaussian(R) 98 system (copyright 1998, Gaussian, Inc.),
 the Gaussian(R) 94 system (copyright 1995, Gaussian, Inc.),
 the Gaussian 92(TM) system (copyright 1992, Gaussian, Inc.),
 the Gaussian 90(TM) system (copyright 1990, Gaussian, Inc.),
 the Gaussian 88(TM) system (copyright 1988, Gaussian, Inc.),
 the Gaussian 86(TM) system (copyright 1986, Carnegie Mellon
 University), and the Gaussian 82(TM) system (copyright 1983,
 Carnegie Mellon University). Gaussian is a federally registered
 trademark of Gaussian, Inc.
  
 This software contains proprietary and confidential information,
 including trade secrets, belonging to Gaussian, Inc.
  
 This software is provided under written license and may be
 used, copied, transmitted, or stored only in accord with that
 written license.
  
 The following legend is applicable only to US Government
 contracts under FAR:
  
                    RESTRICTED RIGHTS LEGEND
  
 Use, reproduction and disclosure by the US Government is
 subject to restrictions as set forth in subparagraphs (a)
 and (c) of the Commercial Computer Software - Restricted
 Rights clause in FAR 52.227-19.
  
 Gaussian, Inc.
 340 Quinnipiac St., Bldg. 40, Wallingford CT 06492
  
  
 ---------------------------------------------------------------
 Warning -- This program may not be used in any manner that
 competes with the business of Gaussian, Inc. or will provide
 assistance to any competitor of Gaussian, Inc.  The licensee
 of this program is prohibited from giving any competitor of
 Gaussian, Inc. access to this program.  By using this program,
 the user acknowledges that Gaussian, Inc. is engaged in the
 business of creating and licensing software in the field of
 computational chemistry and represents and warrants to the
 licensee that it is not a competitor of Gaussian, Inc. and that
 it will not use this program in any manner prohibited above.
 ---------------------------------------------------------------
  

 Cite this work as:
 Gaussian 09, Revision E.01,
 M. J. Frisch, G. W. Trucks, H. B. Schlegel, G. E. Scuseria, 
 M. A. Robb, J. R. Cheeseman, G. Scalmani, V. Barone, B. Mennucci, 
 G. A. Petersson, H. Nakatsuji, M. Caricato, X. Li, H. P. Hratchian, 
 A. F. Izmaylov, J. Bloino, G. Zheng, J. L. Sonnenberg, M. Hada, 
 M. Ehara, K. Toyota, R. Fukuda, J. Hasegawa, M. Ishida, T. Nakajima, 
 Y. Honda, O. Kitao, H. Nakai, T. Vreven, J. A. Montgomery, Jr., 
 J. E. Peralta, F. Ogliaro, M. Bearpark, J. J. Heyd, E. Brothers, 
 K. N. Kudin, V. N. Staroverov, T. Keith, R. Kobayashi, J. Normand, 
 K. Raghavachari, A. Rendell, J. C. Burant, S. S. Iyengar, J. Tomasi, 
 M. Cossi, N. Rega, J. M. Millam, M. Klene, J. E. Knox, J. B. Cross, 
 V. Bakken, C. Adamo, J. Jaramillo, R. Gomperts, R. E. Stratmann, 
 O. Yazyev, A. J. Austin, R. Cammi, C. Pomelli, J. W. Ochterski, 
 R. L. Martin, K. Morokuma, V. G. Zakrzewski, G. A. Voth, 
 P. Salvador, J. J. Dannenberg, S. Dapprich, A. D. Daniels, 
 O. Farkas, J. B. Foresman, J. V. Ortiz, J. Cioslowski, 
 and D. J. Fox, Gaussian, Inc., Wallingford CT, 2013.
 
 ******************************************
 Gaussian 09:  ES64L-G09RevE.01 30-Nov-2015
                20-Feb-2017 
 ******************************************
 %chk=h10.chk
 ----------------------------------------------------------------------
 #rhf/gen scf(symm,tight,novaracc,noincfock,fulldiag) stable(crhf) gues
 s=read geom=nocrowd test
 ----------------------------------------------------------------------
 1/38=1/1;
 2/12=1,17=6,18=5,40=1/2;
 3/5=7,16=1,25=1,30=1,116=1/1,2,3;
 4/5=1,9=4/1;
 5/5=100002,15=2,16=1,32=2,38=6/2;
 8/6=1,10=90,11=11/1,4;
 9/8=4,13=1/2;
 6/7=2,8=2,9=2,10=2,28=1/1;
 99/5=1,9=1/99;
 ----------------------------------------------------------------------
 hf stability analysis of h10 triangular lattice, y= 0.4240572948683262
 2
 ----------------------------------------------------------------------
 Symbolic Z-matrix:
 Charge =  0 Multiplicity = 1
 H
 H                    1     1.426 
 H                    1     1.426    2     145.4 
 H                    2     1.426    1     34.6     3     0.       0
 H                    3     1.426    1     180.     2     0.       0
 H                    4     1.426    2     180.     1     0.       0
 H                    5     1.426    3     180.     2     0.       0
 H                    6     1.426    4     180.     1     0.       0
 H                    7     1.426    5     180.     2     0.       0
 H                    8     1.426    6     180.     1     0.       0
 
                          Input orientation:                          
 ---------------------------------------------------------------------
 Center     Atomic      Atomic             Coordinates (Angstroms)
 Number     Number       Type             X           Y           Z
 ---------------------------------------------------------------------
      1          1           0        0.000000    0.000000    0.000000
      2          1           0        0.000000    0.000000    1.426002
      3          1           0        0.809747    0.000000   -1.173794
      4          1           0        0.809747    0.000000    0.252208
      5          1           0        1.619493    0.000000   -2.347589
      6          1           0        1.619493    0.000000   -0.921586
      7          1           0        2.429240    0.000000   -3.521383
      8          1           0        2.429240    0.000000   -2.095381
      9          1           0        3.238986    0.000000   -4.695178
     10          1           0        3.238986    0.000000   -3.269175
 ---------------------------------------------------------------------
                    Distance matrix (angstroms):
                    1          2          3          4          5
     1  H    0.000000
     2  H    1.426002   0.000000
     3  H    1.426002   2.722982   0.000000
     4  H    0.848115   1.426002   1.426002   0.000000
     5  H    2.852005   4.106428   1.426002   2.722982   0.000000
     6  H    1.863352   2.852005   0.848115   1.426002   1.426002
     7  H    4.278007   5.511609   2.852005   4.106428   1.426002
     8  H    3.208088   4.278007   1.863352   2.852005   0.848115
     9  H    5.704010   6.925307   4.278007   5.511609   2.852005
    10  H    4.602015   5.704010   3.208088   4.278007   1.863352
                    6          7          8          9         10
     6  H    0.000000
     7  H    2.722982   0.000000
     8  H    1.426002   1.426002   0.000000
     9  H    4.106428   1.426002   2.722982   0.000000
    10  H    2.852005   0.848115   1.426002   1.426002   0.000000
 Stoichiometry    H10
 Framework group  C2H[SGH(H10)]
 Deg. of freedom     9
 Full point group                 C2H     NOp   4
 Largest Abelian subgroup         C2H     NOp   4
 Largest concise Abelian subgroup C2      NOp   2
                         Standard orientation:                         
 ---------------------------------------------------------------------
 Center     Atomic      Atomic             Coordinates (Angstroms)
 Number     Number       Type             X           Y           Z
 ---------------------------------------------------------------------
      1          1           0        1.619493   -1.634588    0.000000
      2          1           0        1.619493   -3.060590    0.000000
      3          1           0        0.809747   -0.460793    0.000000
      4          1           0        0.809747   -1.886796    0.000000
      5          1           0       -0.000000    0.713001    0.000000
      6          1           0       -0.000000   -0.713001   -0.000000
      7          1           0       -0.809747    1.886796    0.000000
      8          1           0       -0.809747    0.460793    0.000000
      9          1           0       -1.619493    3.060590    0.000000
     10          1           0       -1.619493    1.634588    0.000000
 ---------------------------------------------------------------------
 Rotational constants (GHZ):    332.8157073     11.3331744     10.9599614
 General basis read from cards:  (5D, 7F)
 There are     5 symmetry adapted cartesian basis functions of AG  symmetry.
 There are     0 symmetry adapted cartesian basis functions of BG  symmetry.
 There are     0 symmetry adapted cartesian basis functions of AU  symmetry.
 There are     5 symmetry adapted cartesian basis functions of BU  symmetry.
 There are     5 symmetry adapted basis functions of AG  symmetry.
 There are     0 symmetry adapted basis functions of BG  symmetry.
 There are     0 symmetry adapted basis functions of AU  symmetry.
 There are     5 symmetry adapted basis functions of BU  symmetry.
    10 basis functions,   100 primitive gaussians,    10 cartesian basis functions
     5 alpha electrons        5 beta electrons
       nuclear repulsion energy        11.8428257137 Hartrees.
 NAtoms=   10 NActive=   10 NUniq=    5 SFac= 4.00D+00 NAtFMM=   60 NAOKFM=F Big=F
 Integral buffers will be    131072 words long.
 Regular integral format.
 Two-electron integral symmetry is turned on.
 One-electron integrals computed using PRISM.
 NBasis=    10 RedAO= T EigKep=  1.80D-01  NBF=     5     0     0     5
 NBsUse=    10 1.00D-06 EigRej= -1.00D+00 NBFU=     5     0     0     5
 Initial guess from the checkpoint file:  "h10.chk"
 B after Tr=    -0.000000    0.000000   -0.000000
         Rot=    0.992859   -0.000000    0.000000    0.119298 Ang=  13.70 deg.
 Initial guess orbital symmetries:
       Occupied  (AG) (BU) (AG) (BU) (BU)
       Virtual   (AG) (AG) (BU) (BU) (AG)
 Keep R1 ints in memory in symmetry-blocked form, NReq=875801.
 Requested convergence on RMS density matrix=1.00D-08 within 128 cycles.
 Requested convergence on MAX density matrix=1.00D-06.
 Requested convergence on             energy=1.00D-06.
 No special actions if energy rises.
 SCF Done:  E(RHF) =  -4.73176205591     A.U. after   21 cycles
            NFock= 21  Conv=0.48D-08     -V/T= 1.8704
 Range of M.O.s used for correlation:     1    10
 NBasis=    10 NAE=     5 NBE=     5 NFC=     0 NFV=     0
 NROrb=     10 NOA=     5 NOB=     5 NVA=     5 NVB=     5

 **** Warning!!: The smallest alpha delta epsilon is  0.63987468D-01

 Semi-Direct transformation.
 ModeAB=           4 MOrb=             5 LenV=     134110774
 LASXX=         1030 LTotXX=        1030 LenRXX=        2480
 LTotAB=        1450 MaxLAS=        1500 LenRXY=           0
 NonZer=        3510 LenScr=      655360 LnRSAI=        1500
 LnScr1=      655360 LExtra=           0 Total=      1314700
 MaxDsk=          -1 SrtSym=           T ITran=            3
 JobTyp=0 Pass  1:  I=   1 to   5.
 (rs|ai) integrals will be sorted in core.
 Spin components of T(2) and E(2):
     alpha-alpha T2 =       0.1530650729D-02 E2=     -0.2036443818D-02
     alpha-beta  T2 =       0.2755941184D+01 E2=     -0.4281828855D+00
     beta-beta   T2 =       0.1530650729D-02 E2=     -0.2036443818D-02
 ANorm=    0.1938814711D+01
 E2 =    -0.4322557731D+00 EUMP2 =    -0.51640178290303D+01
 Second order stability test of a single determinant RHF wave function:
 Stabil:  MDV=134217728
 ***********************************************************************
 Matrix         Lowest Root    Major Pairs
 ***********************************************************************
 Internal RHF     0.0715506    Stable
 RRHF --> CRHF   -0.0363951    5A=6A
 RRHF --> RUHF   -0.4798177    5A=6B
 Not stable.
 ***********************************************************************

 **********************************************************************

            Population analysis using the SCF density.

 **********************************************************************

 Orbital symmetries:
       Occupied  (AG) (BU) (AG) (BU) (BU)
       Virtual   (AG) (BU) (AG) (BU) (AG)
 The electronic state is 1-AG.
 Alpha  occ. eigenvalues --   -0.77169  -0.70486  -0.57673  -0.41425  -0.10590
 Alpha virt. eigenvalues --   -0.04191   0.14108   0.25175   0.43390   0.62077
          Condensed to atoms (all electrons):
               1          2          3          4          5          6
     1  H    0.992523  -0.156996  -0.122287   0.462222   0.031696  -0.174433
     2  H   -0.156996   1.211220  -0.019198   0.014747  -0.004548   0.018994
     3  H   -0.122287  -0.019198   0.808071  -0.054497  -0.155512   0.587775
     4  H    0.462222   0.014747  -0.054497   0.565095   0.007770  -0.121911
     5  H    0.031696  -0.004548  -0.155512   0.007770   1.132207  -0.247962
     6  H   -0.174433   0.018994   0.587775  -0.121911  -0.247962   1.132207
     7  H   -0.000950   0.000183   0.000583  -0.000100  -0.121911   0.007770
     8  H    0.005841   0.000811  -0.100252   0.000583   0.587775  -0.155512
     9  H    0.000405  -0.000085   0.000811   0.000183   0.018994  -0.004548
    10  H   -0.002108   0.000405   0.005841  -0.000950  -0.174433   0.031696
               7          8          9         10
     1  H   -0.000950   0.005841   0.000405  -0.002108
     2  H    0.000183   0.000811  -0.000085   0.000405
     3  H    0.000583  -0.100252   0.000811   0.005841
     4  H   -0.000100   0.000583   0.000183  -0.000950
     5  H   -0.121911   0.587775   0.018994  -0.174433
     6  H    0.007770  -0.155512  -0.004548   0.031696
     7  H    0.565095  -0.054497   0.014747   0.462222
     8  H   -0.054497   0.808071  -0.019198  -0.122287
     9  H    0.014747  -0.019198   1.211220  -0.156996
    10  H    0.462222  -0.122287  -0.156996   0.992523
 Mulliken charges:
               1
     1  H   -0.035914
     2  H   -0.065534
     3  H    0.048664
     4  H    0.126860
     5  H   -0.074076
     6  H   -0.074076
     7  H    0.126860
     8  H    0.048664
     9  H   -0.065534
    10  H   -0.035914
 Sum of Mulliken charges =   0.00000
 Mulliken charges with hydrogens summed into heavy atoms:
               1
 Electronic spatial extent (au):  <R**2>=            198.2231
 Charge=              0.0000 electrons
 Dipole moment (field-independent basis, Debye):
    X=             -0.0000    Y=              0.0000    Z=              0.0000  Tot=              0.0000
 Quadrupole moment (field-independent basis, Debye-Ang):
   XX=            -14.1922   YY=            -19.9528   ZZ=            -12.7091
   XY=              4.8610   XZ=              0.0000   YZ=             -0.0000
 Traceless Quadrupole moment (field-independent basis, Debye-Ang):
   XX=              1.4258   YY=             -4.3348   ZZ=              2.9090
   XY=              4.8610   XZ=              0.0000   YZ=             -0.0000
 Octapole moment (field-independent basis, Debye-Ang**2):
  XXX=             -0.0000  YYY=              0.0000  ZZZ=             -0.0000  XYY=             -0.0000
  XXY=              0.0000  XXZ=             -0.0000  XZZ=             -0.0000  YZZ=             -0.0000
  YYZ=             -0.0000  XYZ=              0.0000
 Hexadecapole moment (field-independent basis, Debye-Ang**3):
 XXXX=           -122.8227 YYYY=           -384.0926 ZZZZ=            -15.2418 XXXY=             90.6330
 XXXZ=              0.0000 YYYX=            132.2742 YYYZ=             -0.0000 ZZZX=              0.0000
 ZZZY=             -0.0000 XXYY=            -94.5167 XXZZ=            -22.4216 YYZZ=            -49.9296
 XXYZ=             -0.0000 YYXZ=              0.0000 ZZXY=             26.1404
 N-N= 1.184282571374D+01 E-N=-3.343866806330D+01  KE= 5.436332390956D+00
 Symmetry AG   KE= 1.506289912255D+00
 Symmetry BG   KE= 0.000000000000D+00
 Symmetry AU   KE= 0.000000000000D+00
 Symmetry BU   KE= 3.930042478701D+00

 Test job not archived.
 1\1\GINC-SULU\Stability\RHF\Gen\H10\LCJ1\20-Feb-2017\0\\#rhf/gen scf(s
 ymm,tight,novaracc,noincfock,fulldiag) stable(crhf) guess=read geom=no
 crowd test\\hf stability analysis of h10 triangular lattice, y= 0.4240
 5729486832622\\0,1\H\H,1,1.4260023976\H,1,1.4260023976,2,145.4\H,2,1.4
 260023976,1,34.6,3,0.,0\H,3,1.4260023976,1,180.,2,0.,0\H,4,1.426002397
 6,2,180.,1,0.,0\H,5,1.4260023976,3,180.,2,0.,0\H,6,1.4260023976,4,180.
 ,1,0.,0\H,7,1.4260023976,5,180.,2,0.,0\H,8,1.4260023976,6,180.,1,0.,0\
 \Version=ES64L-G09RevE.01\State=1-AG\HF=-4.7317621\MP2=-5.1640178\RMSD
 =4.816e-09\Dipole=0.,0.,0.\Quadrupole=1.0600645,2.162745,-3.2228094,0.
 ,3.6140368,0.\PG=C02H [SGH(H10)]\\@



 WE LOSE BECAUSE WE WIN

 GAMBLERS,

 RECOLLECTING WHICH,

 TOSS THEIR DICE AGAIN....


                          EMILY DICKINSON  BOLTS OF MELODY NO. 533
 Job cpu time:       0 days  0 hours  0 minutes  0.7 seconds.
 File lengths (MBytes):  RWF=     84 Int=      0 D2E=      0 Chk=      2 Scr=      2
 Normal termination of Gaussian 09 at Mon Feb 20 15:26:27 2017.
