 Entering Gaussian System, Link 0=g09
 AtFile(1): H.gbs
            H     0
            S   10   1.00
               1000.000000000000            0.000068713567
                316.227766000000            0.000169141320
                100.000000000000            0.000823394812
                 31.622776600000            0.003425569236
                 10.000000000000            0.013951996000
                  3.162277660000            0.056909313560
                  1.000000000000            0.198286399900
                  0.316227766000            0.496922426700
                  0.100000000000            0.369846276400
                  0.031622776600            0.003752720039
            ****
 Initial command:
 /projects/guscus/apps/gau/g09-e1/g09/l1.exe "/users/lcj1/gaussian/h12/rhfstability/cross/guessfrommix/alpha20/Gau-23494.inp" -scrdir="/users/lcj1/gaussian/h12/rhfstability/cross/guessfrommix/alpha20/"
Error: hangup
   rax fffffffffffffffc, rbx 0000000000000001, rcx ffffffffffffffff
   rdx 0000000000000000, rsp 00007ffcf297fda0, rbp 00007ffcf297fe70
   rsi 00007ffcf297ff3c, rdi 0000000000005bc7, r8  000000329c7904a0
   r9  0000000000000080, r10 0000000000000000, r11 0000000000000246
   r12 00007ffcf297ff3c, r13 00000000000000c8, r14 0000000000000000
   r15 00007ffcf29867e0
  /lib64/libpthread.so.0() [0x329cc0f7e0]
  /lib64/libc.so.6(waitpid+0x1e) [0x329c4ac7be]
  /lib64/libc.so.6() [0x329c43e5c9]
  g09(gsyst_+0x49) [0x40daf9]
  g09(MAIN_+0x13b1) [0x40bf81]
  g09(main+0x3d) [0x40abbd]
  /lib64/libc.so.6(__libc_start_main+0xfd) [0x329c41ed1d]
  g09() [0x40aab9]
Error: hangup
   rax 0000000000000000, rbx 0000000000000001, rcx ffffffffffffffff
   rdx 0000000000000015, rsp 00007ffed3ce8178, rbp 00007ffed3ce85c0
   rsi 0000000008bd7d58, rdi 0000000000000004, r8  0000000000000000
   r9  0000000000000010, r10 00007ffed3ce7f00, r11 0000000000000246
   r12 0000000000000001, r13 0000000000000001, r14 00007ffed3ce8aa8
   r15 000000000078b7a0
  /lib64/libpthread.so.0() [0x329cc0f7e0]
  /lib64/libpthread.so.0(__close+0x10) [0x329cc0e870]
  /projects/guscus/apps/gau/g09-e1/g09/l1.exe(ntrclo_+0x2ef) [0x4c201f]
  /projects/guscus/apps/gau/g09-e1/g09/l1.exe(fclose_+0x52) [0x4b6232]
  /projects/guscus/apps/gau/g09-e1/g09/l1.exe(chain_+0x95e) [0x4d59be]
  /projects/guscus/apps/gau/g09-e1/g09/l1.exe(chainx_+0x8ed) [0x4b476d]
  /projects/guscus/apps/gau/g09-e1/g09/l1.exe(link1_+0x888) [0x412868]
  /projects/guscus/apps/gau/g09-e1/g09/l1.exe(MAIN_+0x6c) [0x411fbc]
  /projects/guscus/apps/gau/g09-e1/g09/l1.exe(main+0x3d) [0x411f3d]
  /lib64/libc.so.6(__libc_start_main+0xfd) [0x329c41ed1d]
  /projects/guscus/apps/gau/g09-e1/g09/l1.exe() [0x411e39]
 Entering Link 1 = /projects/guscus/apps/gau/g09-e1/g09/l1.exe PID=     23495.
  
 Copyright (c) 1988,1990,1992,1993,1995,1998,2003,2009,2015,
            Gaussian, Inc.  All Rights Reserved.
  
 This is part of the Gaussian(R) 09 program.  It is based on
 the Gaussian(R) 03 system (copyright 2003, Gaussian, Inc.),
 the Gaussian(R) 98 system (copyright 1998, Gaussian, Inc.),
 the Gaussian(R) 94 system (copyright 1995, Gaussian, Inc.),
 the Gaussian 92(TM) system (copyright 1992, Gaussian, Inc.),
 the Gaussian 90(TM) system (copyright 1990, Gaussian, Inc.),
 the Gaussian 88(TM) system (copyright 1988, Gaussian, Inc.),
 the Gaussian 86(TM) system (copyright 1986, Carnegie Mellon
 University), and the Gaussian 82(TM) system (copyright 1983,
 Carnegie Mellon University). Gaussian is a federally registered
 trademark of Gaussian, Inc.
  
 This software contains proprietary and confidential information,
 including trade secrets, belonging to Gaussian, Inc.
  
 This software is provided under written license and may be
 used, copied, transmitted, or stored only in accord with that
 written license.
  
 The following legend is applicable only to US Government
 contracts under FAR:
  
                    RESTRICTED RIGHTS LEGEND
  
 Use, reproduction and disclosure by the US Government is
 subject to restrictions as set forth in subparagraphs (a)
 and (c) of the Commercial Computer Software - Restricted
 Rights clause in FAR 52.227-19.
  
 Gaussian, Inc.
 340 Quinnipiac St., Bldg. 40, Wallingford CT 06492
  
  
 ---------------------------------------------------------------
 Warning -- This program may not be used in any manner that
 competes with the business of Gaussian, Inc. or will provide
 assistance to any competitor of Gaussian, Inc.  The licensee
 of this program is prohibited from giving any competitor of
 Gaussian, Inc. access to this program.  By using this program,
 the user acknowledges that Gaussian, Inc. is engaged in the
 business of creating and licensing software in the field of
 computational chemistry and represents and warrants to the
 licensee that it is not a competitor of Gaussian, Inc. and that
 it will not use this program in any manner prohibited above.
 ---------------------------------------------------------------
  

 Cite this work as:
 Gaussian 09, Revision E.01,
 M. J. Frisch, G. W. Trucks, H. B. Schlegel, G. E. Scuseria, 
 M. A. Robb, J. R. Cheeseman, G. Scalmani, V. Barone, B. Mennucci, 
 G. A. Petersson, H. Nakatsuji, M. Caricato, X. Li, H. P. Hratchian, 
 A. F. Izmaylov, J. Bloino, G. Zheng, J. L. Sonnenberg, M. Hada, 
 M. Ehara, K. Toyota, R. Fukuda, J. Hasegawa, M. Ishida, T. Nakajima, 
 Y. Honda, O. Kitao, H. Nakai, T. Vreven, J. A. Montgomery, Jr., 
 J. E. Peralta, F. Ogliaro, M. Bearpark, J. J. Heyd, E. Brothers, 
 K. N. Kudin, V. N. Staroverov, T. Keith, R. Kobayashi, J. Normand, 
 K. Raghavachari, A. Rendell, J. C. Burant, S. S. Iyengar, J. Tomasi, 
 M. Cossi, N. Rega, J. M. Millam, M. Klene, J. E. Knox, J. B. Cross, 
 V. Bakken, C. Adamo, J. Jaramillo, R. Gomperts, R. E. Stratmann, 
 O. Yazyev, A. J. Austin, R. Cammi, C. Pomelli, J. W. Ochterski, 
 R. L. Martin, K. Morokuma, V. G. Zakrzewski, G. A. Voth, 
 P. Salvador, J. J. Dannenberg, S. Dapprich, A. D. Daniels, 
 O. Farkas, J. B. Foresman, J. V. Ortiz, J. Cioslowski, 
 and D. J. Fox, Gaussian, Inc., Wallingford CT, 2013.
 
 ******************************************
 Gaussian 09:  ES64L-G09RevE.01 30-Nov-2015
                17-Feb-2017 
 ******************************************
 %chk=h12.chk
 ----------------------------------------------------------------------
 #rhf/gen scf(symm,tight,novaracc,noincfock,fulldiag) stable(crhf) gues
 s=read geom=nocrowd test
 ----------------------------------------------------------------------
 1/38=1/1;
 2/12=1,17=6,18=5,40=1/2;
 3/5=7,16=1,25=1,30=1,116=1/1,2,3;
 4/5=1,9=4/1;
 5/5=100002,15=2,16=1,32=2,38=6/2;
 8/6=1,10=90,11=11/1,4;
 9/8=4,13=1/2;
 6/7=2,8=2,9=2,10=2,28=1/1;
 99/5=1,9=1/99;
