 Entering Gaussian System, Link 0=g09
 AtFile(1): H.gbs
            H     0
            S   10   1.00
               1000.000000000000            0.000068713567
                316.227766000000            0.000169141320
                100.000000000000            0.000823394812
                 31.622776600000            0.003425569236
                 10.000000000000            0.013951996000
                  3.162277660000            0.056909313560
                  1.000000000000            0.198286399900
                  0.316227766000            0.496922426700
                  0.100000000000            0.369846276400
                  0.031622776600            0.003752720039
            ****
 Initial command:
 /projects/guscus/apps/gau/g09-e1/g09/l1.exe "/users/lcj1/gaussian/h10/rhfstability/3rows/zmatrix/fwd/Gau-6951.inp" -scrdir="/users/lcj1/gaussian/h10/rhfstability/3rows/zmatrix/fwd/"
 Entering Link 1 = /projects/guscus/apps/gau/g09-e1/g09/l1.exe PID=      6952.
  
 Copyright (c) 1988,1990,1992,1993,1995,1998,2003,2009,2015,
            Gaussian, Inc.  All Rights Reserved.
  
 This is part of the Gaussian(R) 09 program.  It is based on
 the Gaussian(R) 03 system (copyright 2003, Gaussian, Inc.),
 the Gaussian(R) 98 system (copyright 1998, Gaussian, Inc.),
 the Gaussian(R) 94 system (copyright 1995, Gaussian, Inc.),
 the Gaussian 92(TM) system (copyright 1992, Gaussian, Inc.),
 the Gaussian 90(TM) system (copyright 1990, Gaussian, Inc.),
 the Gaussian 88(TM) system (copyright 1988, Gaussian, Inc.),
 the Gaussian 86(TM) system (copyright 1986, Carnegie Mellon
 University), and the Gaussian 82(TM) system (copyright 1983,
 Carnegie Mellon University). Gaussian is a federally registered
 trademark of Gaussian, Inc.
  
 This software contains proprietary and confidential information,
 including trade secrets, belonging to Gaussian, Inc.
  
 This software is provided under written license and may be
 used, copied, transmitted, or stored only in accord with that
 written license.
  
 The following legend is applicable only to US Government
 contracts under FAR:
  
                    RESTRICTED RIGHTS LEGEND
  
 Use, reproduction and disclosure by the US Government is
 subject to restrictions as set forth in subparagraphs (a)
 and (c) of the Commercial Computer Software - Restricted
 Rights clause in FAR 52.227-19.
  
 Gaussian, Inc.
 340 Quinnipiac St., Bldg. 40, Wallingford CT 06492
  
  
 ---------------------------------------------------------------
 Warning -- This program may not be used in any manner that
 competes with the business of Gaussian, Inc. or will provide
 assistance to any competitor of Gaussian, Inc.  The licensee
 of this program is prohibited from giving any competitor of
 Gaussian, Inc. access to this program.  By using this program,
 the user acknowledges that Gaussian, Inc. is engaged in the
 business of creating and licensing software in the field of
 computational chemistry and represents and warrants to the
 licensee that it is not a competitor of Gaussian, Inc. and that
 it will not use this program in any manner prohibited above.
 ---------------------------------------------------------------
  

 Cite this work as:
 Gaussian 09, Revision E.01,
 M. J. Frisch, G. W. Trucks, H. B. Schlegel, G. E. Scuseria, 
 M. A. Robb, J. R. Cheeseman, G. Scalmani, V. Barone, B. Mennucci, 
 G. A. Petersson, H. Nakatsuji, M. Caricato, X. Li, H. P. Hratchian, 
 A. F. Izmaylov, J. Bloino, G. Zheng, J. L. Sonnenberg, M. Hada, 
 M. Ehara, K. Toyota, R. Fukuda, J. Hasegawa, M. Ishida, T. Nakajima, 
 Y. Honda, O. Kitao, H. Nakai, T. Vreven, J. A. Montgomery, Jr., 
 J. E. Peralta, F. Ogliaro, M. Bearpark, J. J. Heyd, E. Brothers, 
 K. N. Kudin, V. N. Staroverov, T. Keith, R. Kobayashi, J. Normand, 
 K. Raghavachari, A. Rendell, J. C. Burant, S. S. Iyengar, J. Tomasi, 
 M. Cossi, N. Rega, J. M. Millam, M. Klene, J. E. Knox, J. B. Cross, 
 V. Bakken, C. Adamo, J. Jaramillo, R. Gomperts, R. E. Stratmann, 
 O. Yazyev, A. J. Austin, R. Cammi, C. Pomelli, J. W. Ochterski, 
 R. L. Martin, K. Morokuma, V. G. Zakrzewski, G. A. Voth, 
 P. Salvador, J. J. Dannenberg, S. Dapprich, A. D. Daniels, 
 O. Farkas, J. B. Foresman, J. V. Ortiz, J. Cioslowski, 
 and D. J. Fox, Gaussian, Inc., Wallingford CT, 2013.
 
 ******************************************
 Gaussian 09:  ES64L-G09RevE.01 30-Nov-2015
                 9-Feb-2017 
 ******************************************
 %chk=h10.chk
 ----------------------------------------------------------------------
 #rhf/gen scf(symm,tight,novaracc,noincfock,fulldiag) stable(crhf) geom
 =nocrowd test
 ----------------------------------------------------------------------
 1/38=1/1;
 2/12=1,17=6,18=5,40=1/2;
 3/5=7,16=1,25=1,30=1,116=1/1,2,3;
 4/9=4/1;
 5/5=100002,15=2,16=1,32=2,38=1/2;
 8/6=1,10=90,11=11/1,4;
 9/8=4,13=1/2;
 6/7=2,8=2,9=2,10=2,28=1/1;
 99/5=1,9=1/99;
 ----------------------------------------------------------------------
 hf stability analysis of h10 triangular lattice, y= 1.0486611910524275
 ----------------------------------------------------------------------
 Symbolic Z-matrix:
 Charge =  0 Multiplicity = 1
 H
 H                    1     1.1844 
 H                    1     1.1844   2     55.4 
 H                    2     1.1844   1     124.6    3     0.       0
 H                    3     1.1844   4     180.     1     0.       0
 H                    3     1.1844   1     180.     2     0.       0
 H                    3     1.10112  2     180.     1     0.       0
 H                    7     1.1844   6     180.     1     0.       0
 H                    7     1.1844   5     180.     2     0.       0
 H                    7     1.10112  3     180.     1     0.       0
 
                          Input orientation:                          
 ---------------------------------------------------------------------
 Center     Atomic      Atomic             Coordinates (Angstroms)
 Number     Number       Type             X           Y           Z
 ---------------------------------------------------------------------
      1          1           0        0.000000    0.000000    0.000000
      2          1           0        0.000000    0.000000    1.184401
      3          1           0        0.974924    0.000000    0.672555
      4          1           0        0.974924    0.000000    1.856956
      5          1           0        0.974924    0.000000   -0.511846
      6          1           0        1.949847    0.000000    1.345109
      7          1           0        1.949847    0.000000    0.160708
      8          1           0        1.949847    0.000000   -1.023693
      9          1           0        2.924771    0.000000    0.833263
     10          1           0        2.924771    0.000000   -0.351138
 ---------------------------------------------------------------------
                    Distance matrix (angstroms):
                    1          2          3          4          5
     1  H    0.000000
     2  H    1.184401   0.000000
     3  H    1.184401   1.101119   0.000000
     4  H    2.097322   1.184401   1.184401   0.000000
     5  H    1.101119   1.956459   1.184401   2.368802   0.000000
     6  H    2.368802   1.956459   1.184401   1.101119   2.097322
     7  H    1.956459   2.202238   1.101119   1.956459   1.184401
     8  H    2.202238   2.945774   1.956459   3.041153   1.101119
     9  H    3.041153   2.945774   1.956459   2.202238   2.368802
    10  H    2.945774   3.303356   2.202238   2.945774   1.956459
                    6          7          8          9         10
     6  H    0.000000
     7  H    1.184401   0.000000
     8  H    2.368802   1.184401   0.000000
     9  H    1.101119   1.184401   2.097322   0.000000
    10  H    1.956459   1.101119   1.184401   1.184401   0.000000
 Stoichiometry    H10
 Framework group  D2H[C2'(H.H),C2"(HH.HH),SG(H4)]
 Deg. of freedom     5
 Full point group                 D2H     NOp   8
 Largest Abelian subgroup         D2H     NOp   8
 Largest concise Abelian subgroup D2      NOp   4
                         Standard orientation:                         
 ---------------------------------------------------------------------
 Center     Atomic      Atomic             Coordinates (Angstroms)
 Number     Number       Type             X           Y           Z
 ---------------------------------------------------------------------
      1          1           0        0.000000    1.048661    1.101119
      2          1           0        0.000000    0.000000    1.651678
      3          1           0        0.000000    0.000000    0.550559
      4          1           0       -0.000000   -1.048661    1.101119
      5          1           0       -0.000000    1.048661    0.000000
      6          1           0       -0.000000   -1.048661    0.000000
      7          1           0        0.000000   -0.000000   -0.550559
      8          1           0        0.000000    1.048661   -1.101119
      9          1           0       -0.000000   -1.048661   -1.101119
     10          1           0        0.000000   -0.000000   -1.651678
 ---------------------------------------------------------------------
 Rotational constants (GHZ):     75.9994457     45.9537733     28.6377131
 General basis read from cards:  (5D, 7F)
 There are     4 symmetry adapted cartesian basis functions of AG  symmetry.
 There are     0 symmetry adapted cartesian basis functions of B1G symmetry.
 There are     0 symmetry adapted cartesian basis functions of B2G symmetry.
 There are     1 symmetry adapted cartesian basis functions of B3G symmetry.
 There are     0 symmetry adapted cartesian basis functions of AU  symmetry.
 There are     3 symmetry adapted cartesian basis functions of B1U symmetry.
 There are     2 symmetry adapted cartesian basis functions of B2U symmetry.
 There are     0 symmetry adapted cartesian basis functions of B3U symmetry.
 There are     4 symmetry adapted basis functions of AG  symmetry.
 There are     0 symmetry adapted basis functions of B1G symmetry.
 There are     0 symmetry adapted basis functions of B2G symmetry.
 There are     1 symmetry adapted basis functions of B3G symmetry.
 There are     0 symmetry adapted basis functions of AU  symmetry.
 There are     3 symmetry adapted basis functions of B1U symmetry.
 There are     2 symmetry adapted basis functions of B2U symmetry.
 There are     0 symmetry adapted basis functions of B3U symmetry.
    10 basis functions,   100 primitive gaussians,    10 cartesian basis functions
     5 alpha electrons        5 beta electrons
       nuclear repulsion energy        14.7277880897 Hartrees.
 NAtoms=   10 NActive=   10 NUniq=    4 SFac= 4.00D+00 NAtFMM=   60 NAOKFM=F Big=F
 Integral buffers will be    131072 words long.
 Regular integral format.
 Two-electron integral symmetry is turned on.
 One-electron integrals computed using PRISM.
 NBasis=    10 RedAO= T EigKep=  1.78D-01  NBF=     4     0     0     1     0     3     2     0
 NBsUse=    10 1.00D-06 EigRej= -1.00D+00 NBFU=     4     0     0     1     0     3     2     0
 ExpMin= 3.16D-02 ExpMax= 1.00D+03 ExpMxC= 1.00D+01 IAcc=3 IRadAn=         5 AccDes= 0.00D+00
 Harris functional with IExCor=  205 and IRadAn=       5 diagonalized for initial guess.
 HarFok:  IExCor=  205 AccDes= 0.00D+00 IRadAn=         5 IDoV= 1 UseB2=F ITyADJ=14
 ICtDFT=  3500011 ScaDFX=  1.000000  1.000000  1.000000  1.000000
 FoFCou: FMM=F IPFlag=           0 FMFlag=      100000 FMFlg1=           0
         NFxFlg=           0 DoJE=T BraDBF=F KetDBF=T FulRan=T
         wScrn=  0.000000 ICntrl=     500 IOpCl=  0 I1Cent=   200000004 NGrid=           0
         NMat0=    1 NMatS0=      1 NMatT0=    0 NMatD0=    1 NMtDS0=    0 NMtDT0=    0
 Petite list used in FoFCou.
 Initial guess orbital symmetries:
       Occupied  (AG) (B1U) (B2U) (AG) (B3G)
       Virtual   (AG) (B1U) (B2U) (B1U) (AG)
 The electronic state of the initial guess is 1-AG.
 Keep R1 ints in memory in symmetry-blocked form, NReq=881629.
 Requested convergence on RMS density matrix=1.00D-08 within 128 cycles.
 Requested convergence on MAX density matrix=1.00D-06.
 Requested convergence on             energy=1.00D-06.
 No special actions if energy rises.
 SCF Done:  E(RHF) =  -4.90099215032     A.U. after    9 cycles
            NFock=  9  Conv=0.22D-08     -V/T= 1.9573
 Range of M.O.s used for correlation:     1    10
 NBasis=    10 NAE=     5 NBE=     5 NFC=     0 NFV=     0
 NROrb=     10 NOA=     5 NOB=     5 NVA=     5 NVB=     5
 Semi-Direct transformation.
 ModeAB=           4 MOrb=             5 LenV=     134104348
 LASXX=         1030 LTotXX=        1030 LenRXX=        2480
 LTotAB=        1450 MaxLAS=        1000 LenRXY=           0
 NonZer=        3510 LenScr=      655360 LnRSAI=        1000
 LnScr1=      655360 LExtra=           0 Total=      1314200
 MaxDsk=          -1 SrtSym=           T ITran=            3
 JobTyp=0 Pass  1:  I=   1 to   5.
 (rs|ai) integrals will be sorted in core.
 Spin components of T(2) and E(2):
     alpha-alpha T2 =       0.5993396903D-02 E2=     -0.8246060127D-02
     alpha-beta  T2 =       0.6021105865D-01 E2=     -0.8908771350D-01
     beta-beta   T2 =       0.5993396903D-02 E2=     -0.8246060127D-02
 ANorm=    0.1035469870D+01
 E2 =    -0.1055798338D+00 EUMP2 =    -0.50065719840704D+01
 Second order stability test of a single determinant RHF wave function:
 Stabil:  MDV=134217728
 ***********************************************************************
 Matrix         Lowest Root    Major Pairs
 ***********************************************************************
 Internal RHF     0.1477353    Stable
 RRHF --> CRHF    0.1002799    Stable
 RRHF --> RUHF   -0.0091038    5A=6B
 Not stable.
 ***********************************************************************

 **********************************************************************

            Population analysis using the SCF density.

 **********************************************************************

 Orbital symmetries:
       Occupied  (AG) (B1U) (B2U) (AG) (B3G)
       Virtual   (AG) (B1U) (B2U) (B1U) (AG)
 The electronic state is 1-AG.
 Alpha  occ. eigenvalues --   -0.97185  -0.71642  -0.63303  -0.37122  -0.34274
 Alpha virt. eigenvalues --    0.04067   0.25088   0.30424   0.38609   0.63600
          Condensed to atoms (all electrons):
               1          2          3          4          5          6
     1  H    1.060966   0.213257   0.037658  -0.127650   0.052148  -0.053963
     2  H    0.213257   0.960860  -0.080152   0.213257  -0.109592  -0.109592
     3  H    0.037658  -0.080152   0.643034   0.037658   0.181536   0.181536
     4  H   -0.127650   0.213257   0.037658   1.060966  -0.053963   0.052148
     5  H    0.052148  -0.109592   0.181536  -0.053963   0.797716  -0.012895
     6  H   -0.053963  -0.109592   0.181536   0.052148  -0.012895   0.797716
     7  H   -0.054822  -0.090642   0.086805  -0.054822   0.181536   0.181536
     8  H   -0.100362   0.010539  -0.054822   0.033884   0.052148  -0.053963
     9  H    0.033884   0.010539  -0.054822  -0.100362  -0.053963   0.052148
    10  H    0.010539   0.025351  -0.090642   0.010539  -0.109592  -0.109592
               7          8          9         10
     1  H   -0.054822  -0.100362   0.033884   0.010539
     2  H   -0.090642   0.010539   0.010539   0.025351
     3  H    0.086805  -0.054822  -0.054822  -0.090642
     4  H   -0.054822   0.033884  -0.100362   0.010539
     5  H    0.181536   0.052148  -0.053963  -0.109592
     6  H    0.181536  -0.053963   0.052148  -0.109592
     7  H    0.643034   0.037658   0.037658  -0.080152
     8  H    0.037658   1.060966  -0.127650   0.213257
     9  H    0.037658  -0.127650   1.060966   0.213257
    10  H   -0.080152   0.213257   0.213257   0.960860
 Mulliken charges:
               1
     1  H   -0.071655
     2  H   -0.043823
     3  H    0.112210
     4  H   -0.071655
     5  H    0.074922
     6  H    0.074922
     7  H    0.112210
     8  H   -0.071655
     9  H   -0.071655
    10  H   -0.043823
 Sum of Mulliken charges =  -0.00000
 Mulliken charges with hydrogens summed into heavy atoms:
               1
 Electronic spatial extent (au):  <R**2>=             97.6096
 Charge=             -0.0000 electrons
 Dipole moment (field-independent basis, Debye):
    X=             -0.0000    Y=              0.0000    Z=              0.0000  Tot=              0.0000
 Quadrupole moment (field-independent basis, Debye-Ang):
   XX=            -12.8060   YY=            -14.7018   ZZ=            -19.6748
   XY=             -0.0000   XZ=              0.0000   YZ=              0.0000
 Traceless Quadrupole moment (field-independent basis, Debye-Ang):
   XX=              2.9215   YY=              1.0258   ZZ=             -3.9473
   XY=             -0.0000   XZ=              0.0000   YZ=              0.0000
 Octapole moment (field-independent basis, Debye-Ang**2):
  XXX=             -0.0000  YYY=              0.0000  ZZZ=              0.0000  XYY=             -0.0000
  XXY=             -0.0000  XXZ=              0.0000  XZZ=             -0.0000  YZZ=             -0.0000
  YYZ=              0.0000  XYZ=              0.0000
 Hexadecapole moment (field-independent basis, Debye-Ang**3):
 XXXX=            -15.2576 YYYY=            -71.6036 ZZZZ=           -133.2899 XXXY=             -0.0000
 XXXZ=              0.0000 YYYX=             -0.0000 YYYZ=              0.0000 ZZZX=              0.0000
 ZZZY=              0.0000 XXYY=            -14.3754 XXZZ=            -21.7476 YYZZ=            -36.3445
 XXYZ=              0.0000 YYXZ=              0.0000 ZZXY=             -0.0000
 N-N= 1.472778808969D+01 E-N=-3.830667815483D+01  KE= 5.119644818679D+00
 Symmetry AG   KE= 1.944519579135D+00
 Symmetry B1G  KE= 0.000000000000D+00
 Symmetry B2G  KE= 0.000000000000D+00
 Symmetry B3G  KE= 1.447618419437D+00
 Symmetry AU   KE= 0.000000000000D+00
 Symmetry B1U  KE= 8.187878970871D-01
 Symmetry B2U  KE= 9.087189230193D-01
 Symmetry B3U  KE= 0.000000000000D+00

 Test job not archived.
 1\1\GINC-SULU\Stability\RHF\Gen\H10\LCJ1\09-Feb-2017\0\\#rhf/gen scf(s
 ymm,tight,novaracc,noincfock,fulldiag) stable(crhf) geom=nocrowd test\
 \hf stability analysis of h10 triangular lattice, y= 1.048661191052427
 5\\0,1\H\H,1,1.1844010888\H,1,1.1844010888,2,55.4\H,2,1.1844010888,1,1
 24.6,3,0.,0\H,3,1.1844010888,4,180.,1,0.,0\H,3,1.1844010888,1,180.,2,0
 .,0\H,3,1.1011187867,2,180.,1,0.,0\H,7,1.1844010888,6,180.,1,0.,0\H,7,
 1.1844010888,5,180.,2,0.,0\H,7,1.1011187867,3,180.,1,0.,0\\Version=ES6
 4L-G09RevE.01\State=1-AG\HF=-4.9009922\MP2=-5.006572\RMSD=2.181e-09\Di
 pole=0.,0.,0.\Quadrupole=-2.1357953,2.1720707,-0.0362754,0.,1.5217137,
 0.\PG=D02H [C2'(H1.H1),C2"(H1H1.H1H1),SG(H4)]\\@


 QUHEN THE CAUSS IS TAKEN AWAY THE EFFECT WANISHETH.
 -- PROVERBS AND REASONS OF THE YEAR 1585
           AS REPRINTED IN PAISLEY MAGAZINE 1828.
 Job cpu time:       0 days  0 hours  0 minutes  0.8 seconds.
 File lengths (MBytes):  RWF=     84 Int=      0 D2E=      0 Chk=      2 Scr=      2
 Normal termination of Gaussian 09 at Thu Feb  9 16:18:46 2017.
