 Entering Gaussian System, Link 0=g09
 AtFile(1): H.gbs
            H     0
            S   10   1.00
               1000.000000000000            0.000068713567
                316.227766000000            0.000169141320
                100.000000000000            0.000823394812
                 31.622776600000            0.003425569236
                 10.000000000000            0.013951996000
                  3.162277660000            0.056909313560
                  1.000000000000            0.198286399900
                  0.316227766000            0.496922426700
                  0.100000000000            0.369846276400
                  0.031622776600            0.003752720039
            ****
 Initial command:
 /projects/guscus/apps/gau/g09-e1/g09/l1.exe "/users/lcj1/gaussian/h10/rhfstability/3rows/zmatrix/fwd/Gau-4274.inp" -scrdir="/users/lcj1/gaussian/h10/rhfstability/3rows/zmatrix/fwd/"
 Entering Link 1 = /projects/guscus/apps/gau/g09-e1/g09/l1.exe PID=      4275.
  
 Copyright (c) 1988,1990,1992,1993,1995,1998,2003,2009,2015,
            Gaussian, Inc.  All Rights Reserved.
  
 This is part of the Gaussian(R) 09 program.  It is based on
 the Gaussian(R) 03 system (copyright 2003, Gaussian, Inc.),
 the Gaussian(R) 98 system (copyright 1998, Gaussian, Inc.),
 the Gaussian(R) 94 system (copyright 1995, Gaussian, Inc.),
 the Gaussian 92(TM) system (copyright 1992, Gaussian, Inc.),
 the Gaussian 90(TM) system (copyright 1990, Gaussian, Inc.),
 the Gaussian 88(TM) system (copyright 1988, Gaussian, Inc.),
 the Gaussian 86(TM) system (copyright 1986, Carnegie Mellon
 University), and the Gaussian 82(TM) system (copyright 1983,
 Carnegie Mellon University). Gaussian is a federally registered
 trademark of Gaussian, Inc.
  
 This software contains proprietary and confidential information,
 including trade secrets, belonging to Gaussian, Inc.
  
 This software is provided under written license and may be
 used, copied, transmitted, or stored only in accord with that
 written license.
  
 The following legend is applicable only to US Government
 contracts under FAR:
  
                    RESTRICTED RIGHTS LEGEND
  
 Use, reproduction and disclosure by the US Government is
 subject to restrictions as set forth in subparagraphs (a)
 and (c) of the Commercial Computer Software - Restricted
 Rights clause in FAR 52.227-19.
  
 Gaussian, Inc.
 340 Quinnipiac St., Bldg. 40, Wallingford CT 06492
  
  
 ---------------------------------------------------------------
 Warning -- This program may not be used in any manner that
 competes with the business of Gaussian, Inc. or will provide
 assistance to any competitor of Gaussian, Inc.  The licensee
 of this program is prohibited from giving any competitor of
 Gaussian, Inc. access to this program.  By using this program,
 the user acknowledges that Gaussian, Inc. is engaged in the
 business of creating and licensing software in the field of
 computational chemistry and represents and warrants to the
 licensee that it is not a competitor of Gaussian, Inc. and that
 it will not use this program in any manner prohibited above.
 ---------------------------------------------------------------
  

 Cite this work as:
 Gaussian 09, Revision E.01,
 M. J. Frisch, G. W. Trucks, H. B. Schlegel, G. E. Scuseria, 
 M. A. Robb, J. R. Cheeseman, G. Scalmani, V. Barone, B. Mennucci, 
 G. A. Petersson, H. Nakatsuji, M. Caricato, X. Li, H. P. Hratchian, 
 A. F. Izmaylov, J. Bloino, G. Zheng, J. L. Sonnenberg, M. Hada, 
 M. Ehara, K. Toyota, R. Fukuda, J. Hasegawa, M. Ishida, T. Nakajima, 
 Y. Honda, O. Kitao, H. Nakai, T. Vreven, J. A. Montgomery, Jr., 
 J. E. Peralta, F. Ogliaro, M. Bearpark, J. J. Heyd, E. Brothers, 
 K. N. Kudin, V. N. Staroverov, T. Keith, R. Kobayashi, J. Normand, 
 K. Raghavachari, A. Rendell, J. C. Burant, S. S. Iyengar, J. Tomasi, 
 M. Cossi, N. Rega, J. M. Millam, M. Klene, J. E. Knox, J. B. Cross, 
 V. Bakken, C. Adamo, J. Jaramillo, R. Gomperts, R. E. Stratmann, 
 O. Yazyev, A. J. Austin, R. Cammi, C. Pomelli, J. W. Ochterski, 
 R. L. Martin, K. Morokuma, V. G. Zakrzewski, G. A. Voth, 
 P. Salvador, J. J. Dannenberg, S. Dapprich, A. D. Daniels, 
 O. Farkas, J. B. Foresman, J. V. Ortiz, J. Cioslowski, 
 and D. J. Fox, Gaussian, Inc., Wallingford CT, 2013.
 
 ******************************************
 Gaussian 09:  ES64L-G09RevE.01 30-Nov-2015
                 9-Feb-2017 
 ******************************************
 %chk=h10.chk
 ----------------------------------------------------------------------
 #rhf/gen scf(symm,tight,novaracc,noincfock,fulldiag) stable(crhf) geom
 =nocrowd test
 ----------------------------------------------------------------------
 1/38=1/1;
 2/12=1,17=6,18=5,40=1/2;
 3/5=7,16=1,25=1,30=1,116=1/1,2,3;
 4/9=4/1;
 5/5=100002,15=2,16=1,32=2,38=1/2;
 8/6=1,10=90,11=11/1,4;
 9/8=4,13=1/2;
 6/7=2,8=2,9=2,10=2,28=1/1;
 99/5=1,9=1/99;
 ----------------------------------------------------------------------
 hf stability analysis of h10 triangular lattice, y= 0.9812106788189690
 6
 ----------------------------------------------------------------------
 Symbolic Z-matrix:
 Charge =  0 Multiplicity = 1
 H
 H                    1     1.14411 
 H                    1     1.14411  2     61.9 
 H                    2     1.14411  1     118.1    3     0.       0
 H                    3     1.14411  4     180.     1     0.       0
 H                    3     1.14411  1     180.     2     0.       0
 H                    3     1.17681  2     180.     1     0.       0
 H                    7     1.14411  6     180.     1     0.       0
 H                    7     1.14411  5     180.     2     0.       0
 H                    7     1.17681  3     180.     1     0.       0
 
                          Input orientation:                          
 ---------------------------------------------------------------------
 Center     Atomic      Atomic             Coordinates (Angstroms)
 Number     Number       Type             X           Y           Z
 ---------------------------------------------------------------------
      1          1           0        0.000000    0.000000    0.000000
      2          1           0        0.000000    0.000000    1.144114
      3          1           0        1.009253    0.000000    0.538891
      4          1           0        1.009253    0.000000    1.683005
      5          1           0        1.009253    0.000000   -0.605223
      6          1           0        2.018507    0.000000    1.077782
      7          1           0        2.018507    0.000000   -0.066331
      8          1           0        2.018507    0.000000   -1.210445
      9          1           0        3.027760    0.000000    0.472560
     10          1           0        3.027760    0.000000   -0.671554
 ---------------------------------------------------------------------
                    Distance matrix (angstroms):
                    1          2          3          4          5
     1  H    0.000000
     2  H    1.144114   0.000000
     3  H    1.144114   1.176812   0.000000
     4  H    1.962421   1.144114   1.144114   0.000000
     5  H    1.176812   2.019596   1.144114   2.288227   0.000000
     6  H    2.288227   2.019596   1.144114   1.176812   1.962421
     7  H    2.019596   2.353624   1.176812   2.019596   1.144114
     8  H    2.353624   3.101341   2.019596   3.064416   1.176812
     9  H    3.064416   3.101341   2.019596   2.353624   2.288227
    10  H    3.101341   3.530436   2.353624   3.101341   2.019596
                    6          7          8          9         10
     6  H    0.000000
     7  H    1.144114   0.000000
     8  H    2.288227   1.144114   0.000000
     9  H    1.176812   1.144114   1.962421   0.000000
    10  H    2.019596   1.176812   1.144114   1.144114   0.000000
 Stoichiometry    H10
 Framework group  D2H[C2'(H.H),C2"(HH.HH),SG(H4)]
 Deg. of freedom     5
 Full point group                 D2H     NOp   8
 Largest Abelian subgroup         D2H     NOp   8
 Largest concise Abelian subgroup D2      NOp   4
                         Standard orientation:                         
 ---------------------------------------------------------------------
 Center     Atomic      Atomic             Coordinates (Angstroms)
 Number     Number       Type             X           Y           Z
 ---------------------------------------------------------------------
      1          1           0        0.000000    0.981211    1.176812
      2          1           0        0.000000    0.000000    1.765218
      3          1           0        0.000000    0.000000    0.588406
      4          1           0       -0.000000   -0.981211    1.176812
      5          1           0       -0.000000    0.981211   -0.000000
      6          1           0       -0.000000   -0.981211    0.000000
      7          1           0        0.000000   -0.000000   -0.588406
      8          1           0        0.000000    0.981211   -1.176812
      9          1           0       -0.000000   -0.981211   -1.176812
     10          1           0        0.000000   -0.000000   -1.765218
 ---------------------------------------------------------------------
 Rotational constants (GHZ):     86.8073073     40.2323426     27.4911127
 General basis read from cards:  (5D, 7F)
 There are     4 symmetry adapted cartesian basis functions of AG  symmetry.
 There are     0 symmetry adapted cartesian basis functions of B1G symmetry.
 There are     0 symmetry adapted cartesian basis functions of B2G symmetry.
 There are     1 symmetry adapted cartesian basis functions of B3G symmetry.
 There are     0 symmetry adapted cartesian basis functions of AU  symmetry.
 There are     3 symmetry adapted cartesian basis functions of B1U symmetry.
 There are     2 symmetry adapted cartesian basis functions of B2U symmetry.
 There are     0 symmetry adapted cartesian basis functions of B3U symmetry.
 There are     4 symmetry adapted basis functions of AG  symmetry.
 There are     0 symmetry adapted basis functions of B1G symmetry.
 There are     0 symmetry adapted basis functions of B2G symmetry.
 There are     1 symmetry adapted basis functions of B3G symmetry.
 There are     0 symmetry adapted basis functions of AU  symmetry.
 There are     3 symmetry adapted basis functions of B1U symmetry.
 There are     2 symmetry adapted basis functions of B2U symmetry.
 There are     0 symmetry adapted basis functions of B3U symmetry.
    10 basis functions,   100 primitive gaussians,    10 cartesian basis functions
     5 alpha electrons        5 beta electrons
       nuclear repulsion energy        14.6052417570 Hartrees.
 NAtoms=   10 NActive=   10 NUniq=    4 SFac= 4.00D+00 NAtFMM=   60 NAOKFM=F Big=F
 Integral buffers will be    131072 words long.
 Regular integral format.
 Two-electron integral symmetry is turned on.
 One-electron integrals computed using PRISM.
 NBasis=    10 RedAO= T EigKep=  1.91D-01  NBF=     4     0     0     1     0     3     2     0
 NBsUse=    10 1.00D-06 EigRej= -1.00D+00 NBFU=     4     0     0     1     0     3     2     0
 ExpMin= 3.16D-02 ExpMax= 1.00D+03 ExpMxC= 1.00D+01 IAcc=3 IRadAn=         5 AccDes= 0.00D+00
 Harris functional with IExCor=  205 and IRadAn=       5 diagonalized for initial guess.
 HarFok:  IExCor=  205 AccDes= 0.00D+00 IRadAn=         5 IDoV= 1 UseB2=F ITyADJ=14
 ICtDFT=  3500011 ScaDFX=  1.000000  1.000000  1.000000  1.000000
 FoFCou: FMM=F IPFlag=           0 FMFlag=      100000 FMFlg1=           0
         NFxFlg=           0 DoJE=T BraDBF=F KetDBF=T FulRan=T
         wScrn=  0.000000 ICntrl=     500 IOpCl=  0 I1Cent=   200000004 NGrid=           0
         NMat0=    1 NMatS0=      1 NMatT0=    0 NMatD0=    1 NMtDS0=    0 NMtDT0=    0
 Petite list used in FoFCou.
 Initial guess orbital symmetries:
       Occupied  (AG) (B1U) (B2U) (AG) (B3G)
       Virtual   (AG) (B1U) (B2U) (B1U) (AG)
 The electronic state of the initial guess is 1-AG.
 Keep R1 ints in memory in symmetry-blocked form, NReq=881811.
 Requested convergence on RMS density matrix=1.00D-08 within 128 cycles.
 Requested convergence on MAX density matrix=1.00D-06.
 Requested convergence on             energy=1.00D-06.
 No special actions if energy rises.
 SCF Done:  E(RHF) =  -4.95385040938     A.U. after    8 cycles
            NFock=  8  Conv=0.82D-08     -V/T= 1.9804
 Range of M.O.s used for correlation:     1    10
 NBasis=    10 NAE=     5 NBE=     5 NFC=     0 NFV=     0
 NROrb=     10 NOA=     5 NOB=     5 NVA=     5 NVB=     5
 Semi-Direct transformation.
 ModeAB=           4 MOrb=             5 LenV=     134104390
 LASXX=         1030 LTotXX=        1030 LenRXX=        2480
 LTotAB=        1450 MaxLAS=        1000 LenRXY=           0
 NonZer=        3510 LenScr=      655360 LnRSAI=        1000
 LnScr1=      655360 LExtra=           0 Total=      1314200
 MaxDsk=          -1 SrtSym=           T ITran=            3
 JobTyp=0 Pass  1:  I=   1 to   5.
 (rs|ai) integrals will be sorted in core.
 Spin components of T(2) and E(2):
     alpha-alpha T2 =       0.5758618609D-02 E2=     -0.7861974138D-02
     alpha-beta  T2 =       0.5605564618D-01 E2=     -0.8484438900D-01
     beta-beta   T2 =       0.5758618609D-02 E2=     -0.7861974138D-02
 ANorm=    0.1033234186D+01
 E2 =    -0.1005683373D+00 EUMP2 =    -0.50544187466491D+01
 Second order stability test of a single determinant RHF wave function:
 Stabil:  MDV=134217728
 ***********************************************************************
 Matrix         Lowest Root    Major Pairs
 ***********************************************************************
 Internal RHF     0.228555     Stable
 RRHF --> CRHF    0.1869409    Stable
 RRHF --> RUHF    0.0762271    Stable
 Stable under the perturbations considered.
 ***********************************************************************

 **********************************************************************

            Population analysis using the SCF density.

 **********************************************************************

 Orbital symmetries:
       Occupied  (AG) (B1U) (B2U) (AG) (B3G)
       Virtual   (AG) (B1U) (B2U) (B1U) (AG)
 The electronic state is 1-AG.
 Alpha  occ. eigenvalues --   -0.96525  -0.73075  -0.60216  -0.41001  -0.33776
 Alpha virt. eigenvalues --    0.13231   0.19876   0.25795   0.41457   0.59390
          Condensed to atoms (all electrons):
               1          2          3          4          5          6
     1  H    1.097846   0.213081   0.036308  -0.153929   0.060054  -0.063354
     2  H    0.213081   0.817106  -0.054201   0.213081  -0.087347  -0.087347
     3  H    0.036308  -0.054201   0.617627   0.036308   0.173456   0.173456
     4  H   -0.153929   0.213081   0.036308   1.097846  -0.063354   0.060054
     5  H    0.060054  -0.087347   0.173456  -0.063354   0.776555  -0.027142
     6  H   -0.063354  -0.087347   0.173456   0.060054  -0.027142   0.776555
     7  H   -0.049487  -0.065472   0.080293  -0.049487   0.173456   0.173456
     8  H   -0.079044   0.008459  -0.049487   0.032814   0.060054  -0.063354
     9  H    0.032814   0.008459  -0.049487  -0.079044  -0.063354   0.060054
    10  H    0.008459   0.014859  -0.065472   0.008459  -0.087347  -0.087347
               7          8          9         10
     1  H   -0.049487  -0.079044   0.032814   0.008459
     2  H   -0.065472   0.008459   0.008459   0.014859
     3  H    0.080293  -0.049487  -0.049487  -0.065472
     4  H   -0.049487   0.032814  -0.079044   0.008459
     5  H    0.173456   0.060054  -0.063354  -0.087347
     6  H    0.173456  -0.063354   0.060054  -0.087347
     7  H    0.617627   0.036308   0.036308  -0.054201
     8  H    0.036308   1.097846  -0.153929   0.213081
     9  H    0.036308  -0.153929   1.097846   0.213081
    10  H   -0.054201   0.213081   0.213081   0.817106
 Mulliken charges:
               1
     1  H   -0.102747
     2  H    0.019323
     3  H    0.101201
     4  H   -0.102747
     5  H    0.084970
     6  H    0.084970
     7  H    0.101201
     8  H   -0.102747
     9  H   -0.102747
    10  H    0.019323
 Sum of Mulliken charges =  -0.00000
 Mulliken charges with hydrogens summed into heavy atoms:
               1
 Electronic spatial extent (au):  <R**2>=            100.0023
 Charge=             -0.0000 electrons
 Dipole moment (field-independent basis, Debye):
    X=              0.0000    Y=              0.0000    Z=              0.0000  Tot=              0.0000
 Quadrupole moment (field-independent basis, Debye-Ang):
   XX=            -12.8560   YY=            -15.6655   ZZ=            -18.3715
   XY=             -0.0000   XZ=              0.0000   YZ=             -0.0000
 Traceless Quadrupole moment (field-independent basis, Debye-Ang):
   XX=              2.7750   YY=             -0.0345   ZZ=             -2.7405
   XY=             -0.0000   XZ=              0.0000   YZ=             -0.0000
 Octapole moment (field-independent basis, Debye-Ang**2):
  XXX=             -0.0000  YYY=             -0.0000  ZZZ=             -0.0000  XYY=             -0.0000
  XXY=             -0.0000  XXZ=             -0.0000  XZZ=             -0.0000  YZZ=             -0.0000
  YYZ=             -0.0000  XYZ=              0.0000
 Hexadecapole moment (field-independent basis, Debye-Ang**3):
 XXXX=            -15.3535 YYYY=            -68.1559 ZZZZ=           -138.7767 XXXY=             -0.0000
 XXXZ=              0.0000 YYYX=             -0.0000 YYYZ=             -0.0000 ZZZX=              0.0000
 ZZZY=             -0.0000 XXYY=            -13.6523 XXZZ=            -23.4789 YYZZ=            -38.4310
 XXYZ=             -0.0000 YYXZ=              0.0000 ZZXY=             -0.0000
 N-N= 1.460524175701D+01 E-N=-3.807945000755D+01  KE= 5.053121985604D+00
 Symmetry AG   KE= 1.863585220647D+00
 Symmetry B1G  KE= 0.000000000000D+00
 Symmetry B2G  KE= 0.000000000000D+00
 Symmetry B3G  KE= 1.455265039233D+00
 Symmetry AU   KE= 0.000000000000D+00
 Symmetry B1U  KE= 7.930106466264D-01
 Symmetry B2U  KE= 9.412610790971D-01
 Symmetry B3U  KE= 0.000000000000D+00

 Test job not archived.
 1\1\GINC-SULU\Stability\RHF\Gen\H10\LCJ1\09-Feb-2017\0\\#rhf/gen scf(s
 ymm,tight,novaracc,noincfock,fulldiag) stable(crhf) geom=nocrowd test\
 \hf stability analysis of h10 triangular lattice, y= 0.981210678818969
 06\\0,1\H\H,1,1.1441136479\H,1,1.1441136479,2,61.9\H,2,1.1441136479,1,
 118.1,3,0.,0\H,3,1.1441136479,4,180.,1,0.,0\H,3,1.1441136479,1,180.,2,
 0.,0\H,3,1.1768120377,2,180.,1,0.,0\H,7,1.1441136479,6,180.,1,0.,0\H,7
 ,1.1441136479,5,180.,2,0.,0\H,7,1.1768120377,3,180.,1,0.,0\\Version=ES
 64L-G09RevE.01\State=1-AG\HF=-4.9538504\MP2=-5.0544187\RMSD=8.166e-09\
 Dipole=0.,0.,0.\Quadrupole=-1.5053618,2.0631233,-0.5577615,0.,0.887348
 8,0.\PG=D02H [C2'(H1.H1),C2"(H1H1.H1H1),SG(H4)]\\@


 MICRO CREDO - NEVER TRUST A COMPUTER BIGGER
               BIGGER THAN YOU CAN LIFT.
 Job cpu time:       0 days  0 hours  0 minutes  0.8 seconds.
 File lengths (MBytes):  RWF=     84 Int=      0 D2E=      0 Chk=      2 Scr=      2
 Normal termination of Gaussian 09 at Thu Feb  9 16:16:29 2017.
