 Entering Gaussian System, Link 0=g09
 AtFile(1): H.gbs
            H     0
            S   10   1.00
               1000.000000000000            0.000068713567
                316.227766000000            0.000169141320
                100.000000000000            0.000823394812
                 31.622776600000            0.003425569236
                 10.000000000000            0.013951996000
                  3.162277660000            0.056909313560
                  1.000000000000            0.198286399900
                  0.316227766000            0.496922426700
                  0.100000000000            0.369846276400
                  0.031622776600            0.003752720039
            ****
 Initial command:
 /projects/guscus/apps/gau/g09-e1/g09/l1.exe "/users/lcj1/gaussian/h10/rhfstability/3rows/zmatrix/fwd/Gau-3260.inp" -scrdir="/users/lcj1/gaussian/h10/rhfstability/3rows/zmatrix/fwd/"
 Entering Link 1 = /projects/guscus/apps/gau/g09-e1/g09/l1.exe PID=      3261.
  
 Copyright (c) 1988,1990,1992,1993,1995,1998,2003,2009,2015,
            Gaussian, Inc.  All Rights Reserved.
  
 This is part of the Gaussian(R) 09 program.  It is based on
 the Gaussian(R) 03 system (copyright 2003, Gaussian, Inc.),
 the Gaussian(R) 98 system (copyright 1998, Gaussian, Inc.),
 the Gaussian(R) 94 system (copyright 1995, Gaussian, Inc.),
 the Gaussian 92(TM) system (copyright 1992, Gaussian, Inc.),
 the Gaussian 90(TM) system (copyright 1990, Gaussian, Inc.),
 the Gaussian 88(TM) system (copyright 1988, Gaussian, Inc.),
 the Gaussian 86(TM) system (copyright 1986, Carnegie Mellon
 University), and the Gaussian 82(TM) system (copyright 1983,
 Carnegie Mellon University). Gaussian is a federally registered
 trademark of Gaussian, Inc.
  
 This software contains proprietary and confidential information,
 including trade secrets, belonging to Gaussian, Inc.
  
 This software is provided under written license and may be
 used, copied, transmitted, or stored only in accord with that
 written license.
  
 The following legend is applicable only to US Government
 contracts under FAR:
  
                    RESTRICTED RIGHTS LEGEND
  
 Use, reproduction and disclosure by the US Government is
 subject to restrictions as set forth in subparagraphs (a)
 and (c) of the Commercial Computer Software - Restricted
 Rights clause in FAR 52.227-19.
  
 Gaussian, Inc.
 340 Quinnipiac St., Bldg. 40, Wallingford CT 06492
  
  
 ---------------------------------------------------------------
 Warning -- This program may not be used in any manner that
 competes with the business of Gaussian, Inc. or will provide
 assistance to any competitor of Gaussian, Inc.  The licensee
 of this program is prohibited from giving any competitor of
 Gaussian, Inc. access to this program.  By using this program,
 the user acknowledges that Gaussian, Inc. is engaged in the
 business of creating and licensing software in the field of
 computational chemistry and represents and warrants to the
 licensee that it is not a competitor of Gaussian, Inc. and that
 it will not use this program in any manner prohibited above.
 ---------------------------------------------------------------
  

 Cite this work as:
 Gaussian 09, Revision E.01,
 M. J. Frisch, G. W. Trucks, H. B. Schlegel, G. E. Scuseria, 
 M. A. Robb, J. R. Cheeseman, G. Scalmani, V. Barone, B. Mennucci, 
 G. A. Petersson, H. Nakatsuji, M. Caricato, X. Li, H. P. Hratchian, 
 A. F. Izmaylov, J. Bloino, G. Zheng, J. L. Sonnenberg, M. Hada, 
 M. Ehara, K. Toyota, R. Fukuda, J. Hasegawa, M. Ishida, T. Nakajima, 
 Y. Honda, O. Kitao, H. Nakai, T. Vreven, J. A. Montgomery, Jr., 
 J. E. Peralta, F. Ogliaro, M. Bearpark, J. J. Heyd, E. Brothers, 
 K. N. Kudin, V. N. Staroverov, T. Keith, R. Kobayashi, J. Normand, 
 K. Raghavachari, A. Rendell, J. C. Burant, S. S. Iyengar, J. Tomasi, 
 M. Cossi, N. Rega, J. M. Millam, M. Klene, J. E. Knox, J. B. Cross, 
 V. Bakken, C. Adamo, J. Jaramillo, R. Gomperts, R. E. Stratmann, 
 O. Yazyev, A. J. Austin, R. Cammi, C. Pomelli, J. W. Ochterski, 
 R. L. Martin, K. Morokuma, V. G. Zakrzewski, G. A. Voth, 
 P. Salvador, J. J. Dannenberg, S. Dapprich, A. D. Daniels, 
 O. Farkas, J. B. Foresman, J. V. Ortiz, J. Cioslowski, 
 and D. J. Fox, Gaussian, Inc., Wallingford CT, 2013.
 
 ******************************************
 Gaussian 09:  ES64L-G09RevE.01 30-Nov-2015
                 9-Feb-2017 
 ******************************************
 %chk=h10.chk
 ----------------------------------------------------------------------
 #rhf/gen scf(symm,tight,novaracc,noincfock,fulldiag) stable(crhf) geom
 =nocrowd test
 ----------------------------------------------------------------------
 1/38=1/1;
 2/12=1,17=6,18=5,40=1/2;
 3/5=7,16=1,25=1,30=1,116=1/1,2,3;
 4/9=4/1;
 5/5=100002,15=2,16=1,32=2,38=1/2;
 8/6=1,10=90,11=11/1,4;
 9/8=4,13=1/2;
 6/7=2,8=2,9=2,10=2,28=1/1;
 99/5=1,9=1/99;
 ----------------------------------------------------------------------
 hf stability analysis of h10 triangular lattice, y= 0.9575054703582485
 1
 ----------------------------------------------------------------------
 Symbolic Z-matrix:
 Charge =  0 Multiplicity = 1
 H
 H                    1     1.13154 
 H                    1     1.13154  2     64.4 
 H                    2     1.13154  1     115.6    3     0.       0
 H                    3     1.13154  4     180.     1     0.       0
 H                    3     1.13154  1     180.     2     0.       0
 H                    3     1.20595  2     180.     1     0.       0
 H                    7     1.13154  6     180.     1     0.       0
 H                    7     1.13154  5     180.     2     0.       0
 H                    7     1.20595  3     180.     1     0.       0
 
                          Input orientation:                          
 ---------------------------------------------------------------------
 Center     Atomic      Atomic             Coordinates (Angstroms)
 Number     Number       Type             X           Y           Z
 ---------------------------------------------------------------------
      1          1           0        0.000000    0.000000    0.000000
      2          1           0        0.000000    0.000000    1.131545
      3          1           0        1.020464    0.000000    0.488924
      4          1           0        1.020464    0.000000    1.620469
      5          1           0        1.020464    0.000000   -0.642620
      6          1           0        2.040928    0.000000    0.977849
      7          1           0        2.040928    0.000000   -0.153696
      8          1           0        2.040928    0.000000   -1.285241
      9          1           0        3.061392    0.000000    0.335228
     10          1           0        3.061392    0.000000   -0.796316
 ---------------------------------------------------------------------
                    Distance matrix (angstroms):
                    1          2          3          4          5
     1  H    0.000000
     2  H    1.131545   0.000000
     3  H    1.131545   1.205947   0.000000
     4  H    1.915011   1.131545   1.131545   0.000000
     5  H    1.205947   2.046707   1.131545   2.263090   0.000000
     6  H    2.263090   2.046707   1.131545   1.205947   1.915011
     7  H    2.046707   2.411893   1.205947   2.046707   1.131545
     8  H    2.411893   3.163264   2.046707   3.079691   1.205947
     9  H    3.079691   3.163264   2.046707   2.411893   2.263090
    10  H    3.163264   3.617840   2.411893   3.163264   2.046707
                    6          7          8          9         10
     6  H    0.000000
     7  H    1.131545   0.000000
     8  H    2.263090   1.131545   0.000000
     9  H    1.205947   1.131545   1.915011   0.000000
    10  H    2.046707   1.205947   1.131545   1.131545   0.000000
 Stoichiometry    H10
 Framework group  D2H[C2'(H.H),C2"(HH.HH),SG(H4)]
 Deg. of freedom     5
 Full point group                 D2H     NOp   8
 Largest Abelian subgroup         D2H     NOp   8
 Largest concise Abelian subgroup D2      NOp   4
                         Standard orientation:                         
 ---------------------------------------------------------------------
 Center     Atomic      Atomic             Coordinates (Angstroms)
 Number     Number       Type             X           Y           Z
 ---------------------------------------------------------------------
      1          1           0        0.000000    0.957505    1.205947
      2          1           0        0.000000    0.000000    1.808920
      3          1           0        0.000000    0.000000    0.602973
      4          1           0       -0.000000   -0.957505    1.205947
      5          1           0       -0.000000    0.957505    0.000000
      6          1           0       -0.000000   -0.957505   -0.000000
      7          1           0        0.000000   -0.000000   -0.602973
      8          1           0        0.000000    0.957505   -1.205947
      9          1           0       -0.000000   -0.957505   -1.205947
     10          1           0        0.000000   -0.000000   -1.808920
 ---------------------------------------------------------------------
 Rotational constants (GHZ):     91.1587351     38.3118671     26.9749371
 General basis read from cards:  (5D, 7F)
 There are     4 symmetry adapted cartesian basis functions of AG  symmetry.
 There are     0 symmetry adapted cartesian basis functions of B1G symmetry.
 There are     0 symmetry adapted cartesian basis functions of B2G symmetry.
 There are     1 symmetry adapted cartesian basis functions of B3G symmetry.
 There are     0 symmetry adapted cartesian basis functions of AU  symmetry.
 There are     3 symmetry adapted cartesian basis functions of B1U symmetry.
 There are     2 symmetry adapted cartesian basis functions of B2U symmetry.
 There are     0 symmetry adapted cartesian basis functions of B3U symmetry.
 There are     4 symmetry adapted basis functions of AG  symmetry.
 There are     0 symmetry adapted basis functions of B1G symmetry.
 There are     0 symmetry adapted basis functions of B2G symmetry.
 There are     1 symmetry adapted basis functions of B3G symmetry.
 There are     0 symmetry adapted basis functions of AU  symmetry.
 There are     3 symmetry adapted basis functions of B1U symmetry.
 There are     2 symmetry adapted basis functions of B2U symmetry.
 There are     0 symmetry adapted basis functions of B3U symmetry.
    10 basis functions,   100 primitive gaussians,    10 cartesian basis functions
     5 alpha electrons        5 beta electrons
       nuclear repulsion energy        14.5529620525 Hartrees.
 NAtoms=   10 NActive=   10 NUniq=    4 SFac= 4.00D+00 NAtFMM=   60 NAOKFM=F Big=F
 Integral buffers will be    131072 words long.
 Regular integral format.
 Two-electron integral symmetry is turned on.
 One-electron integrals computed using PRISM.
 NBasis=    10 RedAO= T EigKep=  1.96D-01  NBF=     4     0     0     1     0     3     2     0
 NBsUse=    10 1.00D-06 EigRej= -1.00D+00 NBFU=     4     0     0     1     0     3     2     0
 ExpMin= 3.16D-02 ExpMax= 1.00D+03 ExpMxC= 1.00D+01 IAcc=3 IRadAn=         5 AccDes= 0.00D+00
 Harris functional with IExCor=  205 and IRadAn=       5 diagonalized for initial guess.
 HarFok:  IExCor=  205 AccDes= 0.00D+00 IRadAn=         5 IDoV= 1 UseB2=F ITyADJ=14
 ICtDFT=  3500011 ScaDFX=  1.000000  1.000000  1.000000  1.000000
 FoFCou: FMM=F IPFlag=           0 FMFlag=      100000 FMFlg1=           0
         NFxFlg=           0 DoJE=T BraDBF=F KetDBF=T FulRan=T
         wScrn=  0.000000 ICntrl=     500 IOpCl=  0 I1Cent=   200000004 NGrid=           0
         NMat0=    1 NMatS0=      1 NMatT0=    0 NMatD0=    1 NMtDS0=    0 NMtDT0=    0
 Petite list used in FoFCou.
 Initial guess orbital symmetries:
       Occupied  (AG) (B1U) (B2U) (AG) (B3G)
       Virtual   (AG) (B1U) (B2U) (B1U) (AG)
 The electronic state of the initial guess is 1-AG.
 Keep R1 ints in memory in symmetry-blocked form, NReq=881587.
 Requested convergence on RMS density matrix=1.00D-08 within 128 cycles.
 Requested convergence on MAX density matrix=1.00D-06.
 Requested convergence on             energy=1.00D-06.
 No special actions if energy rises.
 SCF Done:  E(RHF) =  -4.96373798035     A.U. after    8 cycles
            NFock=  8  Conv=0.60D-08     -V/T= 1.9858
 Range of M.O.s used for correlation:     1    10
 NBasis=    10 NAE=     5 NBE=     5 NFC=     0 NFV=     0
 NROrb=     10 NOA=     5 NOB=     5 NVA=     5 NVB=     5
 Semi-Direct transformation.
 ModeAB=           4 MOrb=             5 LenV=     134104390
 LASXX=         1030 LTotXX=        1030 LenRXX=        2480
 LTotAB=        1450 MaxLAS=        1000 LenRXY=           0
 NonZer=        3510 LenScr=      655360 LnRSAI=        1000
 LnScr1=      655360 LExtra=           0 Total=      1314200
 MaxDsk=          -1 SrtSym=           T ITran=            3
 JobTyp=0 Pass  1:  I=   1 to   5.
 (rs|ai) integrals will be sorted in core.
 Spin components of T(2) and E(2):
     alpha-alpha T2 =       0.5725540504D-02 E2=     -0.7757375078D-02
     alpha-beta  T2 =       0.5529199024D-01 E2=     -0.8375989027D-01
     beta-beta   T2 =       0.5725540504D-02 E2=     -0.7757375078D-02
 ANorm=    0.1032832548D+01
 E2 =    -0.9927464042D-01 EUMP2 =    -0.50630126207737D+01
 Second order stability test of a single determinant RHF wave function:
 Stabil:  MDV=134217728
 ***********************************************************************
 Matrix         Lowest Root    Major Pairs
 ***********************************************************************
 Internal RHF     0.205787     Stable
 RRHF --> CRHF    0.2093615    Stable
 RRHF --> RUHF    0.071568     Stable
 Stable under the perturbations considered.
 ***********************************************************************

 **********************************************************************

            Population analysis using the SCF density.

 **********************************************************************

 Orbital symmetries:
       Occupied  (AG) (B1U) (B2U) (AG) (B3G)
       Virtual   (AG) (B1U) (B2U) (B1U) (AG)
 The electronic state is 1-AG.
 Alpha  occ. eigenvalues --   -0.96208  -0.73513  -0.59031  -0.42316  -0.33477
 Alpha virt. eigenvalues --    0.16729   0.17413   0.24289   0.43261   0.57590
          Condensed to atoms (all electrons):
               1          2          3          4          5          6
     1  H    1.112485   0.211549   0.037245  -0.165260   0.063118  -0.066849
     2  H    0.211549   0.771839  -0.044319   0.211549  -0.080670  -0.080670
     3  H    0.037245  -0.044319   0.605619   0.037245   0.170012   0.170012
     4  H   -0.165260   0.211549   0.037245   1.112485  -0.066849   0.063118
     5  H    0.063118  -0.080670   0.170012  -0.066849   0.775947  -0.032489
     6  H   -0.066849  -0.080670   0.170012   0.063118  -0.032489   0.775947
     7  H   -0.046911  -0.057410   0.076118  -0.046911   0.170012   0.170012
     8  H   -0.072416   0.007629  -0.046911   0.032098   0.063118  -0.066849
     9  H    0.032098   0.007629  -0.046911  -0.072416  -0.066849   0.063118
    10  H    0.007629   0.012124  -0.057410   0.007629  -0.080670  -0.080670
               7          8          9         10
     1  H   -0.046911  -0.072416   0.032098   0.007629
     2  H   -0.057410   0.007629   0.007629   0.012124
     3  H    0.076118  -0.046911  -0.046911  -0.057410
     4  H   -0.046911   0.032098  -0.072416   0.007629
     5  H    0.170012   0.063118  -0.066849  -0.080670
     6  H    0.170012  -0.066849   0.063118  -0.080670
     7  H    0.605619   0.037245   0.037245  -0.044319
     8  H    0.037245   1.112485  -0.165260   0.211549
     9  H    0.037245  -0.165260   1.112485   0.211549
    10  H   -0.044319   0.211549   0.211549   0.771839
 Mulliken charges:
               1
     1  H   -0.112686
     2  H    0.040750
     3  H    0.099302
     4  H   -0.112686
     5  H    0.085320
     6  H    0.085320
     7  H    0.099302
     8  H   -0.112686
     9  H   -0.112686
    10  H    0.040750
 Sum of Mulliken charges =   0.00000
 Mulliken charges with hydrogens summed into heavy atoms:
               1
 Electronic spatial extent (au):  <R**2>=            101.1063
 Charge=              0.0000 electrons
 Dipole moment (field-independent basis, Debye):
    X=              0.0000    Y=              0.0000    Z=             -0.0000  Tot=              0.0000
 Quadrupole moment (field-independent basis, Debye-Ang):
   XX=            -12.8726   YY=            -15.9942   ZZ=            -17.8347
   XY=             -0.0000   XZ=              0.0000   YZ=             -0.0000
 Traceless Quadrupole moment (field-independent basis, Debye-Ang):
   XX=              2.6946   YY=             -0.4270   ZZ=             -2.2676
   XY=             -0.0000   XZ=              0.0000   YZ=             -0.0000
 Octapole moment (field-independent basis, Debye-Ang**2):
  XXX=             -0.0000  YYY=             -0.0000  ZZZ=              0.0000  XYY=             -0.0000
  XXY=              0.0000  XXZ=              0.0000  XZZ=              0.0000  YZZ=             -0.0000
  YYZ=             -0.0000  XYZ=              0.0000
 Hexadecapole moment (field-independent basis, Debye-Ang**3):
 XXXX=            -15.3871 YYYY=            -66.9434 ZZZZ=           -140.4592 XXXY=             -0.0000
 XXXZ=              0.0000 YYYX=             -0.0000 YYYZ=             -0.0000 ZZZX=              0.0000
 ZZZY=             -0.0000 XXYY=            -13.4093 XXZZ=            -24.1670 YYZZ=            -39.2674
 XXYZ=              0.0000 YYXZ=              0.0000 ZZXY=             -0.0000
 N-N= 1.455296205249D+01 E-N=-3.797777013456D+01  KE= 5.035244933345D+00
 Symmetry AG   KE= 1.835669740679D+00
 Symmetry B1G  KE= 0.000000000000D+00
 Symmetry B2G  KE= 0.000000000000D+00
 Symmetry B3G  KE= 1.460273438227D+00
 Symmetry AU   KE= 0.000000000000D+00
 Symmetry B1U  KE= 7.842106587771D-01
 Symmetry B2U  KE= 9.550910956616D-01
 Symmetry B3U  KE= 0.000000000000D+00

 Test job not archived.
 1\1\GINC-SULU\Stability\RHF\Gen\H10\LCJ1\09-Feb-2017\0\\#rhf/gen scf(s
 ymm,tight,novaracc,noincfock,fulldiag) stable(crhf) geom=nocrowd test\
 \hf stability analysis of h10 triangular lattice, y= 0.957505470358248
 51\\0,1\H\H,1,1.1315447722\H,1,1.1315447722,2,64.4\H,2,1.1315447722,1,
 115.6,3,0.,0\H,3,1.1315447722,4,180.,1,0.,0\H,3,1.1315447722,1,180.,2,
 0.,0\H,3,1.2059466751,2,180.,1,0.,0\H,7,1.1315447722,6,180.,1,0.,0\H,7
 ,1.1315447722,5,180.,2,0.,0\H,7,1.2059466751,3,180.,1,0.,0\\Version=ES
 64L-G09RevE.01\State=1-AG\HF=-4.963738\MP2=-5.0630126\RMSD=5.978e-09\D
 ipole=0.,0.,0.\Quadrupole=-1.2973065,2.0033453,-0.7060387,0.,0.6170356
 ,0.\PG=D02H [C2'(H1.H1),C2"(H1H1.H1H1),SG(H4)]\\@


 LET US PLACE AT THE END OF EVERY CHAPTER.....THE
 TWO LETTERS USED BY THE ROMAN JUDGES WHEN THEY DID
 NOT UNDERSTAND A PLEADING.
 N. L. -NON LIQUET- IT IS NOT CLEAR.
                                              -- VOLTAIRE
 Job cpu time:       0 days  0 hours  0 minutes  0.8 seconds.
 File lengths (MBytes):  RWF=     84 Int=      0 D2E=      0 Chk=      2 Scr=      2
 Normal termination of Gaussian 09 at Thu Feb  9 16:15:40 2017.
