 Entering Gaussian System, Link 0=g09
 AtFile(1): H.gbs
            H     0
            S   10   1.00
               1000.000000000000            0.000068713567
                316.227766000000            0.000169141320
                100.000000000000            0.000823394812
                 31.622776600000            0.003425569236
                 10.000000000000            0.013951996000
                  3.162277660000            0.056909313560
                  1.000000000000            0.198286399900
                  0.316227766000            0.496922426700
                  0.100000000000            0.369846276400
                  0.031622776600            0.003752720039
            ****
 Initial command:
 /projects/guscus/apps/gau/g09-e1/g09/l1.exe "/users/lcj1/gaussian/h10/rhfstability/3rows/zmatrix/fwd/Gau-5323.inp" -scrdir="/users/lcj1/gaussian/h10/rhfstability/3rows/zmatrix/fwd/"
 Entering Link 1 = /projects/guscus/apps/gau/g09-e1/g09/l1.exe PID=      5324.
  
 Copyright (c) 1988,1990,1992,1993,1995,1998,2003,2009,2015,
            Gaussian, Inc.  All Rights Reserved.
  
 This is part of the Gaussian(R) 09 program.  It is based on
 the Gaussian(R) 03 system (copyright 2003, Gaussian, Inc.),
 the Gaussian(R) 98 system (copyright 1998, Gaussian, Inc.),
 the Gaussian(R) 94 system (copyright 1995, Gaussian, Inc.),
 the Gaussian 92(TM) system (copyright 1992, Gaussian, Inc.),
 the Gaussian 90(TM) system (copyright 1990, Gaussian, Inc.),
 the Gaussian 88(TM) system (copyright 1988, Gaussian, Inc.),
 the Gaussian 86(TM) system (copyright 1986, Carnegie Mellon
 University), and the Gaussian 82(TM) system (copyright 1983,
 Carnegie Mellon University). Gaussian is a federally registered
 trademark of Gaussian, Inc.
  
 This software contains proprietary and confidential information,
 including trade secrets, belonging to Gaussian, Inc.
  
 This software is provided under written license and may be
 used, copied, transmitted, or stored only in accord with that
 written license.
  
 The following legend is applicable only to US Government
 contracts under FAR:
  
                    RESTRICTED RIGHTS LEGEND
  
 Use, reproduction and disclosure by the US Government is
 subject to restrictions as set forth in subparagraphs (a)
 and (c) of the Commercial Computer Software - Restricted
 Rights clause in FAR 52.227-19.
  
 Gaussian, Inc.
 340 Quinnipiac St., Bldg. 40, Wallingford CT 06492
  
  
 ---------------------------------------------------------------
 Warning -- This program may not be used in any manner that
 competes with the business of Gaussian, Inc. or will provide
 assistance to any competitor of Gaussian, Inc.  The licensee
 of this program is prohibited from giving any competitor of
 Gaussian, Inc. access to this program.  By using this program,
 the user acknowledges that Gaussian, Inc. is engaged in the
 business of creating and licensing software in the field of
 computational chemistry and represents and warrants to the
 licensee that it is not a competitor of Gaussian, Inc. and that
 it will not use this program in any manner prohibited above.
 ---------------------------------------------------------------
  

 Cite this work as:
 Gaussian 09, Revision E.01,
 M. J. Frisch, G. W. Trucks, H. B. Schlegel, G. E. Scuseria, 
 M. A. Robb, J. R. Cheeseman, G. Scalmani, V. Barone, B. Mennucci, 
 G. A. Petersson, H. Nakatsuji, M. Caricato, X. Li, H. P. Hratchian, 
 A. F. Izmaylov, J. Bloino, G. Zheng, J. L. Sonnenberg, M. Hada, 
 M. Ehara, K. Toyota, R. Fukuda, J. Hasegawa, M. Ishida, T. Nakajima, 
 Y. Honda, O. Kitao, H. Nakai, T. Vreven, J. A. Montgomery, Jr., 
 J. E. Peralta, F. Ogliaro, M. Bearpark, J. J. Heyd, E. Brothers, 
 K. N. Kudin, V. N. Staroverov, T. Keith, R. Kobayashi, J. Normand, 
 K. Raghavachari, A. Rendell, J. C. Burant, S. S. Iyengar, J. Tomasi, 
 M. Cossi, N. Rega, J. M. Millam, M. Klene, J. E. Knox, J. B. Cross, 
 V. Bakken, C. Adamo, J. Jaramillo, R. Gomperts, R. E. Stratmann, 
 O. Yazyev, A. J. Austin, R. Cammi, C. Pomelli, J. W. Ochterski, 
 R. L. Martin, K. Morokuma, V. G. Zakrzewski, G. A. Voth, 
 P. Salvador, J. J. Dannenberg, S. Dapprich, A. D. Daniels, 
 O. Farkas, J. B. Foresman, J. V. Ortiz, J. Cioslowski, 
 and D. J. Fox, Gaussian, Inc., Wallingford CT, 2013.
 
 ******************************************
 Gaussian 09:  ES64L-G09RevE.01 30-Nov-2015
                 9-Feb-2017 
 ******************************************
 %chk=h10.chk
 ----------------------------------------------------------------------
 #rhf/gen scf(symm,tight,novaracc,noincfock,fulldiag) stable(crhf) geom
 =nocrowd test
 ----------------------------------------------------------------------
 1/38=1/1;
 2/12=1,17=6,18=5,40=1/2;
 3/5=7,16=1,25=1,30=1,116=1/1,2,3;
 4/9=4/1;
 5/5=100002,15=2,16=1,32=2,38=1/2;
 8/6=1,10=90,11=11/1,4;
 9/8=4,13=1/2;
 6/7=2,8=2,9=2,10=2,28=1/1;
 99/5=1,9=1/99;
 ----------------------------------------------------------------------
 hf stability analysis of h10 triangular lattice, y= 1.0071039844440590
 ----------------------------------------------------------------------
 Symbolic Z-matrix:
 Charge =  0 Multiplicity = 1
 H
 H                    1     1.15884 
 H                    1     1.15884  2     59.3 
 H                    2     1.15884  1     120.7    3     0.       0
 H                    3     1.15884  4     180.     1     0.       0
 H                    3     1.15884  1     180.     2     0.       0
 H                    3     1.14656  2     180.     1     0.       0
 H                    7     1.15884  6     180.     1     0.       0
 H                    7     1.15884  5     180.     2     0.       0
 H                    7     1.14656  3     180.     1     0.       0
 
                          Input orientation:                          
 ---------------------------------------------------------------------
 Center     Atomic      Atomic             Coordinates (Angstroms)
 Number     Number       Type             X           Y           Z
 ---------------------------------------------------------------------
      1          1           0        0.000000    0.000000    0.000000
      2          1           0        0.000000    0.000000    1.158838
      3          1           0        0.996430    0.000000    0.591637
      4          1           0        0.996430    0.000000    1.750475
      5          1           0        0.996430    0.000000   -0.567202
      6          1           0        1.992859    0.000000    1.183273
      7          1           0        1.992859    0.000000    0.024435
      8          1           0        1.992859    0.000000   -1.134403
      9          1           0        2.989289    0.000000    0.616072
     10          1           0        2.989289    0.000000   -0.542766
 ---------------------------------------------------------------------
                    Distance matrix (angstroms):
                    1          2          3          4          5
     1  H    0.000000
     2  H    1.158838   0.000000
     3  H    1.158838   1.146555   0.000000
     4  H    2.014208   1.158838   1.158838   0.000000
     5  H    1.146555   1.993009   1.158838   2.317676   0.000000
     6  H    2.317676   1.993009   1.158838   1.146555   2.014208
     7  H    1.993009   2.293111   1.146555   1.993009   1.158838
     8  H    2.293111   3.038164   1.993009   3.052113   1.146555
     9  H    3.052113   3.038164   1.993009   2.293111   2.317676
    10  H    3.038164   3.439666   2.293111   3.038164   1.993009
                    6          7          8          9         10
     6  H    0.000000
     7  H    1.158838   0.000000
     8  H    2.317676   1.158838   0.000000
     9  H    1.146555   1.158838   2.014208   0.000000
    10  H    1.993009   1.146555   1.158838   1.158838   0.000000
 Stoichiometry    H10
 Framework group  D2H[C2'(H.H),C2"(HH.HH),SG(H4)]
 Deg. of freedom     5
 Full point group                 D2H     NOp   8
 Largest Abelian subgroup         D2H     NOp   8
 Largest concise Abelian subgroup D2      NOp   4
                         Standard orientation:                         
 ---------------------------------------------------------------------
 Center     Atomic      Atomic             Coordinates (Angstroms)
 Number     Number       Type             X           Y           Z
 ---------------------------------------------------------------------
      1          1           0        0.000000    1.007104    1.146555
      2          1           0       -0.000000    0.000000    1.719833
      3          1           0       -0.000000    0.000000    0.573278
      4          1           0       -0.000000   -1.007104    1.146555
      5          1           0       -0.000000    1.007104   -0.000000
      6          1           0       -0.000000   -1.007104    0.000000
      7          1           0        0.000000   -0.000000   -0.573278
      8          1           0        0.000000    1.007104   -1.146555
      9          1           0       -0.000000   -1.007104   -1.146555
     10          1           0        0.000000   -0.000000   -1.719833
 ---------------------------------------------------------------------
 Rotational constants (GHZ):     82.4009443     42.3837536     27.9878974
 General basis read from cards:  (5D, 7F)
 There are     4 symmetry adapted cartesian basis functions of AG  symmetry.
 There are     0 symmetry adapted cartesian basis functions of B1G symmetry.
 There are     0 symmetry adapted cartesian basis functions of B2G symmetry.
 There are     1 symmetry adapted cartesian basis functions of B3G symmetry.
 There are     0 symmetry adapted cartesian basis functions of AU  symmetry.
 There are     3 symmetry adapted cartesian basis functions of B1U symmetry.
 There are     2 symmetry adapted cartesian basis functions of B2U symmetry.
 There are     0 symmetry adapted cartesian basis functions of B3U symmetry.
 There are     4 symmetry adapted basis functions of AG  symmetry.
 There are     0 symmetry adapted basis functions of B1G symmetry.
 There are     0 symmetry adapted basis functions of B2G symmetry.
 There are     1 symmetry adapted basis functions of B3G symmetry.
 There are     0 symmetry adapted basis functions of AU  symmetry.
 There are     3 symmetry adapted basis functions of B1U symmetry.
 There are     2 symmetry adapted basis functions of B2U symmetry.
 There are     0 symmetry adapted basis functions of B3U symmetry.
    10 basis functions,   100 primitive gaussians,    10 cartesian basis functions
     5 alpha electrons        5 beta electrons
       nuclear repulsion energy        14.6564674058 Hartrees.
 NAtoms=   10 NActive=   10 NUniq=    4 SFac= 4.00D+00 NAtFMM=   60 NAOKFM=F Big=F
 Integral buffers will be    131072 words long.
 Regular integral format.
 Two-electron integral symmetry is turned on.
 One-electron integrals computed using PRISM.
 NBasis=    10 RedAO= T EigKep=  1.86D-01  NBF=     4     0     0     1     0     3     2     0
 NBsUse=    10 1.00D-06 EigRej= -1.00D+00 NBFU=     4     0     0     1     0     3     2     0
 ExpMin= 3.16D-02 ExpMax= 1.00D+03 ExpMxC= 1.00D+01 IAcc=3 IRadAn=         5 AccDes= 0.00D+00
 Harris functional with IExCor=  205 and IRadAn=       5 diagonalized for initial guess.
 HarFok:  IExCor=  205 AccDes= 0.00D+00 IRadAn=         5 IDoV= 1 UseB2=F ITyADJ=14
 ICtDFT=  3500011 ScaDFX=  1.000000  1.000000  1.000000  1.000000
 FoFCou: FMM=F IPFlag=           0 FMFlag=      100000 FMFlg1=           0
         NFxFlg=           0 DoJE=T BraDBF=F KetDBF=T FulRan=T
         wScrn=  0.000000 ICntrl=     500 IOpCl=  0 I1Cent=   200000004 NGrid=           0
         NMat0=    1 NMatS0=      1 NMatT0=    0 NMatD0=    1 NMtDS0=    0 NMtDT0=    0
 Petite list used in FoFCou.
 Initial guess orbital symmetries:
       Occupied  (AG) (B1U) (B2U) (AG) (B3G)
       Virtual   (AG) (B1U) (B2U) (B1U) (AG)
 The electronic state of the initial guess is 1-AG.
 Keep R1 ints in memory in symmetry-blocked form, NReq=881629.
 Requested convergence on RMS density matrix=1.00D-08 within 128 cycles.
 Requested convergence on MAX density matrix=1.00D-06.
 Requested convergence on             energy=1.00D-06.
 No special actions if energy rises.
 SCF Done:  E(RHF) =  -4.93778765259     A.U. after    9 cycles
            NFock=  9  Conv=0.28D-09     -V/T= 1.9728
 Range of M.O.s used for correlation:     1    10
 NBasis=    10 NAE=     5 NBE=     5 NFC=     0 NFV=     0
 NROrb=     10 NOA=     5 NOB=     5 NVA=     5 NVB=     5
 Semi-Direct transformation.
 ModeAB=           4 MOrb=             5 LenV=     134104124
 LASXX=         1030 LTotXX=        1030 LenRXX=        2480
 LTotAB=        1450 MaxLAS=        1000 LenRXY=           0
 NonZer=        3510 LenScr=      655360 LnRSAI=        1000
 LnScr1=      655360 LExtra=           0 Total=      1314200
 MaxDsk=          -1 SrtSym=           T ITran=            3
 JobTyp=0 Pass  1:  I=   1 to   5.
 (rs|ai) integrals will be sorted in core.
 Spin components of T(2) and E(2):
     alpha-alpha T2 =       0.5823436733D-02 E2=     -0.7993329425D-02
     alpha-beta  T2 =       0.5728419867D-01 E2=     -0.8626548417D-01
     beta-beta   T2 =       0.5823436733D-02 E2=     -0.7993329425D-02
 ANorm=    0.1033891228D+01
 E2 =    -0.1022521430D+00 EUMP2 =    -0.50400397956114D+01
 Second order stability test of a single determinant RHF wave function:
 Stabil:  MDV=134217728
 ***********************************************************************
 Matrix         Lowest Root    Major Pairs
 ***********************************************************************
 Internal RHF     0.1968966    Stable
 RRHF --> CRHF    0.1528772    Stable
 RRHF --> RUHF    0.0434592    Stable
 Stable under the perturbations considered.
 ***********************************************************************

 **********************************************************************

            Population analysis using the SCF density.

 **********************************************************************

 Orbital symmetries:
       Occupied  (AG) (B1U) (B2U) (AG) (B3G)
       Virtual   (AG) (B1U) (B2U) (B1U) (AG)
 The electronic state is 1-AG.
 Alpha  occ. eigenvalues --   -0.96817  -0.72551  -0.61448  -0.39536  -0.34029
 Alpha virt. eigenvalues --    0.09580   0.22349   0.27514   0.39802   0.61152
          Condensed to atoms (all electrons):
               1          2          3          4          5          6
     1  H    1.083327   0.214116   0.035839  -0.142816   0.056837  -0.059659
     2  H    0.214116   0.869257  -0.065135   0.214116  -0.095122  -0.095122
     3  H    0.035839  -0.065135   0.629574   0.035839   0.177005   0.177005
     4  H   -0.142816   0.214116   0.035839   1.083327  -0.059659   0.056837
     5  H    0.056837  -0.095122   0.177005  -0.059659   0.780439  -0.021667
     6  H   -0.059659  -0.095122   0.177005   0.056837  -0.021667   0.780439
     7  H   -0.052018  -0.074897   0.084383  -0.052018   0.177005   0.177005
     8  H   -0.086739   0.009342  -0.052018   0.033405   0.056837  -0.059659
     9  H    0.033405   0.009342  -0.052018  -0.086739  -0.059659   0.056837
    10  H    0.009342   0.018366  -0.074897   0.009342  -0.095122  -0.095122
               7          8          9         10
     1  H   -0.052018  -0.086739   0.033405   0.009342
     2  H   -0.074897   0.009342   0.009342   0.018366
     3  H    0.084383  -0.052018  -0.052018  -0.074897
     4  H   -0.052018   0.033405  -0.086739   0.009342
     5  H    0.177005   0.056837  -0.059659  -0.095122
     6  H    0.177005  -0.059659   0.056837  -0.095122
     7  H    0.629574   0.035839   0.035839  -0.065135
     8  H    0.035839   1.083327  -0.142816   0.214116
     9  H    0.035839  -0.142816   1.083327   0.214116
    10  H   -0.065135   0.214116   0.214116   0.869257
 Mulliken charges:
               1
     1  H   -0.091633
     2  H   -0.004262
     3  H    0.104423
     4  H   -0.091633
     5  H    0.083106
     6  H    0.083106
     7  H    0.104423
     8  H   -0.091633
     9  H   -0.091633
    10  H   -0.004262
 Sum of Mulliken charges =  -0.00000
 Mulliken charges with hydrogens summed into heavy atoms:
               1
 Electronic spatial extent (au):  <R**2>=             98.9614
 Charge=              0.0000 electrons
 Dipole moment (field-independent basis, Debye):
    X=              0.0000    Y=              0.0000    Z=              0.0000  Tot=              0.0000
 Quadrupole moment (field-independent basis, Debye-Ang):
   XX=            -12.8375   YY=            -15.3009   ZZ=            -18.9097
   XY=             -0.0000   XZ=              0.0000   YZ=             -0.0000
 Traceless Quadrupole moment (field-independent basis, Debye-Ang):
   XX=              2.8452   YY=              0.3818   ZZ=             -3.2270
   XY=             -0.0000   XZ=              0.0000   YZ=             -0.0000
 Octapole moment (field-independent basis, Debye-Ang**2):
  XXX=             -0.0000  YYY=              0.0000  ZZZ=              0.0000  XYY=             -0.0000
  XXY=             -0.0000  XXZ=             -0.0000  XZZ=             -0.0000  YZZ=              0.0000
  YYZ=             -0.0000  XYZ=              0.0000
 Hexadecapole moment (field-independent basis, Debye-Ang**3):
 XXXX=            -15.3172 YYYY=            -69.4823 ZZZZ=           -136.7687 XXXY=             -0.0000
 XXXZ=              0.0000 YYYX=             -0.0000 YYYZ=             -0.0000 ZZZX=              0.0000
 ZZZY=             -0.0000 XXYY=            -13.9249 XXZZ=            -22.7784 YYZZ=            -37.5969
 XXYZ=             -0.0000 YYXZ=              0.0000 ZZXY=             -0.0000
 N-N= 1.465646740580D+01 E-N=-3.817686010695D+01  KE= 5.075979874570D+00
 Symmetry AG   KE= 1.894437434722D+00
 Symmetry B1G  KE= 0.000000000000D+00
 Symmetry B2G  KE= 0.000000000000D+00
 Symmetry B3G  KE= 1.451223807171D+00
 Symmetry AU   KE= 0.000000000000D+00
 Symmetry B1U  KE= 8.026898499975D-01
 Symmetry B2U  KE= 9.276287826789D-01
 Symmetry B3U  KE= 0.000000000000D+00

 Test job not archived.
 1\1\GINC-SULU\Stability\RHF\Gen\H10\LCJ1\09-Feb-2017\0\\#rhf/gen scf(s
 ymm,tight,novaracc,noincfock,fulldiag) stable(crhf) geom=nocrowd test\
 \hf stability analysis of h10 triangular lattice, y= 1.007103984444059
 0\\0,1\H\H,1,1.1588381129\H,1,1.1588381129,2,59.3\H,2,1.1588381129,1,1
 20.7,3,0.,0\H,3,1.1588381129,4,180.,1,0.,0\H,3,1.1588381129,1,180.,2,0
 .,0\H,3,1.1465554265,2,180.,1,0.,0\H,7,1.1588381129,6,180.,1,0.,0\H,7,
 1.1588381129,5,180.,2,0.,0\H,7,1.1465554265,3,180.,1,0.,0\\Version=ES6
 4L-G09RevE.01\State=1-AG\HF=-4.9377877\MP2=-5.0400398\RMSD=2.814e-10\D
 ipole=0.,0.,0.\Quadrupole=-1.7425781,2.1153423,-0.3727642,0.,1.1535148
 ,0.\PG=D02H [C2'(H1.H1),C2"(H1H1.H1H1),SG(H4)]\\@


 THE CHYMISTS ARE A STRANGE CLASS OF MORTALS IMPELLED
 BY AN ALMOST INSANE IMPULSE TO SEEK THEIR PLEASURE
 AMONG SMOKE AND VAPOR, SOOT AND FLAME, POISONS AND
 POVERTY; YET AMONG ALL THESE EVILS I SEEM TO LIVE
 SO SWEETLY, THAT I MAY DIE IF I WOULD CHANGE PLACES
 WITH THE PERSIAN KING.
   --  JOHANN JOACHIM BECHER, 1635-1682
 ACTA LABORATORII CHYMICA MONACENSIS, 1669
 Job cpu time:       0 days  0 hours  0 minutes  0.8 seconds.
 File lengths (MBytes):  RWF=     84 Int=      0 D2E=      0 Chk=      2 Scr=      2
 Normal termination of Gaussian 09 at Thu Feb  9 16:17:23 2017.
