 Entering Gaussian System, Link 0=g09
 AtFile(1): H.gbs
            H     0
            S   10   1.00
               1000.000000000000            0.000068713567
                316.227766000000            0.000169141320
                100.000000000000            0.000823394812
                 31.622776600000            0.003425569236
                 10.000000000000            0.013951996000
                  3.162277660000            0.056909313560
                  1.000000000000            0.198286399900
                  0.316227766000            0.496922426700
                  0.100000000000            0.369846276400
                  0.031622776600            0.003752720039
            ****
 Initial command:
 /projects/guscus/apps/gau/g09-e1/g09/l1.exe "/users/lcj1/gaussian/h10/rhfstability/3rows/zmatrix/fwd/Gau-31419.inp" -scrdir="/users/lcj1/gaussian/h10/rhfstability/3rows/zmatrix/fwd/"
 Entering Link 1 = /projects/guscus/apps/gau/g09-e1/g09/l1.exe PID=     31420.
  
 Copyright (c) 1988,1990,1992,1993,1995,1998,2003,2009,2015,
            Gaussian, Inc.  All Rights Reserved.
  
 This is part of the Gaussian(R) 09 program.  It is based on
 the Gaussian(R) 03 system (copyright 2003, Gaussian, Inc.),
 the Gaussian(R) 98 system (copyright 1998, Gaussian, Inc.),
 the Gaussian(R) 94 system (copyright 1995, Gaussian, Inc.),
 the Gaussian 92(TM) system (copyright 1992, Gaussian, Inc.),
 the Gaussian 90(TM) system (copyright 1990, Gaussian, Inc.),
 the Gaussian 88(TM) system (copyright 1988, Gaussian, Inc.),
 the Gaussian 86(TM) system (copyright 1986, Carnegie Mellon
 University), and the Gaussian 82(TM) system (copyright 1983,
 Carnegie Mellon University). Gaussian is a federally registered
 trademark of Gaussian, Inc.
  
 This software contains proprietary and confidential information,
 including trade secrets, belonging to Gaussian, Inc.
  
 This software is provided under written license and may be
 used, copied, transmitted, or stored only in accord with that
 written license.
  
 The following legend is applicable only to US Government
 contracts under FAR:
  
                    RESTRICTED RIGHTS LEGEND
  
 Use, reproduction and disclosure by the US Government is
 subject to restrictions as set forth in subparagraphs (a)
 and (c) of the Commercial Computer Software - Restricted
 Rights clause in FAR 52.227-19.
  
 Gaussian, Inc.
 340 Quinnipiac St., Bldg. 40, Wallingford CT 06492
  
  
 ---------------------------------------------------------------
 Warning -- This program may not be used in any manner that
 competes with the business of Gaussian, Inc. or will provide
 assistance to any competitor of Gaussian, Inc.  The licensee
 of this program is prohibited from giving any competitor of
 Gaussian, Inc. access to this program.  By using this program,
 the user acknowledges that Gaussian, Inc. is engaged in the
 business of creating and licensing software in the field of
 computational chemistry and represents and warrants to the
 licensee that it is not a competitor of Gaussian, Inc. and that
 it will not use this program in any manner prohibited above.
 ---------------------------------------------------------------
  

 Cite this work as:
 Gaussian 09, Revision E.01,
 M. J. Frisch, G. W. Trucks, H. B. Schlegel, G. E. Scuseria, 
 M. A. Robb, J. R. Cheeseman, G. Scalmani, V. Barone, B. Mennucci, 
 G. A. Petersson, H. Nakatsuji, M. Caricato, X. Li, H. P. Hratchian, 
 A. F. Izmaylov, J. Bloino, G. Zheng, J. L. Sonnenberg, M. Hada, 
 M. Ehara, K. Toyota, R. Fukuda, J. Hasegawa, M. Ishida, T. Nakajima, 
 Y. Honda, O. Kitao, H. Nakai, T. Vreven, J. A. Montgomery, Jr., 
 J. E. Peralta, F. Ogliaro, M. Bearpark, J. J. Heyd, E. Brothers, 
 K. N. Kudin, V. N. Staroverov, T. Keith, R. Kobayashi, J. Normand, 
 K. Raghavachari, A. Rendell, J. C. Burant, S. S. Iyengar, J. Tomasi, 
 M. Cossi, N. Rega, J. M. Millam, M. Klene, J. E. Knox, J. B. Cross, 
 V. Bakken, C. Adamo, J. Jaramillo, R. Gomperts, R. E. Stratmann, 
 O. Yazyev, A. J. Austin, R. Cammi, C. Pomelli, J. W. Ochterski, 
 R. L. Martin, K. Morokuma, V. G. Zakrzewski, G. A. Voth, 
 P. Salvador, J. J. Dannenberg, S. Dapprich, A. D. Daniels, 
 O. Farkas, J. B. Foresman, J. V. Ortiz, J. Cioslowski, 
 and D. J. Fox, Gaussian, Inc., Wallingford CT, 2013.
 
 ******************************************
 Gaussian 09:  ES64L-G09RevE.01 30-Nov-2015
                 9-Feb-2017 
 ******************************************
 %chk=h10.chk
 ----------------------------------------------------------------------
 #rhf/gen scf(symm,tight,novaracc,noincfock,fulldiag) stable(crhf) geom
 =nocrowd test
 ----------------------------------------------------------------------
 1/38=1/1;
 2/12=1,17=6,18=5,40=1/2;
 3/5=7,16=1,25=1,30=1,116=1/1,2,3;
 4/9=4/1;
 5/5=100002,15=2,16=1,32=2,38=1/2;
 8/6=1,10=90,11=11/1,4;
 9/8=4,13=1/2;
 6/7=2,8=2,9=2,10=2,28=1/1;
 99/5=1,9=1/99;
 ----------------------------------------------------------------------
 hf stability analysis of h10 triangular lattice, y= 0.8705633810941086
 9
 ----------------------------------------------------------------------
 Symbolic Z-matrix:
 Charge =  0 Multiplicity = 1
 H
 H                    1     1.0944 
 H                    1     1.0944   2     74.6 
 H                    2     1.0944   1     105.4    3     0.       0
 H                    3     1.0944   4     180.     1     0.       0
 H                    3     1.0944   1     180.     2     0.       0
 H                    3     1.32638  2     180.     1     0.       0
 H                    7     1.0944   6     180.     1     0.       0
 H                    7     1.0944   5     180.     2     0.       0
 H                    7     1.32638  3     180.     1     0.       0
 
                          Input orientation:                          
 ---------------------------------------------------------------------
 Center     Atomic      Atomic             Coordinates (Angstroms)
 Number     Number       Type             X           Y           Z
 ---------------------------------------------------------------------
      1          1           0        0.000000    0.000000    0.000000
      2          1           0        0.000000    0.000000    1.094396
      3          1           0        1.055103    0.000000    0.290624
      4          1           0        1.055103    0.000000    1.385020
      5          1           0        1.055103    0.000000   -0.803773
      6          1           0        2.110205    0.000000    0.581247
      7          1           0        2.110205    0.000000   -0.513149
      8          1           0        2.110205    0.000000   -1.607546
      9          1           0        3.165308    0.000000   -0.222525
     10          1           0        3.165308    0.000000   -1.316922
 ---------------------------------------------------------------------
                    Distance matrix (angstroms):
                    1          2          3          4          5
     1  H    0.000000
     2  H    1.094396   0.000000
     3  H    1.094396   1.326383   0.000000
     4  H    1.741127   1.094396   1.094396   0.000000
     5  H    1.326383   2.171702   1.094396   2.188793   0.000000
     6  H    2.188793   2.171702   1.094396   1.326383   1.741127
     7  H    2.171702   2.652766   1.326383   2.171702   1.094396
     8  H    2.652766   3.428331   2.171702   3.173120   1.326383
     9  H    3.173120   3.428331   2.171702   2.652766   2.188793
    10  H    3.428331   3.979149   2.652766   3.428331   2.171702
                    6          7          8          9         10
     6  H    0.000000
     7  H    1.094396   0.000000
     8  H    2.188793   1.094396   0.000000
     9  H    1.326383   1.094396   1.741127   0.000000
    10  H    2.171702   1.326383   1.094396   1.094396   0.000000
 Stoichiometry    H10
 Framework group  D2H[C2'(H.H),C2"(HH.HH),SG(H4)]
 Deg. of freedom     5
 Full point group                 D2H     NOp   8
 Largest Abelian subgroup         D2H     NOp   8
 Largest concise Abelian subgroup D2      NOp   4
                         Standard orientation:                         
 ---------------------------------------------------------------------
 Center     Atomic      Atomic             Coordinates (Angstroms)
 Number     Number       Type             X           Y           Z
 ---------------------------------------------------------------------
      1          1           0        0.000000    0.870563    1.326383
      2          1           0        0.000000   -0.000000    1.989575
      3          1           0        0.000000   -0.000000    0.663192
      4          1           0       -0.000000   -0.870563    1.326383
      5          1           0       -0.000000    0.870563    0.000000
      6          1           0       -0.000000   -0.870563   -0.000000
      7          1           0        0.000000    0.000000   -0.663192
      8          1           0        0.000000    0.870563   -1.326383
      9          1           0       -0.000000   -0.870563   -1.326383
     10          1           0        0.000000    0.000000   -1.989575
 ---------------------------------------------------------------------
 Rotational constants (GHZ):    110.2757522     31.6702568     24.6041535
 General basis read from cards:  (5D, 7F)
 There are     4 symmetry adapted cartesian basis functions of AG  symmetry.
 There are     0 symmetry adapted cartesian basis functions of B1G symmetry.
 There are     0 symmetry adapted cartesian basis functions of B2G symmetry.
 There are     1 symmetry adapted cartesian basis functions of B3G symmetry.
 There are     0 symmetry adapted cartesian basis functions of AU  symmetry.
 There are     3 symmetry adapted cartesian basis functions of B1U symmetry.
 There are     2 symmetry adapted cartesian basis functions of B2U symmetry.
 There are     0 symmetry adapted cartesian basis functions of B3U symmetry.
 There are     4 symmetry adapted basis functions of AG  symmetry.
 There are     0 symmetry adapted basis functions of B1G symmetry.
 There are     0 symmetry adapted basis functions of B2G symmetry.
 There are     1 symmetry adapted basis functions of B3G symmetry.
 There are     0 symmetry adapted basis functions of AU  symmetry.
 There are     3 symmetry adapted basis functions of B1U symmetry.
 There are     2 symmetry adapted basis functions of B2U symmetry.
 There are     0 symmetry adapted basis functions of B3U symmetry.
    10 basis functions,   100 primitive gaussians,    10 cartesian basis functions
     5 alpha electrons        5 beta electrons
       nuclear repulsion energy        14.3052111497 Hartrees.
 NAtoms=   10 NActive=   10 NUniq=    4 SFac= 4.00D+00 NAtFMM=   60 NAOKFM=F Big=F
 Integral buffers will be    131072 words long.
 Regular integral format.
 Two-electron integral symmetry is turned on.
 One-electron integrals computed using PRISM.
 NBasis=    10 RedAO= T EigKep=  1.90D-01  NBF=     4     0     0     1     0     3     2     0
 NBsUse=    10 1.00D-06 EigRej= -1.00D+00 NBFU=     4     0     0     1     0     3     2     0
 ExpMin= 3.16D-02 ExpMax= 1.00D+03 ExpMxC= 1.00D+01 IAcc=3 IRadAn=         5 AccDes= 0.00D+00
 Harris functional with IExCor=  205 and IRadAn=       5 diagonalized for initial guess.
 HarFok:  IExCor=  205 AccDes= 0.00D+00 IRadAn=         5 IDoV= 1 UseB2=F ITyADJ=14
 ICtDFT=  3500011 ScaDFX=  1.000000  1.000000  1.000000  1.000000
 FoFCou: FMM=F IPFlag=           0 FMFlag=      100000 FMFlg1=           0
         NFxFlg=           0 DoJE=T BraDBF=F KetDBF=T FulRan=T
         wScrn=  0.000000 ICntrl=     500 IOpCl=  0 I1Cent=   200000004 NGrid=           0
         NMat0=    1 NMatS0=      1 NMatT0=    0 NMatD0=    1 NMtDS0=    0 NMtDT0=    0
 Petite list used in FoFCou.
 Initial guess orbital symmetries:
       Occupied  (AG) (B1U) (B2U) (AG) (B3G)
       Virtual   (B1U) (B2U) (AG) (AG) (B1U)
 The electronic state of the initial guess is 1-AG.
 Keep R1 ints in memory in symmetry-blocked form, NReq=880789.
 Requested convergence on RMS density matrix=1.00D-08 within 128 cycles.
 Requested convergence on MAX density matrix=1.00D-06.
 Requested convergence on             energy=1.00D-06.
 No special actions if energy rises.
 SCF Done:  E(RHF) =  -4.95907572633     A.U. after    8 cycles
            NFock=  8  Conv=0.15D-08     -V/T= 1.9925
 Range of M.O.s used for correlation:     1    10
 NBasis=    10 NAE=     5 NBE=     5 NFC=     0 NFV=     0
 NROrb=     10 NOA=     5 NOB=     5 NVA=     5 NVB=     5
 Semi-Direct transformation.
 ModeAB=           4 MOrb=             5 LenV=     134105300
 LASXX=         1030 LTotXX=        1030 LenRXX=        2480
 LTotAB=        1450 MaxLAS=        1000 LenRXY=           0
 NonZer=        3510 LenScr=      655360 LnRSAI=        1000
 LnScr1=      655360 LExtra=           0 Total=      1314200
 MaxDsk=          -1 SrtSym=           T ITran=            3
 JobTyp=0 Pass  1:  I=   1 to   5.
 (rs|ai) integrals will be sorted in core.
 Spin components of T(2) and E(2):
     alpha-alpha T2 =       0.5809310867D-02 E2=     -0.7485621909D-02
     alpha-beta  T2 =       0.5528353118D-01 E2=     -0.8152323296D-01
     beta-beta   T2 =       0.5809310867D-02 E2=     -0.7485621909D-02
 ANorm=    0.1032909557D+01
 E2 =    -0.9649447678D-01 EUMP2 =    -0.50555702031132D+01
 Second order stability test of a single determinant RHF wave function:
 Stabil:  MDV=134217728
 ***********************************************************************
 Matrix         Lowest Root    Major Pairs
 ***********************************************************************
 Internal RHF     0.1050363    Stable
 RRHF --> CRHF    0.1023301    Stable
 RRHF --> RUHF    0.0448906    Stable
 Stable under the perturbations considered.
 ***********************************************************************

 **********************************************************************

            Population analysis using the SCF density.

 **********************************************************************

 Orbital symmetries:
       Occupied  (AG) (B1U) (B2U) (AG) (B3G)
       Virtual   (B1U) (B2U) (AG) (AG) (B1U)
 The electronic state is 1-AG.
 Alpha  occ. eigenvalues --   -0.94562  -0.74671  -0.54142  -0.46883  -0.31734
 Alpha virt. eigenvalues --    0.08225   0.19420   0.30923   0.49301   0.50327
          Condensed to atoms (all electrons):
               1          2          3          4          5          6
     1  H    1.183222   0.202888   0.042519  -0.218083   0.075072  -0.080444
     2  H    0.202888   0.622426  -0.013243   0.202888  -0.058482  -0.058482
     3  H    0.042519  -0.013243   0.555646   0.042519   0.156948   0.156948
     4  H   -0.218083   0.202888   0.042519   1.183222  -0.080444   0.075072
     5  H    0.075072  -0.058482   0.156948  -0.080444   0.793615  -0.056927
     6  H   -0.080444  -0.058482   0.156948   0.075072  -0.056927   0.793615
     7  H   -0.036521  -0.033151   0.061435  -0.036521   0.156948   0.156948
     8  H   -0.051019   0.004743  -0.036521   0.028127   0.075072  -0.080444
     9  H    0.028127   0.004743  -0.036521  -0.051019  -0.080444   0.075072
    10  H    0.004743   0.005210  -0.033151   0.004743  -0.058482  -0.058482
               7          8          9         10
     1  H   -0.036521  -0.051019   0.028127   0.004743
     2  H   -0.033151   0.004743   0.004743   0.005210
     3  H    0.061435  -0.036521  -0.036521  -0.033151
     4  H   -0.036521   0.028127  -0.051019   0.004743
     5  H    0.156948   0.075072  -0.080444  -0.058482
     6  H    0.156948  -0.080444   0.075072  -0.058482
     7  H    0.555646   0.042519   0.042519  -0.013243
     8  H    0.042519   1.183222  -0.218083   0.202888
     9  H    0.042519  -0.218083   1.183222   0.202888
    10  H   -0.013243   0.202888   0.202888   0.622426
 Mulliken charges:
               1
     1  H   -0.150504
     2  H    0.120462
     3  H    0.103421
     4  H   -0.150504
     5  H    0.077124
     6  H    0.077124
     7  H    0.103421
     8  H   -0.150504
     9  H   -0.150504
    10  H    0.120462
 Sum of Mulliken charges =  -0.00000
 Mulliken charges with hydrogens summed into heavy atoms:
               1
 Electronic spatial extent (au):  <R**2>=            106.6354
 Charge=             -0.0000 electrons
 Dipole moment (field-independent basis, Debye):
    X=              0.0000    Y=             -0.0000    Z=              0.0000  Tot=              0.0000
 Quadrupole moment (field-independent basis, Debye-Ang):
   XX=            -12.9312   YY=            -17.1638   ZZ=            -15.4397
   XY=             -0.0000   XZ=             -0.0000   YZ=             -0.0000
 Traceless Quadrupole moment (field-independent basis, Debye-Ang):
   XX=              2.2470   YY=             -1.9856   ZZ=             -0.2614
   XY=             -0.0000   XZ=             -0.0000   YZ=             -0.0000
 Octapole moment (field-independent basis, Debye-Ang**2):
  XXX=             -0.0000  YYY=             -0.0000  ZZZ=              0.0000  XYY=             -0.0000
  XXY=             -0.0000  XXZ=             -0.0000  XZZ=              0.0000  YZZ=              0.0000
  YYZ=              0.0000  XYZ=              0.0000
 Hexadecapole moment (field-independent basis, Debye-Ang**3):
 XXXX=            -15.5175 YYYY=            -62.5571 ZZZZ=           -144.3546 XXXY=             -0.0000
 XXXZ=              0.0000 YYYX=             -0.0000 YYYZ=             -0.0000 ZZZX=              0.0000
 ZZZY=              0.0000 XXYY=            -12.5774 XXZZ=            -27.1646 YYZZ=            -43.1857
 XXYZ=              0.0000 YYXZ=              0.0000 ZZXY=             -0.0000
 N-N= 1.430521114965D+01 E-N=-3.748510900460D+01  KE= 4.996367965073D+00
 Symmetry AG   KE= 1.735647729247D+00
 Symmetry B1G  KE= 0.000000000000D+00
 Symmetry B2G  KE= 0.000000000000D+00
 Symmetry B3G  KE= 1.490689420100D+00
 Symmetry AU   KE= 0.000000000000D+00
 Symmetry B1U  KE= 7.512816318032D-01
 Symmetry B2U  KE= 1.018749183922D+00
 Symmetry B3U  KE= 0.000000000000D+00

 Test job not archived.
 1\1\GINC-SULU\Stability\RHF\Gen\H10\LCJ1\09-Feb-2017\0\\#rhf/gen scf(s
 ymm,tight,novaracc,noincfock,fulldiag) stable(crhf) geom=nocrowd test\
 \hf stability analysis of h10 triangular lattice, y= 0.870563381094108
 69\\0,1\H\H,1,1.0943964633\H,1,1.0943964633,2,74.6\H,2,1.0943964633,1,
 105.4,3,0.,0\H,3,1.0943964633,4,180.,1,0.,0\H,3,1.0943964633,1,180.,2,
 0.,0\H,3,1.3263830796,2,180.,1,0.,0\H,7,1.0943964633,6,180.,1,0.,0\H,7
 ,1.0943964633,5,180.,2,0.,0\H,7,1.3263830796,3,180.,1,0.,0\\Version=ES
 64L-G09RevE.01\State=1-AG\HF=-4.9590757\MP2=-5.0555702\RMSD=1.533e-09\
 Dipole=0.,0.,0.\Quadrupole=-0.6651061,1.6706176,-1.0055115,0.,-0.61791
 71,0.\PG=D02H [C2'(H1.H1),C2"(H1H1.H1H1),SG(H4)]\\@


 CONFIDENCE: THAT QUIET ASSURED FEELING YOU HAVE
 JUST BEFORE YOU FALL FLAT ON YOUR FACE.
 Job cpu time:       0 days  0 hours  0 minutes  0.8 seconds.
 File lengths (MBytes):  RWF=     84 Int=      0 D2E=      0 Chk=      2 Scr=      2
 Normal termination of Gaussian 09 at Thu Feb  9 16:12:05 2017.
