 Entering Gaussian System, Link 0=g09
 AtFile(1): H.gbs
            H     0
            S   10   1.00
               1000.000000000000            0.000068713567
                316.227766000000            0.000169141320
                100.000000000000            0.000823394812
                 31.622776600000            0.003425569236
                 10.000000000000            0.013951996000
                  3.162277660000            0.056909313560
                  1.000000000000            0.198286399900
                  0.316227766000            0.496922426700
                  0.100000000000            0.369846276400
                  0.031622776600            0.003752720039
            ****
 Initial command:
 /projects/guscus/apps/gau/g09-e1/g09/l1.exe "/users/lcj1/gaussian/h10/rhfstability/3rows/zmatrix/fwd/Gau-13242.inp" -scrdir="/users/lcj1/gaussian/h10/rhfstability/3rows/zmatrix/fwd/"
 Entering Link 1 = /projects/guscus/apps/gau/g09-e1/g09/l1.exe PID=     13243.
  
 Copyright (c) 1988,1990,1992,1993,1995,1998,2003,2009,2015,
            Gaussian, Inc.  All Rights Reserved.
  
 This is part of the Gaussian(R) 09 program.  It is based on
 the Gaussian(R) 03 system (copyright 2003, Gaussian, Inc.),
 the Gaussian(R) 98 system (copyright 1998, Gaussian, Inc.),
 the Gaussian(R) 94 system (copyright 1995, Gaussian, Inc.),
 the Gaussian 92(TM) system (copyright 1992, Gaussian, Inc.),
 the Gaussian 90(TM) system (copyright 1990, Gaussian, Inc.),
 the Gaussian 88(TM) system (copyright 1988, Gaussian, Inc.),
 the Gaussian 86(TM) system (copyright 1986, Carnegie Mellon
 University), and the Gaussian 82(TM) system (copyright 1983,
 Carnegie Mellon University). Gaussian is a federally registered
 trademark of Gaussian, Inc.
  
 This software contains proprietary and confidential information,
 including trade secrets, belonging to Gaussian, Inc.
  
 This software is provided under written license and may be
 used, copied, transmitted, or stored only in accord with that
 written license.
  
 The following legend is applicable only to US Government
 contracts under FAR:
  
                    RESTRICTED RIGHTS LEGEND
  
 Use, reproduction and disclosure by the US Government is
 subject to restrictions as set forth in subparagraphs (a)
 and (c) of the Commercial Computer Software - Restricted
 Rights clause in FAR 52.227-19.
  
 Gaussian, Inc.
 340 Quinnipiac St., Bldg. 40, Wallingford CT 06492
  
  
 ---------------------------------------------------------------
 Warning -- This program may not be used in any manner that
 competes with the business of Gaussian, Inc. or will provide
 assistance to any competitor of Gaussian, Inc.  The licensee
 of this program is prohibited from giving any competitor of
 Gaussian, Inc. access to this program.  By using this program,
 the user acknowledges that Gaussian, Inc. is engaged in the
 business of creating and licensing software in the field of
 computational chemistry and represents and warrants to the
 licensee that it is not a competitor of Gaussian, Inc. and that
 it will not use this program in any manner prohibited above.
 ---------------------------------------------------------------
  

 Cite this work as:
 Gaussian 09, Revision E.01,
 M. J. Frisch, G. W. Trucks, H. B. Schlegel, G. E. Scuseria, 
 M. A. Robb, J. R. Cheeseman, G. Scalmani, V. Barone, B. Mennucci, 
 G. A. Petersson, H. Nakatsuji, M. Caricato, X. Li, H. P. Hratchian, 
 A. F. Izmaylov, J. Bloino, G. Zheng, J. L. Sonnenberg, M. Hada, 
 M. Ehara, K. Toyota, R. Fukuda, J. Hasegawa, M. Ishida, T. Nakajima, 
 Y. Honda, O. Kitao, H. Nakai, T. Vreven, J. A. Montgomery, Jr., 
 J. E. Peralta, F. Ogliaro, M. Bearpark, J. J. Heyd, E. Brothers, 
 K. N. Kudin, V. N. Staroverov, T. Keith, R. Kobayashi, J. Normand, 
 K. Raghavachari, A. Rendell, J. C. Burant, S. S. Iyengar, J. Tomasi, 
 M. Cossi, N. Rega, J. M. Millam, M. Klene, J. E. Knox, J. B. Cross, 
 V. Bakken, C. Adamo, J. Jaramillo, R. Gomperts, R. E. Stratmann, 
 O. Yazyev, A. J. Austin, R. Cammi, C. Pomelli, J. W. Ochterski, 
 R. L. Martin, K. Morokuma, V. G. Zakrzewski, G. A. Voth, 
 P. Salvador, J. J. Dannenberg, S. Dapprich, A. D. Daniels, 
 O. Farkas, J. B. Foresman, J. V. Ortiz, J. Cioslowski, 
 and D. J. Fox, Gaussian, Inc., Wallingford CT, 2013.
 
 ******************************************
 Gaussian 09:  ES64L-G09RevE.01 30-Nov-2015
                 9-Feb-2017 
 ******************************************
 %chk=h10.chk
 ----------------------------------------------------------------------
 #rhf/gen scf(symm,tight,novaracc,noincfock,fulldiag) stable(crhf) geom
 =nocrowd test
 ----------------------------------------------------------------------
 1/38=1/1;
 2/12=1,17=6,18=5,40=1/2;
 3/5=7,16=1,25=1,30=1,116=1/1,2,3;
 4/9=4/1;
 5/5=100002,15=2,16=1,32=2,38=1/2;
 8/6=1,10=90,11=11/1,4;
 9/8=4,13=1/2;
 6/7=2,8=2,9=2,10=2,28=1/1;
 99/5=1,9=1/99;
 ----------------------------------------------------------------------
 hf stability analysis of h10 triangular lattice, y= 1.2577599974754754
 ----------------------------------------------------------------------
 Symbolic Z-matrix:
 Charge =  0 Multiplicity = 1
 H
 H                    1     1.33891 
 H                    1     1.33891  2     40.1 
 H                    2     1.33891  1     139.9    3     0.       0
 H                    3     1.33891  4     180.     1     0.       0
 H                    3     1.33891  1     180.     2     0.       0
 H                    3     0.91806  2     180.     1     0.       0
 H                    7     1.33891  6     180.     1     0.       0
 H                    7     1.33891  5     180.     2     0.       0
 H                    7     0.91806  3     180.     1     0.       0
 
                          Input orientation:                          
 ---------------------------------------------------------------------
 Center     Atomic      Atomic             Coordinates (Angstroms)
 Number     Number       Type             X           Y           Z
 ---------------------------------------------------------------------
      1          1           0        0.000000    0.000000    0.000000
      2          1           0        0.000000    0.000000    1.338906
      3          1           0        0.862421    0.000000    1.024158
      4          1           0        0.862421    0.000000    2.363064
      5          1           0        0.862421    0.000000   -0.314748
      6          1           0        1.724842    0.000000    2.048316
      7          1           0        1.724842    0.000000    0.709410
      8          1           0        1.724842    0.000000   -0.629496
      9          1           0        2.587263    0.000000    1.733568
     10          1           0        2.587263    0.000000    0.394662
 ---------------------------------------------------------------------
                    Distance matrix (angstroms):
                    1          2          3          4          5
     1  H    0.000000
     2  H    1.338906   0.000000
     3  H    1.338906   0.918061   0.000000
     4  H    2.515520   1.338906   1.338906   0.000000
     5  H    0.918061   1.865031   1.338906   2.677812   0.000000
     6  H    2.677812   1.865031   1.338906   0.918061   2.515520
     7  H    1.865031   1.836122   0.918061   1.865031   1.338906
     8  H    1.836122   2.617191   1.865031   3.114352   0.918061
     9  H    3.114352   2.617191   1.865031   1.836122   2.677812
    10  H    2.617191   2.754183   1.836122   2.617191   1.865031
                    6          7          8          9         10
     6  H    0.000000
     7  H    1.338906   0.000000
     8  H    2.677812   1.338906   0.000000
     9  H    0.918061   1.338906   2.515520   0.000000
    10  H    1.865031   0.918061   1.338906   1.338906   0.000000
 Stoichiometry    H10
 Framework group  D2H[C2'(H.H),C2"(HH.HH),SG(H4)]
 Deg. of freedom     5
 Full point group                 D2H     NOp   8
 Largest Abelian subgroup         D2H     NOp   8
 Largest concise Abelian subgroup D2      NOp   4
                         Standard orientation:                         
 ---------------------------------------------------------------------
 Center     Atomic      Atomic             Coordinates (Angstroms)
 Number     Number       Type             X           Y           Z
 ---------------------------------------------------------------------
      1          1           0       -0.000000    1.257760    0.918061
      2          1           0       -0.000000   -0.000000    1.377092
      3          1           0       -0.000000   -0.000000    0.459031
      4          1           0       -0.000000   -1.257760    0.918061
      5          1           0       -0.000000    1.257760    0.000000
      6          1           0       -0.000000   -1.257760   -0.000000
      7          1           0        0.000000    0.000000   -0.459031
      8          1           0        0.000000    1.257760   -0.918061
      9          1           0       -0.000000   -1.257760   -0.918061
     10          1           0        0.000000    0.000000   -1.377092
 ---------------------------------------------------------------------
 Rotational constants (GHZ):     66.1068298     52.8305652     29.3638614
 General basis read from cards:  (5D, 7F)
 There are     4 symmetry adapted cartesian basis functions of AG  symmetry.
 There are     0 symmetry adapted cartesian basis functions of B1G symmetry.
 There are     0 symmetry adapted cartesian basis functions of B2G symmetry.
 There are     1 symmetry adapted cartesian basis functions of B3G symmetry.
 There are     0 symmetry adapted cartesian basis functions of AU  symmetry.
 There are     3 symmetry adapted cartesian basis functions of B1U symmetry.
 There are     2 symmetry adapted cartesian basis functions of B2U symmetry.
 There are     0 symmetry adapted cartesian basis functions of B3U symmetry.
 There are     4 symmetry adapted basis functions of AG  symmetry.
 There are     0 symmetry adapted basis functions of B1G symmetry.
 There are     0 symmetry adapted basis functions of B2G symmetry.
 There are     1 symmetry adapted basis functions of B3G symmetry.
 There are     0 symmetry adapted basis functions of AU  symmetry.
 There are     3 symmetry adapted basis functions of B1U symmetry.
 There are     2 symmetry adapted basis functions of B2U symmetry.
 There are     0 symmetry adapted basis functions of B3U symmetry.
    10 basis functions,   100 primitive gaussians,    10 cartesian basis functions
     5 alpha electrons        5 beta electrons
       nuclear repulsion energy        14.9626252258 Hartrees.
 NAtoms=   10 NActive=   10 NUniq=    4 SFac= 4.00D+00 NAtFMM=   60 NAOKFM=F Big=F
 Integral buffers will be    131072 words long.
 Regular integral format.
 Two-electron integral symmetry is turned on.
 One-electron integrals computed using PRISM.
 NBasis=    10 RedAO= T EigKep=  1.46D-01  NBF=     4     0     0     1     0     3     2     0
 NBsUse=    10 1.00D-06 EigRej= -1.00D+00 NBFU=     4     0     0     1     0     3     2     0
 ExpMin= 3.16D-02 ExpMax= 1.00D+03 ExpMxC= 1.00D+01 IAcc=3 IRadAn=         5 AccDes= 0.00D+00
 Harris functional with IExCor=  205 and IRadAn=       5 diagonalized for initial guess.
 HarFok:  IExCor=  205 AccDes= 0.00D+00 IRadAn=         5 IDoV= 1 UseB2=F ITyADJ=14
 ICtDFT=  3500011 ScaDFX=  1.000000  1.000000  1.000000  1.000000
 FoFCou: FMM=F IPFlag=           0 FMFlag=      100000 FMFlg1=           0
         NFxFlg=           0 DoJE=T BraDBF=F KetDBF=T FulRan=T
         wScrn=  0.000000 ICntrl=     500 IOpCl=  0 I1Cent=   200000004 NGrid=           0
         NMat0=    1 NMatS0=      1 NMatT0=    0 NMatD0=    1 NMtDS0=    0 NMtDT0=    0
 Petite list used in FoFCou.
 Initial guess orbital symmetries:
       Occupied  (AG) (B2U) (B1U) (AG) (B3G)
       Virtual   (AG) (B1U) (B2U) (B1U) (AG)
 The electronic state of the initial guess is 1-AG.
 Keep R1 ints in memory in symmetry-blocked form, NReq=880663.
 Requested convergence on RMS density matrix=1.00D-08 within 128 cycles.
 Requested convergence on MAX density matrix=1.00D-06.
 Requested convergence on             energy=1.00D-06.
 No special actions if energy rises.
 SCF Done:  E(RHF) =  -4.92666620969     A.U. after    8 cycles
            NFock=  8  Conv=0.82D-08     -V/T= 1.9227
 Range of M.O.s used for correlation:     1    10
 NBasis=    10 NAE=     5 NBE=     5 NFC=     0 NFV=     0
 NROrb=     10 NOA=     5 NOB=     5 NVA=     5 NVB=     5
 Semi-Direct transformation.
 ModeAB=           4 MOrb=             5 LenV=     134105174
 LASXX=         1030 LTotXX=        1030 LenRXX=        2480
 LTotAB=        1450 MaxLAS=        1000 LenRXY=           0
 NonZer=        3510 LenScr=      655360 LnRSAI=        1000
 LnScr1=      655360 LExtra=           0 Total=      1314200
 MaxDsk=          -1 SrtSym=           T ITran=            3
 JobTyp=0 Pass  1:  I=   1 to   5.
 (rs|ai) integrals will be sorted in core.
 Spin components of T(2) and E(2):
     alpha-alpha T2 =       0.4081109091D-02 E2=     -0.6423855522D-02
     alpha-beta  T2 =       0.5442057104D-01 E2=     -0.7826028070D-01
     beta-beta   T2 =       0.4081109091D-02 E2=     -0.6423855522D-02
 ANorm=    0.1030816564D+01
 E2 =    -0.9110799175D-01 EUMP2 =    -0.50177742014351D+01
 Second order stability test of a single determinant RHF wave function:
 Stabil:  MDV=134217728
 ***********************************************************************
 Matrix         Lowest Root    Major Pairs
 ***********************************************************************
 Internal RHF     0.0615664    Stable
 RRHF --> CRHF    0.0427582    Stable
 RRHF --> RUHF   -0.0424725    5A=7B
 Not stable.
 ***********************************************************************

 **********************************************************************

            Population analysis using the SCF density.

 **********************************************************************

 Orbital symmetries:
       Occupied  (AG) (B2U) (B1U) (AG) (B3G)
       Virtual   (AG) (B1U) (B2U) (B1U) (AG)
 The electronic state is 1-AG.
 Alpha  occ. eigenvalues --   -0.94453  -0.68646  -0.65988  -0.44728  -0.30283
 Alpha virt. eigenvalues --    0.01359   0.13412   0.56286   0.64766   0.77140
          Condensed to atoms (all electrons):
               1          2          3          4          5          6
     1  H    1.085129  -0.002413  -0.030630  -0.074103   0.322046   0.008673
     2  H   -0.002413   0.467730   0.425121  -0.002413  -0.065108  -0.065108
     3  H   -0.030630   0.425121   0.976972  -0.030630  -0.173794  -0.173794
     4  H   -0.074103  -0.002413  -0.030630   1.085129   0.008673   0.322046
     5  H    0.322046  -0.065108  -0.173794   0.008673   0.870010   0.023552
     6  H    0.008673  -0.065108  -0.173794   0.322046   0.023552   0.870010
     7  H   -0.091234   0.013042   0.221222  -0.091234  -0.173794  -0.173794
     8  H   -0.142037  -0.027572  -0.091234   0.036733   0.322046   0.008673
     9  H    0.036733  -0.027572  -0.091234  -0.142037   0.008673   0.322046
    10  H   -0.027572  -0.007128   0.013042  -0.027572  -0.065108  -0.065108
               7          8          9         10
     1  H   -0.091234  -0.142037   0.036733  -0.027572
     2  H    0.013042  -0.027572  -0.027572  -0.007128
     3  H    0.221222  -0.091234  -0.091234   0.013042
     4  H   -0.091234   0.036733  -0.142037  -0.027572
     5  H   -0.173794   0.322046   0.008673  -0.065108
     6  H   -0.173794   0.008673   0.322046  -0.065108
     7  H    0.976972  -0.030630  -0.030630   0.425121
     8  H   -0.030630   1.085129  -0.074103  -0.002413
     9  H   -0.030630  -0.074103   1.085129  -0.002413
    10  H    0.425121  -0.002413  -0.002413   0.467730
 Mulliken charges:
               1
     1  H   -0.084592
     2  H    0.291421
     3  H   -0.045041
     4  H   -0.084592
     5  H   -0.077195
     6  H   -0.077195
     7  H   -0.045041
     8  H   -0.084592
     9  H   -0.084592
    10  H    0.291421
 Sum of Mulliken charges =  -0.00000
 Mulliken charges with hydrogens summed into heavy atoms:
               1
 Electronic spatial extent (au):  <R**2>=             93.5613
 Charge=             -0.0000 electrons
 Dipole moment (field-independent basis, Debye):
    X=              0.0000    Y=             -0.0000    Z=             -0.0000  Tot=              0.0000
 Quadrupole moment (field-independent basis, Debye-Ang):
   XX=            -12.6077   YY=            -21.2889   ZZ=             -9.9209
   XY=             -0.0000   XZ=             -0.0000   YZ=             -0.0000
 Traceless Quadrupole moment (field-independent basis, Debye-Ang):
   XX=              1.9982   YY=             -6.6831   ZZ=              4.6849
   XY=             -0.0000   XZ=             -0.0000   YZ=             -0.0000
 Octapole moment (field-independent basis, Debye-Ang**2):
  XXX=              0.0000  YYY=             -0.0000  ZZZ=             -0.0000  XYY=              0.0000
  XXY=             -0.0000  XXZ=             -0.0000  XZZ=              0.0000  YZZ=             -0.0000
  YYZ=             -0.0000  XYZ=              0.0000
 Hexadecapole moment (field-independent basis, Debye-Ang**3):
 XXXX=            -14.8968 YYYY=           -124.4721 ZZZZ=            -59.5899 XXXY=             -0.0000
 XXXZ=              0.0000 YYYX=             -0.0000 YYYZ=             -0.0000 ZZZX=              0.0000
 ZZZY=             -0.0000 XXYY=            -19.9426 XXZZ=            -14.3541 YYZZ=            -34.1392
 XXYZ=             -0.0000 YYXZ=              0.0000 ZZXY=             -0.0000
 N-N= 1.496262522584D+01 E-N=-3.903584001748D+01  KE= 5.339207114544D+00
 Symmetry AG   KE= 2.106213555772D+00
 Symmetry B1G  KE= 0.000000000000D+00
 Symmetry B2G  KE= 0.000000000000D+00
 Symmetry B3G  KE= 1.471600701728D+00
 Symmetry AU   KE= 0.000000000000D+00
 Symmetry B1U  KE= 9.269850296453D-01
 Symmetry B2U  KE= 8.344078273993D-01
 Symmetry B3U  KE= 0.000000000000D+00

 Test job not archived.
 1\1\GINC-SULU\Stability\RHF\Gen\H10\LCJ1\09-Feb-2017\0\\#rhf/gen scf(s
 ymm,tight,novaracc,noincfock,fulldiag) stable(crhf) geom=nocrowd test\
 \hf stability analysis of h10 triangular lattice, y= 1.257759997475475
 4\\0,1\H\H,1,1.3389059942\H,1,1.3389059942,2,40.1\H,2,1.3389059942,1,1
 39.9,3,0.,0\H,3,1.3389059942,4,180.,1,0.,0\H,3,1.3389059942,1,180.,2,0
 .,0\H,3,0.9180611092,2,180.,1,0.,0\H,7,1.3389059942,6,180.,1,0.,0\H,7,
 1.3389059942,5,180.,2,0.,0\H,7,0.9180611092,3,180.,1,0.,0\\Version=ES6
 4L-G09RevE.01\State=1-AG\HF=-4.9266662\MP2=-5.0177742\RMSD=8.236e-09\D
 ipole=0.,0.,0.\Quadrupole=2.4896933,1.4855876,-3.9752809,0.,-2.7220069
 ,0.\PG=D02H [C2'(H1.H1),C2"(H1H1.H1H1),SG(H4)]\\@


 THEORY:  SUPPOSITION WHICH HAS SCIENTIFIC BASIS,
          BUT NOT EXPERIMENTALLY PROVEN.
 FACT:    A THEORY WHICH HAS BEEN PROVEN BY ENOUGH 
          MONEY TO PAY FOR THE EXPERIMENTS.

                          --  THE WIZARD OF ID
 Job cpu time:       0 days  0 hours  0 minutes  0.8 seconds.
 File lengths (MBytes):  RWF=     84 Int=      0 D2E=      0 Chk=      2 Scr=      2
 Normal termination of Gaussian 09 at Thu Feb  9 16:24:10 2017.
