 Entering Gaussian System, Link 0=g09
 AtFile(1): H.gbs
            H     0
            S   10   1.00
               1000.000000000000            0.000068713567
                316.227766000000            0.000169141320
                100.000000000000            0.000823394812
                 31.622776600000            0.003425569236
                 10.000000000000            0.013951996000
                  3.162277660000            0.056909313560
                  1.000000000000            0.198286399900
                  0.316227766000            0.496922426700
                  0.100000000000            0.369846276400
                  0.031622776600            0.003752720039
            ****
 Initial command:
 /projects/guscus/apps/gau/g09-e1/g09/l1.exe "/users/lcj1/gaussian/h10/rhfstability/3rows/zmatrix/fwd/Gau-12111.inp" -scrdir="/users/lcj1/gaussian/h10/rhfstability/3rows/zmatrix/fwd/"
 Entering Link 1 = /projects/guscus/apps/gau/g09-e1/g09/l1.exe PID=     12112.
  
 Copyright (c) 1988,1990,1992,1993,1995,1998,2003,2009,2015,
            Gaussian, Inc.  All Rights Reserved.
  
 This is part of the Gaussian(R) 09 program.  It is based on
 the Gaussian(R) 03 system (copyright 2003, Gaussian, Inc.),
 the Gaussian(R) 98 system (copyright 1998, Gaussian, Inc.),
 the Gaussian(R) 94 system (copyright 1995, Gaussian, Inc.),
 the Gaussian 92(TM) system (copyright 1992, Gaussian, Inc.),
 the Gaussian 90(TM) system (copyright 1990, Gaussian, Inc.),
 the Gaussian 88(TM) system (copyright 1988, Gaussian, Inc.),
 the Gaussian 86(TM) system (copyright 1986, Carnegie Mellon
 University), and the Gaussian 82(TM) system (copyright 1983,
 Carnegie Mellon University). Gaussian is a federally registered
 trademark of Gaussian, Inc.
  
 This software contains proprietary and confidential information,
 including trade secrets, belonging to Gaussian, Inc.
  
 This software is provided under written license and may be
 used, copied, transmitted, or stored only in accord with that
 written license.
  
 The following legend is applicable only to US Government
 contracts under FAR:
  
                    RESTRICTED RIGHTS LEGEND
  
 Use, reproduction and disclosure by the US Government is
 subject to restrictions as set forth in subparagraphs (a)
 and (c) of the Commercial Computer Software - Restricted
 Rights clause in FAR 52.227-19.
  
 Gaussian, Inc.
 340 Quinnipiac St., Bldg. 40, Wallingford CT 06492
  
  
 ---------------------------------------------------------------
 Warning -- This program may not be used in any manner that
 competes with the business of Gaussian, Inc. or will provide
 assistance to any competitor of Gaussian, Inc.  The licensee
 of this program is prohibited from giving any competitor of
 Gaussian, Inc. access to this program.  By using this program,
 the user acknowledges that Gaussian, Inc. is engaged in the
 business of creating and licensing software in the field of
 computational chemistry and represents and warrants to the
 licensee that it is not a competitor of Gaussian, Inc. and that
 it will not use this program in any manner prohibited above.
 ---------------------------------------------------------------
  

 Cite this work as:
 Gaussian 09, Revision E.01,
 M. J. Frisch, G. W. Trucks, H. B. Schlegel, G. E. Scuseria, 
 M. A. Robb, J. R. Cheeseman, G. Scalmani, V. Barone, B. Mennucci, 
 G. A. Petersson, H. Nakatsuji, M. Caricato, X. Li, H. P. Hratchian, 
 A. F. Izmaylov, J. Bloino, G. Zheng, J. L. Sonnenberg, M. Hada, 
 M. Ehara, K. Toyota, R. Fukuda, J. Hasegawa, M. Ishida, T. Nakajima, 
 Y. Honda, O. Kitao, H. Nakai, T. Vreven, J. A. Montgomery, Jr., 
 J. E. Peralta, F. Ogliaro, M. Bearpark, J. J. Heyd, E. Brothers, 
 K. N. Kudin, V. N. Staroverov, T. Keith, R. Kobayashi, J. Normand, 
 K. Raghavachari, A. Rendell, J. C. Burant, S. S. Iyengar, J. Tomasi, 
 M. Cossi, N. Rega, J. M. Millam, M. Klene, J. E. Knox, J. B. Cross, 
 V. Bakken, C. Adamo, J. Jaramillo, R. Gomperts, R. E. Stratmann, 
 O. Yazyev, A. J. Austin, R. Cammi, C. Pomelli, J. W. Ochterski, 
 R. L. Martin, K. Morokuma, V. G. Zakrzewski, G. A. Voth, 
 P. Salvador, J. J. Dannenberg, S. Dapprich, A. D. Daniels, 
 O. Farkas, J. B. Foresman, J. V. Ortiz, J. Cioslowski, 
 and D. J. Fox, Gaussian, Inc., Wallingford CT, 2013.
 
 ******************************************
 Gaussian 09:  ES64L-G09RevE.01 30-Nov-2015
                 9-Feb-2017 
 ******************************************
 %chk=h10.chk
 ----------------------------------------------------------------------
 #rhf/gen scf(symm,tight,novaracc,noincfock,fulldiag) stable(crhf) geom
 =nocrowd test
 ----------------------------------------------------------------------
 1/38=1/1;
 2/12=1,17=6,18=5,40=1/2;
 3/5=7,16=1,25=1,30=1,116=1/1,2,3;
 4/9=4/1;
 5/5=100002,15=2,16=1,32=2,38=1/2;
 8/6=1,10=90,11=11/1,4;
 9/8=4,13=1/2;
 6/7=2,8=2,9=2,10=2,28=1/1;
 99/5=1,9=1/99;
 ----------------------------------------------------------------------
 hf stability analysis of h10 triangular lattice, y= 1.2153259707432924
 ----------------------------------------------------------------------
 Symbolic Z-matrix:
 Charge =  0 Multiplicity = 1
 H
 H                    1     1.30487 
 H                    1     1.30487  2     42.7 
 H                    2     1.30487  1     137.3    3     0.       0
 H                    3     1.30487  4     180.     1     0.       0
 H                    3     1.30487  1     180.     2     0.       0
 H                    3     0.95012  2     180.     1     0.       0
 H                    7     1.30487  6     180.     1     0.       0
 H                    7     1.30487  5     180.     2     0.       0
 H                    7     0.95012  3     180.     1     0.       0
 
                          Input orientation:                          
 ---------------------------------------------------------------------
 Center     Atomic      Atomic             Coordinates (Angstroms)
 Number     Number       Type             X           Y           Z
 ---------------------------------------------------------------------
      1          1           0        0.000000    0.000000    0.000000
      2          1           0        0.000000    0.000000    1.304874
      3          1           0        0.884913    0.000000    0.958971
      4          1           0        0.884913    0.000000    2.263846
      5          1           0        0.884913    0.000000   -0.345903
      6          1           0        1.769826    0.000000    1.917943
      7          1           0        1.769826    0.000000    0.613068
      8          1           0        1.769826    0.000000   -0.691806
      9          1           0        2.654740    0.000000    1.572039
     10          1           0        2.654739    0.000000    0.267165
 ---------------------------------------------------------------------
                    Distance matrix (angstroms):
                    1          2          3          4          5
     1  H    0.000000
     2  H    1.304874   0.000000
     3  H    1.304874   0.950116   0.000000
     4  H    2.430652   1.304874   1.304874   0.000000
     5  H    0.950116   1.873002   1.304874   2.609749   0.000000
     6  H    2.609749   1.873002   1.304874   0.950116   2.430652
     7  H    1.873002   1.900232   0.950116   1.873002   1.304874
     8  H    1.900232   2.668149   1.873002   3.085280   0.950116
     9  H    3.085280   2.668149   1.873002   1.900232   2.609749
    10  H    2.668149   2.850348   1.900232   2.668149   1.873002
                    6          7          8          9         10
     6  H    0.000000
     7  H    1.304874   0.000000
     8  H    2.609749   1.304874   0.000000
     9  H    0.950116   1.304874   2.430652   0.000000
    10  H    1.873002   0.950116   1.304874   1.304874   0.000000
 Stoichiometry    H10
 Framework group  D2H[C2'(H.H),C2"(HH.HH),SG(H4)]
 Deg. of freedom     5
 Full point group                 D2H     NOp   8
 Largest Abelian subgroup         D2H     NOp   8
 Largest concise Abelian subgroup D2      NOp   4
                         Standard orientation:                         
 ---------------------------------------------------------------------
 Center     Atomic      Atomic             Coordinates (Angstroms)
 Number     Number       Type             X           Y           Z
 ---------------------------------------------------------------------
      1          1           0        0.000000    1.215326    0.950116
      2          1           0        0.000000   -0.000000    1.425174
      3          1           0        0.000000   -0.000000    0.475058
      4          1           0       -0.000000   -1.215326    0.950116
      5          1           0       -0.000000    1.215326    0.000000
      6          1           0       -0.000000   -1.215326   -0.000000
      7          1           0        0.000000    0.000000   -0.475058
      8          1           0        0.000000    1.215326   -0.950116
      9          1           0       -0.000000   -1.215326   -0.950116
     10          1           0        0.000000    0.000000   -1.425174
 ---------------------------------------------------------------------
 Rotational constants (GHZ):     61.7214804     56.5842100     29.5206528
 General basis read from cards:  (5D, 7F)
 There are     4 symmetry adapted cartesian basis functions of AG  symmetry.
 There are     0 symmetry adapted cartesian basis functions of B1G symmetry.
 There are     0 symmetry adapted cartesian basis functions of B2G symmetry.
 There are     1 symmetry adapted cartesian basis functions of B3G symmetry.
 There are     0 symmetry adapted cartesian basis functions of AU  symmetry.
 There are     3 symmetry adapted cartesian basis functions of B1U symmetry.
 There are     2 symmetry adapted cartesian basis functions of B2U symmetry.
 There are     0 symmetry adapted cartesian basis functions of B3U symmetry.
 There are     4 symmetry adapted basis functions of AG  symmetry.
 There are     0 symmetry adapted basis functions of B1G symmetry.
 There are     0 symmetry adapted basis functions of B2G symmetry.
 There are     1 symmetry adapted basis functions of B3G symmetry.
 There are     0 symmetry adapted basis functions of AU  symmetry.
 There are     3 symmetry adapted basis functions of B1U symmetry.
 There are     2 symmetry adapted basis functions of B2U symmetry.
 There are     0 symmetry adapted basis functions of B3U symmetry.
    10 basis functions,   100 primitive gaussians,    10 cartesian basis functions
     5 alpha electrons        5 beta electrons
       nuclear repulsion energy        14.9255619625 Hartrees.
 NAtoms=   10 NActive=   10 NUniq=    4 SFac= 4.00D+00 NAtFMM=   60 NAOKFM=F Big=F
 Integral buffers will be    131072 words long.
 Regular integral format.
 Two-electron integral symmetry is turned on.
 One-electron integrals computed using PRISM.
 NBasis=    10 RedAO= T EigKep=  1.52D-01  NBF=     4     0     0     1     0     3     2     0
 NBsUse=    10 1.00D-06 EigRej= -1.00D+00 NBFU=     4     0     0     1     0     3     2     0
 ExpMin= 3.16D-02 ExpMax= 1.00D+03 ExpMxC= 1.00D+01 IAcc=3 IRadAn=         5 AccDes= 0.00D+00
 Harris functional with IExCor=  205 and IRadAn=       5 diagonalized for initial guess.
 HarFok:  IExCor=  205 AccDes= 0.00D+00 IRadAn=         5 IDoV= 1 UseB2=F ITyADJ=14
 ICtDFT=  3500011 ScaDFX=  1.000000  1.000000  1.000000  1.000000
 FoFCou: FMM=F IPFlag=           0 FMFlag=      100000 FMFlg1=           0
         NFxFlg=           0 DoJE=T BraDBF=F KetDBF=T FulRan=T
         wScrn=  0.000000 ICntrl=     500 IOpCl=  0 I1Cent=   200000004 NGrid=           0
         NMat0=    1 NMatS0=      1 NMatT0=    0 NMatD0=    1 NMtDS0=    0 NMtDT0=    0
 Petite list used in FoFCou.
 Initial guess orbital symmetries:
       Occupied  (AG) (B2U) (B1U) (AG) (B3G)
       Virtual   (AG) (B1U) (B2U) (B1U) (AG)
 The electronic state of the initial guess is 1-AG.
 Keep R1 ints in memory in symmetry-blocked form, NReq=881055.
 Requested convergence on RMS density matrix=1.00D-08 within 128 cycles.
 Requested convergence on MAX density matrix=1.00D-06.
 Requested convergence on             energy=1.00D-06.
 No special actions if energy rises.
 SCF Done:  E(RHF) =  -4.89506042663     A.U. after    9 cycles
            NFock=  9  Conv=0.15D-08     -V/T= 1.9127
 Range of M.O.s used for correlation:     1    10
 NBasis=    10 NAE=     5 NBE=     5 NFC=     0 NFV=     0
 NROrb=     10 NOA=     5 NOB=     5 NVA=     5 NVB=     5
 Semi-Direct transformation.
 ModeAB=           4 MOrb=             5 LenV=     134105090
 LASXX=         1030 LTotXX=        1030 LenRXX=        2480
 LTotAB=        1450 MaxLAS=        1000 LenRXY=           0
 NonZer=        3510 LenScr=      655360 LnRSAI=        1000
 LnScr1=      655360 LExtra=           0 Total=      1314200
 MaxDsk=          -1 SrtSym=           T ITran=            3
 JobTyp=0 Pass  1:  I=   1 to   5.
 (rs|ai) integrals will be sorted in core.
 Spin components of T(2) and E(2):
     alpha-alpha T2 =       0.4374732695D-02 E2=     -0.6712314188D-02
     alpha-beta  T2 =       0.5608258286D-01 E2=     -0.8126982618D-01
     beta-beta   T2 =       0.4374732695D-02 E2=     -0.6712314188D-02
 ANorm=    0.1031906996D+01
 E2 =    -0.9469445456D-01 EUMP2 =    -0.49897548811896D+01
 Second order stability test of a single determinant RHF wave function:
 Stabil:  MDV=134217728
 ***********************************************************************
 Matrix         Lowest Root    Major Pairs
 ***********************************************************************
 Internal RHF     0.0497817    Stable
 RRHF --> CRHF    0.0253897    Stable
 RRHF --> RUHF   -0.0250411    5A=6B
 Not stable.
 ***********************************************************************

 **********************************************************************

            Population analysis using the SCF density.

 **********************************************************************

 Orbital symmetries:
       Occupied  (AG) (B2U) (B1U) (AG) (B3G)
       Virtual   (AG) (B1U) (B2U) (B1U) (AG)
 The electronic state is 1-AG.
 Alpha  occ. eigenvalues --   -0.94186  -0.67377  -0.66885  -0.40930  -0.30760
 Alpha virt. eigenvalues --   -0.00813   0.15479   0.52525   0.58824   0.75117
          Condensed to atoms (all electrons):
               1          2          3          4          5          6
     1  H    1.085211  -0.017259  -0.031177  -0.082256   0.327340   0.010239
     2  H   -0.017259   0.509206   0.436802  -0.017259  -0.081657  -0.081657
     3  H   -0.031177   0.436802   0.976244  -0.031177  -0.191769  -0.191769
     4  H   -0.082256  -0.017259  -0.031177   1.085211   0.010239   0.327340
     5  H    0.327340  -0.081657  -0.191769   0.010239   0.922456   0.032040
     6  H    0.010239  -0.081657  -0.191769   0.327340   0.032040   0.922456
     7  H   -0.090099   0.026593   0.217322  -0.090099  -0.191769  -0.191769
     8  H   -0.127918  -0.027871  -0.090099   0.037544   0.327340   0.010239
     9  H    0.037544  -0.027871  -0.090099  -0.127918   0.010239   0.327340
    10  H   -0.027871  -0.000204   0.026593  -0.027871  -0.081657  -0.081657
               7          8          9         10
     1  H   -0.090099  -0.127918   0.037544  -0.027871
     2  H    0.026593  -0.027871  -0.027871  -0.000204
     3  H    0.217322  -0.090099  -0.090099   0.026593
     4  H   -0.090099   0.037544  -0.127918  -0.027871
     5  H   -0.191769   0.327340   0.010239  -0.081657
     6  H   -0.191769   0.010239   0.327340  -0.081657
     7  H    0.976244  -0.031177  -0.031177   0.436802
     8  H   -0.031177   1.085211  -0.082256  -0.017259
     9  H   -0.031177  -0.082256   1.085211  -0.017259
    10  H    0.436802  -0.017259  -0.017259   0.509206
 Mulliken charges:
               1
     1  H   -0.083754
     2  H    0.281178
     3  H   -0.030869
     4  H   -0.083754
     5  H   -0.082802
     6  H   -0.082802
     7  H   -0.030869
     8  H   -0.083754
     9  H   -0.083754
    10  H    0.281178
 Sum of Mulliken charges =  -0.00000
 Mulliken charges with hydrogens summed into heavy atoms:
               1
 Electronic spatial extent (au):  <R**2>=             93.0125
 Charge=             -0.0000 electrons
 Dipole moment (field-independent basis, Debye):
    X=              0.0000    Y=             -0.0000    Z=              0.0000  Tot=              0.0000
 Quadrupole moment (field-independent basis, Debye-Ang):
   XX=            -12.5980   YY=            -21.3140   ZZ=             -9.6030
   XY=             -0.0000   XZ=             -0.0000   YZ=             -0.0000
 Traceless Quadrupole moment (field-independent basis, Debye-Ang):
   XX=              1.9070   YY=             -6.8090   ZZ=              4.9020
   XY=             -0.0000   XZ=             -0.0000   YZ=             -0.0000
 Octapole moment (field-independent basis, Debye-Ang**2):
  XXX=              0.0000  YYY=             -0.0000  ZZZ=              0.0000  XYY=              0.0000
  XXY=             -0.0000  XXZ=             -0.0000  XZZ=              0.0000  YZZ=             -0.0000
  YYZ=             -0.0000  XYZ=              0.0000
 Hexadecapole moment (field-independent basis, Debye-Ang**3):
 XXXX=            -14.8790 YYYY=           -118.7470 ZZZZ=            -61.5933 XXXY=             -0.0000
 XXXZ=              0.0000 YYYX=             -0.0000 YYYZ=             -0.0000 ZZZX=              0.0000
 ZZZY=             -0.0000 XXYY=            -19.1485 XXZZ=            -14.9122 YYZZ=            -33.6249
 XXYZ=             -0.0000 YYXZ=              0.0000 ZZXY=             -0.0000
 N-N= 1.492556196252D+01 E-N=-3.900178607551D+01  KE= 5.363304022803D+00
 Symmetry AG   KE= 2.149676988029D+00
 Symmetry B1G  KE= 0.000000000000D+00
 Symmetry B2G  KE= 0.000000000000D+00
 Symmetry B3G  KE= 1.462103280540D+00
 Symmetry AU   KE= 0.000000000000D+00
 Symmetry B1U  KE= 9.083519000966D-01
 Symmetry B2U  KE= 8.431718541377D-01
 Symmetry B3U  KE= 0.000000000000D+00

 Test job not archived.
 1\1\GINC-SULU\Stability\RHF\Gen\H10\LCJ1\09-Feb-2017\0\\#rhf/gen scf(s
 ymm,tight,novaracc,noincfock,fulldiag) stable(crhf) geom=nocrowd test\
 \hf stability analysis of h10 triangular lattice, y= 1.215325970743292
 4\\0,1\H\H,1,1.3048744288\H,1,1.3048744288,2,42.7\H,2,1.3048744288,1,1
 37.3,3,0.,0\H,3,1.3048744288,4,180.,1,0.,0\H,3,1.3048744288,1,180.,2,0
 .,0\H,3,0.9501159081,2,180.,1,0.,0\H,7,1.3048744288,6,180.,1,0.,0\H,7,
 1.3048744288,5,180.,2,0.,0\H,7,0.9501159081,3,180.,1,0.,0\\Version=ES6
 4L-G09RevE.01\State=1-AG\HF=-4.8950604\MP2=-4.9897549\RMSD=1.478e-09\D
 ipole=0.,0.,0.\Quadrupole=2.4905104,1.4177998,-3.9083102,0.,-2.9523308
 ,0.\PG=D02H [C2'(H1.H1),C2"(H1H1.H1H1),SG(H4)]\\@


 ALMOST ANYTHING IS EASIER TO GET INTO THAN OUT OF.

                         -- AGNES ALLEN'S LAW FROM
                PAUL DICKSON'S "THE OFFICIAL RULES"
 Job cpu time:       0 days  0 hours  0 minutes  0.8 seconds.
 File lengths (MBytes):  RWF=     84 Int=      0 D2E=      0 Chk=      2 Scr=      2
 Normal termination of Gaussian 09 at Thu Feb  9 16:23:15 2017.
