 Entering Gaussian System, Link 0=g09
 AtFile(1): H.gbs
            H     0
            S   10   1.00
               1000.000000000000            0.000068713567
                316.227766000000            0.000169141320
                100.000000000000            0.000823394812
                 31.622776600000            0.003425569236
                 10.000000000000            0.013951996000
                  3.162277660000            0.056909313560
                  1.000000000000            0.198286399900
                  0.316227766000            0.496922426700
                  0.100000000000            0.369846276400
                  0.031622776600            0.003752720039
            ****
 Initial command:
 /projects/guscus/apps/gau/g09-e1/g09/l1.exe "/users/lcj1/gaussian/h10/rhfstability/2rows/zmat/guessfrommix/alpha25/MOmesh/Gau-3895.inp" -scrdir="/users/lcj1/gaussian/h10/rhfstability/2rows/zmat/guessfrommix/alpha25/MOmesh/"
 Entering Link 1 = /projects/guscus/apps/gau/g09-e1/g09/l1.exe PID=      3899.
  
 Copyright (c) 1988,1990,1992,1993,1995,1998,2003,2009,2015,
            Gaussian, Inc.  All Rights Reserved.
  
 This is part of the Gaussian(R) 09 program.  It is based on
 the Gaussian(R) 03 system (copyright 2003, Gaussian, Inc.),
 the Gaussian(R) 98 system (copyright 1998, Gaussian, Inc.),
 the Gaussian(R) 94 system (copyright 1995, Gaussian, Inc.),
 the Gaussian 92(TM) system (copyright 1992, Gaussian, Inc.),
 the Gaussian 90(TM) system (copyright 1990, Gaussian, Inc.),
 the Gaussian 88(TM) system (copyright 1988, Gaussian, Inc.),
 the Gaussian 86(TM) system (copyright 1986, Carnegie Mellon
 University), and the Gaussian 82(TM) system (copyright 1983,
 Carnegie Mellon University). Gaussian is a federally registered
 trademark of Gaussian, Inc.
  
 This software contains proprietary and confidential information,
 including trade secrets, belonging to Gaussian, Inc.
  
 This software is provided under written license and may be
 used, copied, transmitted, or stored only in accord with that
 written license.
  
 The following legend is applicable only to US Government
 contracts under FAR:
  
                    RESTRICTED RIGHTS LEGEND
  
 Use, reproduction and disclosure by the US Government is
 subject to restrictions as set forth in subparagraphs (a)
 and (c) of the Commercial Computer Software - Restricted
 Rights clause in FAR 52.227-19.
  
 Gaussian, Inc.
 340 Quinnipiac St., Bldg. 40, Wallingford CT 06492
  
  
 ---------------------------------------------------------------
 Warning -- This program may not be used in any manner that
 competes with the business of Gaussian, Inc. or will provide
 assistance to any competitor of Gaussian, Inc.  The licensee
 of this program is prohibited from giving any competitor of
 Gaussian, Inc. access to this program.  By using this program,
 the user acknowledges that Gaussian, Inc. is engaged in the
 business of creating and licensing software in the field of
 computational chemistry and represents and warrants to the
 licensee that it is not a competitor of Gaussian, Inc. and that
 it will not use this program in any manner prohibited above.
 ---------------------------------------------------------------
  

 Cite this work as:
 Gaussian 09, Revision E.01,
 M. J. Frisch, G. W. Trucks, H. B. Schlegel, G. E. Scuseria, 
 M. A. Robb, J. R. Cheeseman, G. Scalmani, V. Barone, B. Mennucci, 
 G. A. Petersson, H. Nakatsuji, M. Caricato, X. Li, H. P. Hratchian, 
 A. F. Izmaylov, J. Bloino, G. Zheng, J. L. Sonnenberg, M. Hada, 
 M. Ehara, K. Toyota, R. Fukuda, J. Hasegawa, M. Ishida, T. Nakajima, 
 Y. Honda, O. Kitao, H. Nakai, T. Vreven, J. A. Montgomery, Jr., 
 J. E. Peralta, F. Ogliaro, M. Bearpark, J. J. Heyd, E. Brothers, 
 K. N. Kudin, V. N. Staroverov, T. Keith, R. Kobayashi, J. Normand, 
 K. Raghavachari, A. Rendell, J. C. Burant, S. S. Iyengar, J. Tomasi, 
 M. Cossi, N. Rega, J. M. Millam, M. Klene, J. E. Knox, J. B. Cross, 
 V. Bakken, C. Adamo, J. Jaramillo, R. Gomperts, R. E. Stratmann, 
 O. Yazyev, A. J. Austin, R. Cammi, C. Pomelli, J. W. Ochterski, 
 R. L. Martin, K. Morokuma, V. G. Zakrzewski, G. A. Voth, 
 P. Salvador, J. J. Dannenberg, S. Dapprich, A. D. Daniels, 
 O. Farkas, J. B. Foresman, J. V. Ortiz, J. Cioslowski, 
 and D. J. Fox, Gaussian, Inc., Wallingford CT, 2013.
 
 ******************************************
 Gaussian 09:  ES64L-G09RevE.01 30-Nov-2015
                21-Feb-2017 
 ******************************************
 %chk=h10.chk
 ----------------------------------------------------------------------
 #rhf/gen scf(symm,tight,novaracc,noincfock,fulldiag) stable(crhf) gues
 s=read geom=nocrowd test
 ----------------------------------------------------------------------
 1/38=1/1;
 2/12=1,17=6,18=5,40=1/2;
 3/5=7,16=1,25=1,30=1,116=1/1,2,3;
 4/5=1,9=4/1;
 5/5=100002,15=2,16=1,32=2,38=6/2;
 8/6=1,10=90,11=11/1,4;
 9/8=4,13=1/2;
 6/7=2,8=2,9=2,10=2,28=1/1;
 99/5=1,9=1/99;
 ----------------------------------------------------------------------
 hf stability analysis of h10 triangular lattice, y= 2.5627058557175149
 ----------------------------------------------------------------------
 Symbolic Z-matrix:
 Charge =  0 Multiplicity = 1
 H
 H                    1     2.57259 
 H                    1     2.57259  2     10.048 
 H                    2     2.57259  1     169.952  3     0.       0
 H                    3     2.57259  1     180.     2     0.       0
 H                    4     2.57259  2     180.     1     0.       0
 H                    5     2.57259  3     180.     2     0.       0
 H                    6     2.57259  4     180.     1     0.       0
 H                    7     2.57259  5     180.     2     0.       0
 H                    8     2.57259  6     180.     1     0.       0
 
                          Input orientation:                          
 ---------------------------------------------------------------------
 Center     Atomic      Atomic             Coordinates (Angstroms)
 Number     Number       Type             X           Y           Z
 ---------------------------------------------------------------------
      1          1           0        0.000000    0.000000    0.000000
      2          1           0        0.000000    0.000000    2.572589
      3          1           0        0.448848    0.000000    2.533131
      4          1           0        0.448848    0.000000    5.105720
      5          1           0        0.897696    0.000000    5.066262
      6          1           0        0.897696    0.000000    7.638851
      7          1           0        1.346543    0.000000    7.599393
      8          1           0        1.346543    0.000000   10.171982
      9          1           0        1.795391    0.000000   10.132524
     10          1           0        1.795391    0.000000   12.705113
 ---------------------------------------------------------------------
                    Distance matrix (angstroms):
                    1          2          3          4          5
     1  H    0.000000
     2  H    2.572589   0.000000
     3  H    2.572589   0.450579   0.000000
     4  H    5.125412   2.572589   2.572589   0.000000
     5  H    5.145179   2.650332   2.572589   0.450579   0.000000
     6  H    7.691418   5.145179   5.125412   2.572589   2.572589
     7  H    7.717768   5.204030   5.145179   2.650332   2.572589
     8  H   10.260721   7.717768   7.691418   5.145179   5.125412
     9  H   10.290358   7.770202   7.717768   5.204030   5.145179
    10  H   12.831342  10.290358  10.260721   7.717768   7.691418
                    6          7          8          9         10
     6  H    0.000000
     7  H    0.450579   0.000000
     8  H    2.572589   2.572589   0.000000
     9  H    2.650332   2.572589   0.450579   0.000000
    10  H    5.145179   5.125412   2.572589   2.572589   0.000000
 Stoichiometry    H10
 Framework group  C2H[SGH(H10)]
 Deg. of freedom     9
 Full point group                 C2H     NOp   4
 Largest Abelian subgroup         C2H     NOp   4
 Largest concise Abelian subgroup C2      NOp   2
                         Standard orientation:                         
 ---------------------------------------------------------------------
 Center     Atomic      Atomic             Coordinates (Angstroms)
 Number     Number       Type             X           Y           Z
 ---------------------------------------------------------------------
      1          1           0        0.897696    6.352557   -0.000000
      2          1           0        0.897696    3.779967   -0.000000
      3          1           0        0.448848    3.819426   -0.000000
      4          1           0        0.448848    1.246836   -0.000000
      5          1           0        0.000000    1.286295    0.000000
      6          1           0       -0.000000   -1.286295    0.000000
      7          1           0       -0.448848   -1.246836   -0.000000
      8          1           0       -0.448848   -3.819426   -0.000000
      9          1           0       -0.897696   -3.779967   -0.000000
     10          1           0       -0.897696   -6.352557   -0.000000
 ---------------------------------------------------------------------
 Rotational constants (GHZ):   1116.6954935      3.3776932      3.3675074
 General basis read from cards:  (5D, 7F)
 There are     5 symmetry adapted cartesian basis functions of AG  symmetry.
 There are     0 symmetry adapted cartesian basis functions of BG  symmetry.
 There are     0 symmetry adapted cartesian basis functions of AU  symmetry.
 There are     5 symmetry adapted cartesian basis functions of BU  symmetry.
 There are     5 symmetry adapted basis functions of AG  symmetry.
 There are     0 symmetry adapted basis functions of BG  symmetry.
 There are     0 symmetry adapted basis functions of AU  symmetry.
 There are     5 symmetry adapted basis functions of BU  symmetry.
    10 basis functions,   100 primitive gaussians,    10 cartesian basis functions
     5 alpha electrons        5 beta electrons
       nuclear repulsion energy        10.0002826487 Hartrees.
 NAtoms=   10 NActive=   10 NUniq=    5 SFac= 4.00D+00 NAtFMM=   60 NAOKFM=F Big=F
 Integral buffers will be    131072 words long.
 Regular integral format.
 Two-electron integral symmetry is turned on.
 One-electron integrals computed using PRISM.
 NBasis=    10 RedAO= T EigKep=  9.82D-02  NBF=     5     0     0     5
 NBsUse=    10 1.00D-06 EigRej= -1.00D+00 NBFU=     5     0     0     5
 Initial guess from the checkpoint file:  "h10.chk"
 B after Tr=    -0.000000   -0.000000   -0.000000
         Rot=    0.999992   -0.000000    0.000000   -0.003879 Ang=  -0.44 deg.
 Initial guess orbital symmetries:
       Occupied  (AG) (BU) (AG) (BU) (BU)
       Virtual   (AG) (BU) (AG) (BU) (AG)
 Keep R1 ints in memory in symmetry-blocked form, NReq=867989.
 Requested convergence on RMS density matrix=1.00D-08 within 128 cycles.
 Requested convergence on MAX density matrix=1.00D-06.
 Requested convergence on             energy=1.00D-06.
 No special actions if energy rises.
 SCF Done:  E(RHF) =  -4.24910101651     A.U. after    5 cycles
            NFock=  5  Conv=0.21D-09     -V/T= 1.9098
 Range of M.O.s used for correlation:     1    10
 NBasis=    10 NAE=     5 NBE=     5 NFC=     0 NFV=     0
 NROrb=     10 NOA=     5 NOB=     5 NVA=     5 NVB=     5

 **** Warning!!: The smallest alpha delta epsilon is  0.41231102D-01

 Semi-Direct transformation.
 ModeAB=           4 MOrb=             5 LenV=     134118600
 LASXX=         1030 LTotXX=        1030 LenRXX=        2480
 LTotAB=        1450 MaxLAS=        1500 LenRXY=           0
 NonZer=        3510 LenScr=      655360 LnRSAI=        1500
 LnScr1=      655360 LExtra=           0 Total=      1314700
 MaxDsk=          -1 SrtSym=           T ITran=            3
 JobTyp=0 Pass  1:  I=   1 to   5.
 (rs|ai) integrals will be sorted in core.
 Spin components of T(2) and E(2):
     alpha-alpha T2 =       0.1943781838D-04 E2=     -0.5392736047D-04
     alpha-beta  T2 =       0.1266367580D+02 E2=     -0.1069196836D+01
     beta-beta   T2 =       0.1943781838D-04 E2=     -0.5392736047D-04
 ANorm=    0.3696446223D+01
 E2 =    -0.1069304691D+01 EUMP2 =    -0.53184057074484D+01
 Second order stability test of a single determinant RHF wave function:
 Stabil:  MDV=134217728
 ***********************************************************************
 Matrix         Lowest Root    Major Pairs
 ***********************************************************************
 Internal RHF     0.4377381    Stable
 RRHF --> CRHF   -0.0000051    5A=6A
 RRHF --> RUHF   -0.5868392    5A=6B
 Not stable.
 ***********************************************************************

 **********************************************************************

            Population analysis using the SCF density.

 **********************************************************************

 Orbital symmetries:
       Occupied  (AG) (BU) (AG) (BU) (BU)
       Virtual   (AG) (BU) (AG) (BU) (AG)
 The electronic state is 1-AG.
 Alpha  occ. eigenvalues --   -0.74271  -0.73539  -0.72570  -0.71740  -0.20539
 Alpha virt. eigenvalues --   -0.16416   0.60153   0.63995   0.69178   0.73759
          Condensed to atoms (all electrons):
               1          2          3          4          5          6
     1  H    1.012577  -0.006912  -0.006907   0.000011   0.000013  -0.000000
     2  H   -0.006912   0.537648   0.481314  -0.006440  -0.005411   0.000011
     3  H   -0.006907   0.481314   0.539946  -0.006909  -0.006465   0.000012
     4  H    0.000011  -0.006440  -0.006909   0.541556   0.483729  -0.006480
     5  H    0.000013  -0.005411  -0.006465   0.483729   0.541476  -0.006937
     6  H   -0.000000   0.000011   0.000012  -0.006480  -0.006937   0.541476
     7  H   -0.000000   0.000009   0.000011  -0.005434  -0.006480   0.483729
     8  H    0.000000  -0.000000  -0.000000   0.000011   0.000012  -0.006465
     9  H    0.000000  -0.000000  -0.000000   0.000009   0.000011  -0.005411
    10  H   -0.000000   0.000000   0.000000  -0.000000  -0.000000   0.000013
               7          8          9         10
     1  H   -0.000000   0.000000   0.000000  -0.000000
     2  H    0.000009  -0.000000  -0.000000   0.000000
     3  H    0.000011  -0.000000  -0.000000   0.000000
     4  H   -0.005434   0.000011   0.000009  -0.000000
     5  H   -0.006480   0.000012   0.000011  -0.000000
     6  H    0.483729  -0.006465  -0.005411   0.000013
     7  H    0.541556  -0.006909  -0.006440   0.000011
     8  H   -0.006909   0.539946   0.481314  -0.006907
     9  H   -0.006440   0.481314   0.537648  -0.006912
    10  H    0.000011  -0.006907  -0.006912   1.012577
 Mulliken charges:
               1
     1  H    0.001218
     2  H   -0.000217
     3  H   -0.001001
     4  H   -0.000052
     5  H    0.000052
     6  H    0.000052
     7  H   -0.000052
     8  H   -0.001001
     9  H   -0.000217
    10  H    0.001218
 Sum of Mulliken charges =   0.00000
 Mulliken charges with hydrogens summed into heavy atoms:
               1
 Electronic spatial extent (au):  <R**2>=            562.1457
 Charge=              0.0000 electrons
 Dipole moment (field-independent basis, Debye):
    X=             -0.0000    Y=             -0.0000    Z=             -0.0000  Tot=              0.0000
 Quadrupole moment (field-independent basis, Debye-Ang):
   XX=            -12.8197   YY=            -14.5147   ZZ=            -13.5262
   XY=             -0.2096   XZ=              0.0000   YZ=             -0.0000
 Traceless Quadrupole moment (field-independent basis, Debye-Ang):
   XX=              0.8005   YY=             -0.8945   ZZ=              0.0940
   XY=             -0.2096   XZ=              0.0000   YZ=             -0.0000
 Octapole moment (field-independent basis, Debye-Ang**2):
  XXX=              0.0000  YYY=              0.0000  ZZZ=              0.0000  XYY=             -0.0000
  XXY=              0.0000  XXZ=              0.0000  XZZ=              0.0000  YZZ=             -0.0000
  YYZ=              0.0000  XYZ=             -0.0000
 Hexadecapole moment (field-independent basis, Debye-Ang**3):
 XXXX=            -47.2007 YYYY=          -1254.6165 ZZZZ=            -16.9710 XXXY=            -89.3584
 XXXZ=             -0.0000 YYYX=           -102.4979 YYYZ=             -0.0000 ZZZX=             -0.0000
 ZZZY=             -0.0000 XXYY=           -202.2159 XXZZ=            -10.8813 YYZZ=           -201.2679
 XXYZ=             -0.0000 YYXZ=             -0.0000 ZZXY=            -30.7466
 N-N= 1.000028264866D+01 E-N=-2.691614716816D+01  KE= 4.670565875015D+00
 Symmetry AG   KE= 1.705086670770D+00
 Symmetry BG   KE= 0.000000000000D+00
 Symmetry AU   KE= 0.000000000000D+00
 Symmetry BU   KE= 2.965479204245D+00

 Test job not archived.
 1\1\GINC-SULU\Stability\RHF\Gen\H10\UNKNOWN\21-Feb-2017\0\\#rhf/gen sc
 f(symm,tight,novaracc,noincfock,fulldiag) stable(crhf) guess=read geom
 =nocrowd test\\hf stability analysis of h10 triangular lattice, y= 2.5
 627058557175149\\0,1\H\H,1,2.5725894702\H,1,2.5725894702,2,10.048\H,2,
 2.5725894702,1,169.952,3,0.,0\H,3,2.5725894702,1,180.,2,0.,0\H,4,2.572
 5894702,2,180.,1,0.,0\H,5,2.5725894702,3,180.,2,0.,0\H,6,2.5725894702,
 4,180.,1,0.,0\H,7,2.5725894702,5,180.,2,0.,0\H,8,2.5725894702,6,180.,1
 ,0.,0\\Version=ES64L-G09RevE.01\State=1-AG\HF=-4.249101\MP2=-5.3184057
 \RMSD=2.144e-10\Dipole=0.,0.,0.\Quadrupole=0.5951461,0.0698939,-0.6650
 4,0.,-0.1558638,0.\PG=C02H [SGH(H10)]\\@


 THE GREAT THING ABOUT BEING IMPERFECT IS THE JOY IT BRINGS OTHERS.
   -- SIGN OUTSIDE LAKE AGASSIZ JR. HIGH SCHOOL, FARGO, N.D.
 Job cpu time:       0 days  0 hours  0 minutes  0.8 seconds.
 File lengths (MBytes):  RWF=     84 Int=      0 D2E=      0 Chk=      2 Scr=      2
 Normal termination of Gaussian 09 at Tue Feb 21 13:18:57 2017.
