 Entering Gaussian System, Link 0=g09
 AtFile(1): H.gbs
            H     0
            S   10   1.00
               1000.000000000000            0.000068713567
                316.227766000000            0.000169141320
                100.000000000000            0.000823394812
                 31.622776600000            0.003425569236
                 10.000000000000            0.013951996000
                  3.162277660000            0.056909313560
                  1.000000000000            0.198286399900
                  0.316227766000            0.496922426700
                  0.100000000000            0.369846276400
                  0.031622776600            0.003752720039
            ****
 Initial command:
 /projects/guscus/apps/gau/g09-e1/g09/l1.exe "/users/lcj1/gaussian/h10/2rows_uhf/ag2bu3/singlet/follow20/test/Gau-30469.inp" -scrdir="/users/lcj1/gaussian/h10/2rows_uhf/ag2bu3/singlet/follow20/test/"
 Entering Link 1 = /projects/guscus/apps/gau/g09-e1/g09/l1.exe PID=     30470.
  
 Copyright (c) 1988,1990,1992,1993,1995,1998,2003,2009,2015,
            Gaussian, Inc.  All Rights Reserved.
  
 This is part of the Gaussian(R) 09 program.  It is based on
 the Gaussian(R) 03 system (copyright 2003, Gaussian, Inc.),
 the Gaussian(R) 98 system (copyright 1998, Gaussian, Inc.),
 the Gaussian(R) 94 system (copyright 1995, Gaussian, Inc.),
 the Gaussian 92(TM) system (copyright 1992, Gaussian, Inc.),
 the Gaussian 90(TM) system (copyright 1990, Gaussian, Inc.),
 the Gaussian 88(TM) system (copyright 1988, Gaussian, Inc.),
 the Gaussian 86(TM) system (copyright 1986, Carnegie Mellon
 University), and the Gaussian 82(TM) system (copyright 1983,
 Carnegie Mellon University). Gaussian is a federally registered
 trademark of Gaussian, Inc.
  
 This software contains proprietary and confidential information,
 including trade secrets, belonging to Gaussian, Inc.
  
 This software is provided under written license and may be
 used, copied, transmitted, or stored only in accord with that
 written license.
  
 The following legend is applicable only to US Government
 contracts under FAR:
  
                    RESTRICTED RIGHTS LEGEND
  
 Use, reproduction and disclosure by the US Government is
 subject to restrictions as set forth in subparagraphs (a)
 and (c) of the Commercial Computer Software - Restricted
 Rights clause in FAR 52.227-19.
  
 Gaussian, Inc.
 340 Quinnipiac St., Bldg. 40, Wallingford CT 06492
  
  
 ---------------------------------------------------------------
 Warning -- This program may not be used in any manner that
 competes with the business of Gaussian, Inc. or will provide
 assistance to any competitor of Gaussian, Inc.  The licensee
 of this program is prohibited from giving any competitor of
 Gaussian, Inc. access to this program.  By using this program,
 the user acknowledges that Gaussian, Inc. is engaged in the
 business of creating and licensing software in the field of
 computational chemistry and represents and warrants to the
 licensee that it is not a competitor of Gaussian, Inc. and that
 it will not use this program in any manner prohibited above.
 ---------------------------------------------------------------
  

 Cite this work as:
 Gaussian 09, Revision E.01,
 M. J. Frisch, G. W. Trucks, H. B. Schlegel, G. E. Scuseria, 
 M. A. Robb, J. R. Cheeseman, G. Scalmani, V. Barone, B. Mennucci, 
 G. A. Petersson, H. Nakatsuji, M. Caricato, X. Li, H. P. Hratchian, 
 A. F. Izmaylov, J. Bloino, G. Zheng, J. L. Sonnenberg, M. Hada, 
 M. Ehara, K. Toyota, R. Fukuda, J. Hasegawa, M. Ishida, T. Nakajima, 
 Y. Honda, O. Kitao, H. Nakai, T. Vreven, J. A. Montgomery, Jr., 
 J. E. Peralta, F. Ogliaro, M. Bearpark, J. J. Heyd, E. Brothers, 
 K. N. Kudin, V. N. Staroverov, T. Keith, R. Kobayashi, J. Normand, 
 K. Raghavachari, A. Rendell, J. C. Burant, S. S. Iyengar, J. Tomasi, 
 M. Cossi, N. Rega, J. M. Millam, M. Klene, J. E. Knox, J. B. Cross, 
 V. Bakken, C. Adamo, J. Jaramillo, R. Gomperts, R. E. Stratmann, 
 O. Yazyev, A. J. Austin, R. Cammi, C. Pomelli, J. W. Ochterski, 
 R. L. Martin, K. Morokuma, V. G. Zakrzewski, G. A. Voth, 
 P. Salvador, J. J. Dannenberg, S. Dapprich, A. D. Daniels, 
 O. Farkas, J. B. Foresman, J. V. Ortiz, J. Cioslowski, 
 and D. J. Fox, Gaussian, Inc., Wallingford CT, 2013.
 
 ******************************************
 Gaussian 09:  ES64L-G09RevE.01 30-Nov-2015
                24-Feb-2017 
 ******************************************
 %chk=h10.chk
 ----------------------------------------------------------------------
 #p uhf/gen scf(tight,novaracc,noincfock,fulldiag ) stable=opt guess=(r
 ead) geom=nocrowd test
 ----------------------------------------------------------------------
 1/38=1/1;
 2/12=1,17=6,18=5,40=1/2;
 3/5=7,11=2,16=1,25=1,30=1,116=2/1,2,3;
 4/5=1/1;
 5/5=100002,16=1,32=2,38=6/2;
 6/7=2,8=2,9=2,10=2,28=1/1;
 8/6=1,10=90,11=11/1;
 9/8=-3,42=1,46=1/14;
 5/5=100002,8=3,16=1,17=40,32=2,38=6/8(-2);
 6/7=2,8=2,9=2,10=2,28=1/1;
 99/5=1,9=1/99;
 Leave Link    1 at Fri Feb 24 16:29:11 2017, MaxMem=           0 cpu:         0.0
 (Enter /projects/guscus/apps/gau/g09-e1/g09/l101.exe)
 ----------------------------------------------------------------------
 hf stability analysis of h10 triangular lattice, y= 0.6311000608084687
 0 alpha= 34.600000000000001
 ----------------------------------------------------------------------
 Symbolic Z-matrix:
 Charge =  0 Multiplicity = 1
 H
 H                    1     1.1114 
 H                    1     1.1114   2     110.8 
 H                    2     1.1114   1     69.2     3     0.       0
 H                    3     1.1114   1     180.     2     0.       0
 H                    4     1.1114   2     180.     1     0.       0
 H                    5     1.1114   3     180.     2     0.       0
 H                    6     1.1114   4     180.     1     0.       0
 H                    7     1.1114   5     180.     2     0.       0
 H                    8     1.1114   6     180.     1     0.       0
 
 NAtoms=     10 NQM=       10 NQMF=       0 NMMI=      0 NMMIF=      0
                NMic=       0 NMicF=      0.
                    Isotopes and Nuclear Properties:
 (Nuclear quadrupole moments (NQMom) in fm**2, nuclear magnetic moments (NMagM)
  in nuclear magnetons)

  Atom         1           2           3           4           5           6           7           8           9          10
 IAtWgt=           1           1           1           1           1           1           1           1           1           1
 AtmWgt=   1.0078250   1.0078250   1.0078250   1.0078250   1.0078250   1.0078250   1.0078250   1.0078250   1.0078250   1.0078250
 NucSpn=           1           1           1           1           1           1           1           1           1           1
 AtZEff=   0.0000000   0.0000000   0.0000000   0.0000000   0.0000000   0.0000000   0.0000000   0.0000000   0.0000000   0.0000000
 NQMom=    0.0000000   0.0000000   0.0000000   0.0000000   0.0000000   0.0000000   0.0000000   0.0000000   0.0000000   0.0000000
 NMagM=    2.7928460   2.7928460   2.7928460   2.7928460   2.7928460   2.7928460   2.7928460   2.7928460   2.7928460   2.7928460
 AtZNuc=   1.0000000   1.0000000   1.0000000   1.0000000   1.0000000   1.0000000   1.0000000   1.0000000   1.0000000   1.0000000
 Leave Link  101 at Fri Feb 24 16:29:11 2017, MaxMem=   134217728 cpu:         0.0
 (Enter /projects/guscus/apps/gau/g09-e1/g09/l202.exe)
                          Input orientation:                          
 ---------------------------------------------------------------------
 Center     Atomic      Atomic             Coordinates (Angstroms)
 Number     Number       Type             X           Y           Z
 ---------------------------------------------------------------------
      1          1           0        0.000000    0.000000    0.000000
      2          1           0        0.000000    0.000000    1.111397
      3          1           0        1.038963    0.000000   -0.394665
      4          1           0        1.038963    0.000000    0.716732
      5          1           0        2.077926    0.000000   -0.789330
      6          1           0        2.077926    0.000000    0.322067
      7          1           0        3.116888    0.000000   -1.183995
      8          1           0        3.116888    0.000000   -0.072597
      9          1           0        4.155851    0.000000   -1.578660
     10          1           0        4.155851    0.000000   -0.467262
 ---------------------------------------------------------------------
                    Distance matrix (angstroms):
                    1          2          3          4          5
     1  H    0.000000
     2  H    1.111397   0.000000
     3  H    1.111397   1.829663   0.000000
     4  H    1.262200   1.111397   1.111397   0.000000
     5  H    2.222795   2.816121   1.111397   1.829663   0.000000
     6  H    2.102737   2.222795   1.262200   1.111397   1.111397
     7  H    3.334192   3.870894   2.222795   2.816121   1.111397
     8  H    3.117734   3.334192   2.102737   2.222795   1.262200
     9  H    4.445589   4.950506   3.334192   3.870894   2.222795
    10  H    4.182037   4.445589   3.117734   3.334192   2.102737
                    6          7          8          9         10
     6  H    0.000000
     7  H    1.829663   0.000000
     8  H    1.111397   1.111397   0.000000
     9  H    2.816121   1.111397   1.829663   0.000000
    10  H    2.222795   1.262200   1.111397   1.111397   0.000000
 Stoichiometry    H10
 Framework group  C2H[SGH(H10)]
 Deg. of freedom     9
 Full point group                 C2H     NOp   4
 Largest Abelian subgroup         C2H     NOp   4
 Largest concise Abelian subgroup C2      NOp   2
                         Standard orientation:                         
 ---------------------------------------------------------------------
 Center     Atomic      Atomic             Coordinates (Angstroms)
 Number     Number       Type             X           Y           Z
 ---------------------------------------------------------------------
      1          1           0        2.077926   -0.233631    0.000000
      2          1           0        2.077926   -1.345029   -0.000000
      3          1           0        1.038963    0.161034    0.000000
      4          1           0        1.038963   -0.950364   -0.000000
      5          1           0        0.000000    0.555699    0.000000
      6          1           0       -0.000000   -0.555699   -0.000000
      7          1           0       -1.038963    0.950364    0.000000
      8          1           0       -1.038963   -0.161034   -0.000000
      9          1           0       -2.077926    1.345029    0.000000
     10          1           0       -2.077926    0.233631    0.000000
 ---------------------------------------------------------------------
 Rotational constants (GHZ):    189.1010456     19.9462586     18.0430854
 Leave Link  202 at Fri Feb 24 16:29:11 2017, MaxMem=   134217728 cpu:         0.0
 (Enter /projects/guscus/apps/gau/g09-e1/g09/l301.exe)
 General basis read from cards:  (5D, 7F)
 Centers:       1      2      3      4      5      6      7      8      9     10
 S 10 1.00
     Exponent=  1.0000000000D+03 Coefficients=  6.8713567000D-05
     Exponent=  3.1622776600D+02 Coefficients=  1.6914132000D-04
     Exponent=  1.0000000000D+02 Coefficients=  8.2339481200D-04
     Exponent=  3.1622776600D+01 Coefficients=  3.4255692360D-03
     Exponent=  1.0000000000D+01 Coefficients=  1.3951996000D-02
     Exponent=  3.1622776600D+00 Coefficients=  5.6909313560D-02
     Exponent=  1.0000000000D+00 Coefficients=  1.9828639990D-01
     Exponent=  3.1622776600D-01 Coefficients=  4.9692242670D-01
     Exponent=  1.0000000000D-01 Coefficients=  3.6984627640D-01
     Exponent=  3.1622776600D-02 Coefficients=  3.7527200390D-03
 ****
 Ernie: Thresh=  0.10000D-02 Tol=  0.10000D-05 Strict=F.
 There are     5 symmetry adapted cartesian basis functions of AG  symmetry.
 There are     0 symmetry adapted cartesian basis functions of BG  symmetry.
 There are     0 symmetry adapted cartesian basis functions of AU  symmetry.
 There are     5 symmetry adapted cartesian basis functions of BU  symmetry.
 There are     5 symmetry adapted basis functions of AG  symmetry.
 There are     0 symmetry adapted basis functions of BG  symmetry.
 There are     0 symmetry adapted basis functions of AU  symmetry.
 There are     5 symmetry adapted basis functions of BU  symmetry.
    10 basis functions,   100 primitive gaussians,    10 cartesian basis functions
     5 alpha electrons        5 beta electrons
       nuclear repulsion energy        13.4900093067 Hartrees.
 IExCor=    0 DFT=F Ex=HF Corr=None ExCW=0 ScaHFX=  1.000000
 ScaDFX=  1.000000  1.000000  1.000000  1.000000 ScalE2=  1.000000  1.000000
 IRadAn=      0 IRanWt=     -1 IRanGd=            0 ICorTp=0 IEmpDi=  4
 NAtoms=   10 NActive=   10 NUniq=    5 SFac= 4.00D+00 NAtFMM=   60 NAOKFM=F Big=F
 Integral buffers will be    131072 words long.
 Raffenetti 2 integral format.
 Two-electron integral symmetry is turned on.
 Leave Link  301 at Fri Feb 24 16:29:11 2017, MaxMem=   134217728 cpu:         0.0
 (Enter /projects/guscus/apps/gau/g09-e1/g09/l302.exe)
 NPDir=0 NMtPBC=     1 NCelOv=     1 NCel=       1 NClECP=     1 NCelD=      1
         NCelK=      1 NCelE2=     1 NClLst=     1 CellRange=     0.0.
 One-electron integrals computed using PRISM.
 One-electron integral symmetry used in STVInt
 NBasis=    10 RedAO= T EigKep=  1.54D-01  NBF=     5     0     0     5
 NBsUse=    10 1.00D-06 EigRej= -1.00D+00 NBFU=     5     0     0     5
 Leave Link  302 at Fri Feb 24 16:29:11 2017, MaxMem=   134217728 cpu:         0.0
 (Enter /projects/guscus/apps/gau/g09-e1/g09/l303.exe)
 DipDrv:  MaxL=1.
 Leave Link  303 at Fri Feb 24 16:29:11 2017, MaxMem=   134217728 cpu:         0.0
 (Enter /projects/guscus/apps/gau/g09-e1/g09/l401.exe)
 Initial guess from the checkpoint file:  "h10.chk"
 B after Tr=     0.000000   -0.000000    0.000000
         Rot=    0.999995    0.000000    0.000000   -0.003103 Ang=  -0.36 deg.
 Guess basis will be translated and rotated to current coordinates.
 JPrj=2 DoOrth=T DoCkMO=T.
 Initial guess orbital symmetries:
 Alpha Orbitals:
       Occupied  (BG) (BG) (BG) (BG) (BG)
       Virtual   (BG) (BG) (BG) (BG) (BG)
 Beta  Orbitals:
       Occupied  (BG) (BG) (BG) (BG) (BG)
       Virtual   (BG) (BG) (BG) (BG) (BG)
 Initial guess <Sx>= 0.0000 <Sy>= 0.0000 <Sz>= 0.0000 <S**2>= 1.3224 S= 0.7540
 Leave Link  401 at Fri Feb 24 16:29:12 2017, MaxMem=   134217728 cpu:         0.1
 (Enter /projects/guscus/apps/gau/g09-e1/g09/l502.exe)
 UHF open shell SCF:
 Using DIIS extrapolation, IDIIS=  1040.
 Integral symmetry usage will be decided dynamically.
 Keep R1 and R2 ints in memory in symmetry-blocked form, NReq=879509.
 IVT=       20217 IEndB=       20217 NGot=   134217728 MDV=   134195632
 LenX=   134195632 LenY=   134194750
 Requested convergence on RMS density matrix=1.00D-08 within 128 cycles.
 Requested convergence on MAX density matrix=1.00D-06.
 Requested convergence on             energy=1.00D-06.
 No special actions if energy rises.
 FoFCou: FMM=F IPFlag=           0 FMFlag=           0 FMFlg1=           0
         NFxFlg=           0 DoJE=F BraDBF=F KetDBF=F FulRan=T
         wScrn=  0.000000 ICntrl=     600 IOpCl=  0 I1Cent=           0 NGrid=           0
         NMat0=    1 NMatS0=     55 NMatT0=    0 NMatD0=    1 NMtDS0=    0 NMtDT0=    0
 Petite list used in FoFCou.
 An orbital has undefined symmetry, so N**3 symmetry is turned off.

 Cycle   1  Pass 1  IDiag  1:
 Density matrix breaks symmetry, PCut= 1.00D-04
 Density matrix has no symmetry -- integrals replicated.
 E= -4.92760603669392    
 DIIS: error= 3.60D-04 at cycle   1 NSaved=   1.
 NSaved= 1 IEnMin= 1 EnMin= -4.92760603669392     IErMin= 1 ErrMin= 3.60D-04
 ErrMax= 3.60D-04  0.00D+00 EMaxC= 1.00D-01 BMatC= 1.24D-05 BMatP= 1.24D-05
 IDIUse=3 WtCom= 9.96D-01 WtEn= 3.60D-03
 Coeff-Com:  0.100D+01
 Coeff-En:   0.100D+01
 Coeff:      0.100D+01
 Gap=     0.418 Goal=   None    Shift=    0.000
 Gap=     0.418 Goal=   None    Shift=    0.000
 RMSDP=8.19D-04 MaxDP=2.02D-03              OVMax= 0.00D+00

 Cycle   2  Pass 1  IDiag  1:
 Density matrix breaks symmetry, PCut= 1.00D-07
 Density matrix has no symmetry -- integrals replicated.
 E= -4.92761917255376     Delta-E=       -0.000013135860 Rises=F Damp=F
 DIIS: error= 1.90D-04 at cycle   2 NSaved=   2.
 NSaved= 2 IEnMin= 2 EnMin= -4.92761917255376     IErMin= 2 ErrMin= 1.90D-04
 ErrMax= 1.90D-04  0.00D+00 EMaxC= 1.00D-01 BMatC= 3.19D-06 BMatP= 1.24D-05
 IDIUse=3 WtCom= 9.98D-01 WtEn= 1.90D-03
 Coeff-Com: -0.555D+00 0.155D+01
 Coeff-En:   0.000D+00 0.100D+01
 Coeff:     -0.554D+00 0.155D+01
 Gap=     0.418 Goal=   None    Shift=    0.000
 Gap=     0.418 Goal=   None    Shift=    0.000
 RMSDP=6.98D-04 MaxDP=1.67D-03 DE=-1.31D-05 OVMax= 0.00D+00

 Cycle   3  Pass 1  IDiag  1:
 Density matrix breaks symmetry, PCut= 1.00D-07
 Density matrix has no symmetry -- integrals replicated.
 E= -4.92762502545731     Delta-E=       -0.000005852904 Rises=F Damp=F
 DIIS: error= 1.00D-04 at cycle   3 NSaved=   3.
 NSaved= 3 IEnMin= 3 EnMin= -4.92762502545731     IErMin= 3 ErrMin= 1.00D-04
 ErrMax= 1.00D-04  0.00D+00 EMaxC= 1.00D-01 BMatC= 8.74D-07 BMatP= 3.19D-06
 IDIUse=3 WtCom= 9.99D-01 WtEn= 1.00D-03
 Coeff-Com:  0.597D+00-0.204D+01 0.245D+01
 Coeff-En:   0.000D+00 0.000D+00 0.100D+01
 Coeff:      0.596D+00-0.204D+01 0.245D+01
 Gap=     0.418 Goal=   None    Shift=    0.000
 Gap=     0.418 Goal=   None    Shift=    0.000
 RMSDP=5.89D-04 MaxDP=1.71D-03 DE=-5.85D-06 OVMax= 0.00D+00

 Cycle   4  Pass 1  IDiag  1:
 Density matrix breaks symmetry, PCut= 1.00D-07
 Density matrix has no symmetry -- integrals replicated.
 E= -4.92762715577588     Delta-E=       -0.000002130319 Rises=F Damp=F
 DIIS: error= 3.52D-05 at cycle   4 NSaved=   4.
 NSaved= 4 IEnMin= 4 EnMin= -4.92762715577588     IErMin= 4 ErrMin= 3.52D-05
 ErrMax= 3.52D-05  0.00D+00 EMaxC= 1.00D-01 BMatC= 9.77D-08 BMatP= 8.74D-07
 IDIUse=1 WtCom= 1.00D+00 WtEn= 0.00D+00
 Coeff-Com: -0.417D+00 0.152D+01-0.206D+01 0.196D+01
 Coeff:     -0.417D+00 0.152D+01-0.206D+01 0.196D+01
 Gap=     0.418 Goal=   None    Shift=    0.000
 Gap=     0.418 Goal=   None    Shift=    0.000
 RMSDP=1.50D-04 MaxDP=5.81D-04 DE=-2.13D-06 OVMax= 0.00D+00

 Cycle   5  Pass 1  IDiag  1:
 Density matrix breaks symmetry, PCut= 1.00D-07
 Density matrix has no symmetry -- integrals replicated.
 E= -4.92762732570957     Delta-E=       -0.000000169934 Rises=F Damp=F
 DIIS: error= 1.02D-05 at cycle   5 NSaved=   5.
 NSaved= 5 IEnMin= 5 EnMin= -4.92762732570957     IErMin= 5 ErrMin= 1.02D-05
 ErrMax= 1.02D-05  0.00D+00 EMaxC= 1.00D-01 BMatC= 5.39D-09 BMatP= 9.77D-08
 IDIUse=1 WtCom= 1.00D+00 WtEn= 0.00D+00
 Coeff-Com:  0.529D-01-0.205D+00 0.303D+00-0.487D+00 0.134D+01
 Coeff:      0.529D-01-0.205D+00 0.303D+00-0.487D+00 0.134D+01
 Gap=     0.418 Goal=   None    Shift=    0.000
 Gap=     0.418 Goal=   None    Shift=    0.000
 RMSDP=2.91D-05 MaxDP=1.16D-04 DE=-1.70D-07 OVMax= 0.00D+00

 Cycle   6  Pass 1  IDiag  1:
 Density matrix breaks symmetry, PCut= 1.00D-07
 Density matrix has no symmetry -- integrals replicated.
 E= -4.92762733443584     Delta-E=       -0.000000008726 Rises=F Damp=F
 DIIS: error= 2.78D-06 at cycle   6 NSaved=   6.
 NSaved= 6 IEnMin= 6 EnMin= -4.92762733443584     IErMin= 6 ErrMin= 2.78D-06
 ErrMax= 2.78D-06  0.00D+00 EMaxC= 1.00D-01 BMatC= 6.44D-10 BMatP= 5.39D-09
 IDIUse=1 WtCom= 1.00D+00 WtEn= 0.00D+00
 Coeff-Com:  0.156D-01-0.535D-01 0.646D-01-0.353D-02-0.506D+00 0.148D+01
 Coeff:      0.156D-01-0.535D-01 0.646D-01-0.353D-02-0.506D+00 0.148D+01
 Gap=     0.418 Goal=   None    Shift=    0.000
 Gap=     0.418 Goal=   None    Shift=    0.000
 RMSDP=9.62D-06 MaxDP=4.14D-05 DE=-8.73D-09 OVMax= 0.00D+00

 Cycle   7  Pass 1  IDiag  1:
 Density matrix breaks symmetry, PCut= 1.00D-07
 Density matrix has no symmetry -- integrals replicated.
 E= -4.92762733552867     Delta-E=       -0.000000001093 Rises=F Damp=F
 DIIS: error= 8.64D-07 at cycle   7 NSaved=   7.
 NSaved= 7 IEnMin= 7 EnMin= -4.92762733552867     IErMin= 7 ErrMin= 8.64D-07
 ErrMax= 8.64D-07  0.00D+00 EMaxC= 1.00D-01 BMatC= 7.17D-11 BMatP= 6.44D-10
 IDIUse=1 WtCom= 1.00D+00 WtEn= 0.00D+00
 Coeff-Com: -0.199D-01 0.714D-01-0.933D-01 0.722D-01 0.191D+00-0.102D+01
 Coeff-Com:  0.180D+01
 Coeff:     -0.199D-01 0.714D-01-0.933D-01 0.722D-01 0.191D+00-0.102D+01
 Coeff:      0.180D+01
 Gap=     0.418 Goal=   None    Shift=    0.000
 Gap=     0.418 Goal=   None    Shift=    0.000
 RMSDP=3.71D-06 MaxDP=1.06D-05 DE=-1.09D-09 OVMax= 0.00D+00

 Cycle   8  Pass 1  IDiag  1:
 Density matrix breaks symmetry, PCut= 1.00D-07
 Density matrix has no symmetry -- integrals replicated.
 E= -4.92762733566579     Delta-E=       -0.000000000137 Rises=F Damp=F
 DIIS: error= 1.99D-07 at cycle   8 NSaved=   8.
 NSaved= 8 IEnMin= 8 EnMin= -4.92762733566579     IErMin= 8 ErrMin= 1.99D-07
 ErrMax= 1.99D-07  0.00D+00 EMaxC= 1.00D-01 BMatC= 3.94D-12 BMatP= 7.17D-11
 IDIUse=1 WtCom= 1.00D+00 WtEn= 0.00D+00
 Coeff-Com:  0.123D-01-0.441D-01 0.576D-01-0.456D-01-0.106D+00 0.605D+00
 Coeff-Com: -0.117D+01 0.169D+01
 Coeff:      0.123D-01-0.441D-01 0.576D-01-0.456D-01-0.106D+00 0.605D+00
 Coeff:     -0.117D+01 0.169D+01
 Gap=     0.418 Goal=   None    Shift=    0.000
 Gap=     0.418 Goal=   None    Shift=    0.000
 RMSDP=8.92D-07 MaxDP=2.99D-06 DE=-1.37D-10 OVMax= 0.00D+00

 Cycle   9  Pass 1  IDiag  1:
 Density matrix breaks symmetry, PCut= 1.00D-07
 Density matrix has no symmetry -- integrals replicated.
 E= -4.92762733567448     Delta-E=       -0.000000000009 Rises=F Damp=F
 DIIS: error= 1.08D-07 at cycle   9 NSaved=   9.
 NSaved= 9 IEnMin= 9 EnMin= -4.92762733567448     IErMin= 9 ErrMin= 1.08D-07
 ErrMax= 1.08D-07  0.00D+00 EMaxC= 1.00D-01 BMatC= 8.12D-13 BMatP= 3.94D-12
 IDIUse=1 WtCom= 1.00D+00 WtEn= 0.00D+00
 Coeff-Com: -0.119D-01 0.430D-01-0.564D-01 0.456D-01 0.952D-01-0.573D+00
 Coeff-Com:  0.115D+01-0.206D+01 0.237D+01
 Coeff:     -0.119D-01 0.430D-01-0.564D-01 0.456D-01 0.952D-01-0.573D+00
 Coeff:      0.115D+01-0.206D+01 0.237D+01
 Gap=     0.418 Goal=   None    Shift=    0.000
 Gap=     0.418 Goal=   None    Shift=    0.000
 RMSDP=5.85D-07 MaxDP=1.58D-06 DE=-8.69D-12 OVMax= 0.00D+00

 Cycle  10  Pass 1  IDiag  1:
 Density matrix breaks symmetry, PCut= 1.00D-07
 Density matrix has no symmetry -- integrals replicated.
 E= -4.92762733567696     Delta-E=       -0.000000000002 Rises=F Damp=F
 DIIS: error= 3.54D-08 at cycle  10 NSaved=  10.
 NSaved=10 IEnMin=10 EnMin= -4.92762733567696     IErMin=10 ErrMin= 3.54D-08
 ErrMax= 3.54D-08  0.00D+00 EMaxC= 1.00D-01 BMatC= 8.19D-14 BMatP= 8.12D-13
 IDIUse=1 WtCom= 1.00D+00 WtEn= 0.00D+00
 Coeff-Com:  0.992D-02-0.357D-01 0.469D-01-0.376D-01-0.820D-01 0.486D+00
 Coeff-Com: -0.972D+00 0.177D+01-0.225D+01 0.206D+01
 Coeff:      0.992D-02-0.357D-01 0.469D-01-0.376D-01-0.820D-01 0.486D+00
 Coeff:     -0.972D+00 0.177D+01-0.225D+01 0.206D+01
 Gap=     0.418 Goal=   None    Shift=    0.000
 Gap=     0.418 Goal=   None    Shift=    0.000
 RMSDP=1.76D-07 MaxDP=4.05D-07 DE=-2.48D-12 OVMax= 0.00D+00

 Cycle  11  Pass 1  IDiag  1:
 Density matrix breaks symmetry, PCut= 1.00D-07
 Density matrix has no symmetry -- integrals replicated.
 E= -4.92762733567719     Delta-E=       -0.000000000000 Rises=F Damp=F
 DIIS: error= 8.52D-09 at cycle  11 NSaved=  11.
 NSaved=11 IEnMin=11 EnMin= -4.92762733567719     IErMin=11 ErrMin= 8.52D-09
 ErrMax= 8.52D-09  0.00D+00 EMaxC= 1.00D-01 BMatC= 6.31D-15 BMatP= 8.19D-14
 IDIUse=1 WtCom= 1.00D+00 WtEn= 0.00D+00
 Coeff-Com: -0.538D-02 0.194D-01-0.254D-01 0.203D-01 0.460D-01-0.268D+00
 Coeff-Com:  0.535D+00-0.984D+00 0.126D+01-0.138D+01 0.178D+01
 Coeff:     -0.538D-02 0.194D-01-0.254D-01 0.203D-01 0.460D-01-0.268D+00
 Coeff:      0.535D+00-0.984D+00 0.126D+01-0.138D+01 0.178D+01
 Gap=     0.418 Goal=   None    Shift=    0.000
 Gap=     0.418 Goal=   None    Shift=    0.000
 RMSDP=4.95D-08 MaxDP=1.23D-07 DE=-2.27D-13 OVMax= 0.00D+00

 Cycle  12  Pass 1  IDiag  1:
 Density matrix breaks symmetry, PCut= 1.00D-07
 Density matrix has no symmetry -- integrals replicated.
 E= -4.92762733567719     Delta-E=       -0.000000000000 Rises=F Damp=F
 DIIS: error= 1.70D-09 at cycle  12 NSaved=  12.
 NSaved=12 IEnMin=12 EnMin= -4.92762733567719     IErMin=12 ErrMin= 1.70D-09
 ErrMax= 1.70D-09  0.00D+00 EMaxC= 1.00D-01 BMatC= 2.71D-16 BMatP= 6.31D-15
 IDIUse=1 WtCom= 1.00D+00 WtEn= 0.00D+00
 Coeff-Com:  0.130D-02-0.470D-02 0.616D-02-0.489D-02-0.118D-01 0.673D-01
 Coeff-Com: -0.133D+00 0.247D+00-0.318D+00 0.378D+00-0.677D+00 0.145D+01
 Coeff:      0.130D-02-0.470D-02 0.616D-02-0.489D-02-0.118D-01 0.673D-01
 Coeff:     -0.133D+00 0.247D+00-0.318D+00 0.378D+00-0.677D+00 0.145D+01
 Gap=     0.418 Goal=   None    Shift=    0.000
 Gap=     0.418 Goal=   None    Shift=    0.000
 RMSDP=6.62D-09 MaxDP=1.59D-08 DE=-3.55D-15 OVMax= 0.00D+00

 Density matrix breaks symmetry, PCut= 1.00D-07
 Density matrix has no symmetry -- integrals replicated.
 SCF Done:  E(UHF) =  -4.92762733568     A.U. after   12 cycles
            NFock= 12  Conv=0.66D-08     -V/T= 1.9350
 <Sx>= 0.0000 <Sy>= 0.0000 <Sz>= 0.0000 <S**2>= 1.3279 S= 0.7561
 <L.S>= 0.000000000000E+00
 KE= 5.270148018182D+00 PE=-3.620909495958D+01 EE= 1.252131029905D+01
 Annihilation of the first spin contaminant:
 S**2 before annihilation     1.3279,   after     2.5747
 Leave Link  502 at Fri Feb 24 16:29:12 2017, MaxMem=   134217728 cpu:         0.1
 (Enter /projects/guscus/apps/gau/g09-e1/g09/l601.exe)
 Copying SCF densities to generalized density rwf, IOpCl= 1 IROHF=0.

 **********************************************************************

            Population analysis using the SCF density.

 **********************************************************************

 Orbital symmetries:
 Alpha Orbitals:
       Occupied  (BG) (BG) (BG) (BG) (BG)
       Virtual   (BG) (BG) (BG) (BG) (BG)
 Beta  Orbitals:
       Occupied  (BG) (BG) (BG) (BG) (BG)
       Virtual   (BG) (BG) (BG) (BG) (BG)
 Unable to determine electronic state:  partially filled degenerate orbitals.
 Alpha  occ. eigenvalues --   -0.86037  -0.74454  -0.56188  -0.41353  -0.36784
 Alpha virt. eigenvalues --    0.05040   0.22059   0.31272   0.54869   0.73467
  Beta  occ. eigenvalues --   -0.86037  -0.74454  -0.56188  -0.41353  -0.36784
  Beta virt. eigenvalues --    0.05040   0.22059   0.31272   0.54869   0.73467
          Condensed to atoms (all electrons):
               1          2          3          4          5          6
     1  H    0.958227   0.151708   0.162643  -0.166825  -0.006508  -0.105925
     2  H    0.151708   0.871160  -0.137955   0.099165  -0.012823  -0.021905
     3  H    0.162643  -0.137955   1.121423  -0.050368   0.177213  -0.116950
     4  H   -0.166825   0.099165  -0.050368   0.970074  -0.105768   0.268735
     5  H   -0.006508  -0.012823   0.177213  -0.105768   0.958251  -0.019792
     6  H   -0.105925  -0.021905  -0.116950   0.268735  -0.019792   0.958251
     7  H    0.002608   0.003645  -0.025075  -0.019192   0.268735  -0.105768
     8  H    0.004634   0.006069  -0.092854  -0.025075  -0.116950   0.177213
     9  H   -0.000612  -0.000171   0.006069   0.003645  -0.021905  -0.012823
    10  H    0.001463  -0.000612   0.004634   0.002608  -0.105925  -0.006508
               7          8          9         10
     1  H    0.002608   0.004634  -0.000612   0.001463
     2  H    0.003645   0.006069  -0.000171  -0.000612
     3  H   -0.025075  -0.092854   0.006069   0.004634
     4  H   -0.019192  -0.025075   0.003645   0.002608
     5  H    0.268735  -0.116950  -0.021905  -0.105925
     6  H   -0.105768   0.177213  -0.012823  -0.006508
     7  H    0.970074  -0.050368   0.099165  -0.166825
     8  H   -0.050368   1.121423  -0.137955   0.162643
     9  H    0.099165  -0.137955   0.871160   0.151708
    10  H   -0.166825   0.162643   0.151708   0.958227
          Atomic-Atomic Spin Densities.
               1          2          3          4          5          6
     1  H    0.718787   0.097725  -0.091054  -0.193078   0.002787  -0.032442
     2  H    0.097725  -0.691922   0.115878  -0.096667  -0.008639  -0.001835
     3  H   -0.091054   0.115878  -0.759382  -0.025824   0.164083   0.093168
     4  H   -0.193078  -0.096667  -0.025824   0.761196  -0.067002   0.147489
     5  H    0.002787  -0.008639   0.164083  -0.067002   0.411079   0.000000
     6  H   -0.032442  -0.001835   0.093168   0.147489   0.000000  -0.411079
     7  H    0.001756  -0.003902   0.041358   0.000000  -0.147489   0.067002
     8  H    0.015526   0.002123   0.000000  -0.041358  -0.093168  -0.164083
     9  H   -0.001363   0.000000  -0.002123   0.003902   0.001835   0.008639
    10  H    0.000000   0.001363  -0.015526  -0.001756   0.032442  -0.002787
               7          8          9         10
     1  H    0.001756   0.015526  -0.001363   0.000000
     2  H   -0.003902   0.002123   0.000000   0.001363
     3  H    0.041358   0.000000  -0.002123  -0.015526
     4  H    0.000000  -0.041358   0.003902  -0.001756
     5  H   -0.147489  -0.093168   0.001835   0.032442
     6  H    0.067002  -0.164083   0.008639  -0.002787
     7  H   -0.761196   0.025824   0.096667   0.193078
     8  H    0.025824   0.759382  -0.115878   0.091054
     9  H    0.096667  -0.115878   0.691922  -0.097725
    10  H    0.193078   0.091054  -0.097725  -0.718787
 Mulliken charges and spin densities:
               1          2
     1  H   -0.001412   0.518644
     2  H    0.041719  -0.585877
     3  H   -0.048780  -0.479422
     4  H    0.023001   0.486902
     5  H   -0.014528   0.295929
     6  H   -0.014528  -0.295929
     7  H    0.023001  -0.486902
     8  H   -0.048780   0.479422
     9  H    0.041719   0.585877
    10  H   -0.001412  -0.518644
 Sum of Mulliken charges =  -0.00000   0.00000
 Mulliken charges and spin densities with hydrogens summed into heavy atoms:
               1          2
 Electronic spatial extent (au):  <R**2>=            129.6406
 Charge=             -0.0000 electrons
 Dipole moment (field-independent basis, Debye):
    X=              0.0000    Y=              0.0000    Z=              0.0000  Tot=              0.0000
 Quadrupole moment (field-independent basis, Debye-Ang):
   XX=            -13.8395   YY=            -14.1952   ZZ=            -12.8453
   XY=             -1.8010   XZ=             -0.0000   YZ=             -0.0000
 Traceless Quadrupole moment (field-independent basis, Debye-Ang):
   XX=             -0.2128   YY=             -0.5686   ZZ=              0.7814
   XY=             -1.8010   XZ=             -0.0000   YZ=             -0.0000
 Octapole moment (field-independent basis, Debye-Ang**2):
  XXX=             -0.0000  YYY=              0.0000  ZZZ=             -0.0000  XYY=             -0.0000
  XXY=             -0.0000  XXZ=             -0.0000  XZZ=             -0.0000  YZZ=              0.0000
  YYZ=             -0.0000  XYZ=             -0.0000
 Hexadecapole moment (field-independent basis, Debye-Ang**3):
 XXXX=           -201.2458 YYYY=            -69.0430 ZZZZ=            -15.4476 XXXY=             28.6575
 XXXZ=              0.0000 YYYX=             30.3565 YYYZ=             -0.0000 ZZZX=              0.0000
 ZZZY=             -0.0000 XXYY=            -41.6042 XXZZ=            -34.1694 YYZZ=            -14.0083
 XXYZ=             -0.0000 YYXZ=              0.0000 ZZXY=             10.3464
 N-N= 1.349000930668D+01 E-N=-3.620909494947D+01  KE= 5.270148018182D+00
 Symmetry AG   KE= 2.341596655562D+00
 Symmetry BG   KE= 0.000000000000D+00
 Symmetry AU   KE= 0.000000000000D+00
 Symmetry BU   KE= 2.928551362620D+00
                          Isotropic Fermi Contact Couplings
        Atom                 a.u.       MegaHertz       Gauss      10(-4) cm-1
     1  H(1)               0.19918     445.15123     158.84102     148.48647
     2  H(1)              -0.20508    -458.35133    -163.55115    -152.88955
     3  H(1)              -0.20745    -463.64160    -165.43885    -154.65419
     4  H(1)               0.20916     467.46353     166.80261     155.92905
     5  H(1)               0.11451     255.91926      91.31835      85.36548
     6  H(1)              -0.11451    -255.91926     -91.31835     -85.36548
     7  H(1)              -0.20916    -467.46353    -166.80261    -155.92905
     8  H(1)               0.20745     463.64160     165.43885     154.65419
     9  H(1)               0.20508     458.35133     163.55115     152.88955
    10  H(1)              -0.19918    -445.15123    -158.84102    -148.48647
 --------------------------------------------------------
       Center         ----  Spin Dipole Couplings  ----
                      3XX-RR        3YY-RR        3ZZ-RR
 --------------------------------------------------------
     1   Atom       -0.012934     -0.048975      0.061909
     2   Atom        0.012517      0.049397     -0.061914
     3   Atom        0.054870      0.023951     -0.078820
     4   Atom       -0.022908     -0.046943      0.069851
     5   Atom       -0.064249      0.002249      0.062000
     6   Atom        0.064249     -0.002249     -0.062000
     7   Atom        0.022908      0.046943     -0.069851
     8   Atom       -0.054870     -0.023951      0.078820
     9   Atom       -0.012517     -0.049397      0.061914
    10   Atom        0.012934      0.048975     -0.061909
 --------------------------------------------------------
                        XY            XZ            YZ
 --------------------------------------------------------
     1   Atom        0.067934      0.000000     -0.000000
     2   Atom       -0.001193      0.000000      0.000000
     3   Atom       -0.044792     -0.000000      0.000000
     4   Atom        0.071264     -0.000000     -0.000000
     5   Atom        0.076178      0.000000     -0.000000
     6   Atom       -0.076178      0.000000      0.000000
     7   Atom       -0.071264     -0.000000      0.000000
     8   Atom        0.044792      0.000000     -0.000000
     9   Atom        0.001193      0.000000     -0.000000
    10   Atom       -0.067934     -0.000000      0.000000
 --------------------------------------------------------


 ---------------------------------------------------------------------------------
              Anisotropic Spin Dipole Couplings in Principal Axis System
 ---------------------------------------------------------------------------------

       Atom             a.u.   MegaHertz   Gauss  10(-4) cm-1        Axes

              Baa    -0.1012   -54.016   -19.274   -18.018 -0.6098  0.7926  0.0000
     1 H(1)   Bbb     0.0393    20.984     7.488     7.000  0.7926  0.6098  0.0000
              Bcc     0.0619    33.032    11.787    11.018  0.0000  0.0000  1.0000
 
              Baa    -0.0619   -33.034   -11.788   -11.019  0.0000  0.0000  1.0000
     2 H(1)   Bbb     0.0125     6.658     2.376     2.221  0.9995  0.0323  0.0000
              Bcc     0.0494    26.377     9.412     8.798 -0.0323  0.9995  0.0000
 
              Baa    -0.0788   -42.055   -15.006   -14.028  0.0000  0.0000  1.0000
     3 H(1)   Bbb    -0.0080    -4.255    -1.518    -1.419  0.5804  0.8143  0.0000
              Bcc     0.0868    46.310    16.524    15.447  0.8143 -0.5804  0.0000
 
              Baa    -0.1072   -57.194   -20.408   -19.078 -0.6456  0.7636  0.0000
     4 H(1)   Bbb     0.0373    19.925     7.110     6.646  0.7636  0.6456 -0.0000
              Bcc     0.0699    37.269    13.299    12.432  0.0000  0.0000  1.0000
 
              Baa    -0.1141   -60.888   -21.726   -20.310  0.8367 -0.5477  0.0000
     5 H(1)   Bbb     0.0521    27.808     9.923     9.276  0.5477  0.8367  0.0000
              Bcc     0.0620    33.080    11.804    11.034  0.0000  0.0000  1.0000
 
              Baa    -0.0620   -33.080   -11.804   -11.034  0.0000  0.0000  1.0000
     6 H(1)   Bbb    -0.0521   -27.808    -9.923    -9.276  0.5477  0.8367 -0.0000
              Bcc     0.1141    60.888    21.726    20.310  0.8367 -0.5477  0.0000
 
              Baa    -0.0699   -37.269   -13.299   -12.432  0.0000  0.0000  1.0000
     7 H(1)   Bbb    -0.0373   -19.925    -7.110    -6.646  0.7636  0.6456  0.0000
              Bcc     0.1072    57.194    20.408    19.078 -0.6456  0.7636  0.0000
 
              Baa    -0.0868   -46.310   -16.524   -15.447  0.8143 -0.5804  0.0000
     8 H(1)   Bbb     0.0080     4.255     1.518     1.419  0.5804  0.8143  0.0000
              Bcc     0.0788    42.055    15.006    14.028  0.0000  0.0000  1.0000
 
              Baa    -0.0494   -26.377    -9.412    -8.798 -0.0323  0.9995  0.0000
     9 H(1)   Bbb    -0.0125    -6.658    -2.376    -2.221  0.9995  0.0323  0.0000
              Bcc     0.0619    33.034    11.788    11.019  0.0000  0.0000  1.0000
 
              Baa    -0.0619   -33.032   -11.787   -11.018  0.0000  0.0000  1.0000
    10 H(1)   Bbb    -0.0393   -20.984    -7.488    -7.000  0.7926  0.6098  0.0000
              Bcc     0.1012    54.016    19.274    18.018 -0.6098  0.7926  0.0000
 

 ---------------------------------------------------------------------------------

 No NMR shielding tensors so no spin-rotation constants.
 Leave Link  601 at Fri Feb 24 16:29:12 2017, MaxMem=   134217728 cpu:         0.1
 (Enter /projects/guscus/apps/gau/g09-e1/g09/l801.exe)
 Range of M.O.s used for correlation:     1    10
 NBasis=    10 NAE=     5 NBE=     5 NFC=     0 NFV=     0
 NROrb=     10 NOA=     5 NOB=     5 NVA=     5 NVB=     5
 Leave Link  801 at Fri Feb 24 16:29:12 2017, MaxMem=   134217728 cpu:         0.0
 (Enter /projects/guscus/apps/gau/g09-e1/g09/l914.exe)
 UHF ground state
 Doing stability rather than CIS.
 MDV=   134217728 DFT=F DoStab=T Mixed=F DoRPA=F DoScal=F NonHer=F
 Keep R1 and R2 ints in memory in symmetry-blocked form, NReq=802982.
 FoFCou: FMM=F IPFlag=           0 FMFlag=           0 FMFlg1=           0
         NFxFlg=           0 DoJE=F BraDBF=F KetDBF=F FulRan=T
         wScrn=  0.000000 ICntrl=     600 IOpCl=  0 I1Cent=           0 NGrid=           0
         NMat0=    1 NMatS0=     55 NMatT0=    0 NMatD0=    1 NMtDS0=    0 NMtDT0=    0
 Petite list used in FoFCou.
 Making orbital integer symmetry assigments:
 Orbital symmetries:
 Alpha Orbitals:
       Occupied  (BG) (BG) (BG) (BG) (BG)
       Virtual   (BG) (BG) (BG) (BG) (BG)
 Beta  Orbitals:
       Occupied  (BG) (BG) (BG) (BG) (BG)
       Virtual   (BG) (BG) (BG) (BG) (BG)
    12 initial guesses have been made.
 Convergence on wavefunction:    0.001000000000000
 Davidson Disk Diagonalization:  ConvIn= 1.00D-03 SkipCon=T Conv= 1.00D-03.
 Max sub-space:   200 roots to seek:    12 dimension of matrix:           50
 Iteration     1 Dimension    12 NMult     0 NNew     12
 CISAX will form    12 AO SS matrices at one time.
 NMat=    12 NSing=    12 JSym2X= 2.
 Excitation Energies [eV] at current iteration:
 Root      1 :     3.127590806860693
 Root      2 :     3.625360158717881
 Root      3 :     4.510781125368768
 Root      4 :     5.509561492274766
 Root      5 :     7.231272515878809
 Root      6 :     8.478375786618884
 Root      7 :     8.516207895394885
 Root      8 :     8.847966012796945
 Root      9 :    11.610965907701210
 Root     10 :    11.853778001931180
 Root     11 :    12.189418899866710
 Root     12 :    15.030006372182150
 Iteration     2 Dimension    24 NMult    12 NNew     12
 CISAX will form    12 AO SS matrices at one time.
 NMat=    12 NSing=    12 JSym2X= 2.
 Root      1 not converged, maximum delta is    0.114767253068626
 Excitation Energies [eV] at current iteration:
 Root      1 :     2.282745519105180   Change is   -0.844845287755513
 Root      2 :     3.317538500485776   Change is   -0.307821658232105
 Root      3 :     3.974122539501483   Change is   -0.536658585867286
 Root      4 :     4.919604877944882   Change is   -0.589956614329884
 Root      5 :     5.972007078482250   Change is   -1.259265437396559
 Root      6 :     7.395090051400975   Change is   -1.121117843993911
 Root      7 :     7.511573210647733   Change is   -0.966802575971151
 Root      8 :     7.774682255567688   Change is   -1.073283757229258
 Root      9 :     9.635527565948104   Change is   -1.975438341753106
 Root     10 :    10.766511909734530   Change is   -1.087266092196653
 Root     11 :    11.797471550587860   Change is   -0.391947349278850
 Root     12 :    12.865041809188910   Change is   -2.164964562993236
 Iteration     3 Dimension    27 NMult    24 NNew      3
 CISAX will form     3 AO SS matrices at one time.
 NMat=     3 NSing=     3 JSym2X= 2.
 Root      1 not converged, maximum delta is    0.011914696929195
 Excitation Energies [eV] at current iteration:
 Root      1 :     2.269967730525137   Change is   -0.012777788580044
 Root      2 :     3.305714106512354   Change is   -0.011824393973422
 Root      3 :     3.928559155123552   Change is   -0.045563384377931
 Iteration     4 Dimension    30 NMult    27 NNew      3
 CISAX will form     3 AO SS matrices at one time.
 NMat=     3 NSing=     3 JSym2X= 2.
 Root      1 has converged.
 Excitation Energies [eV] at current iteration:
 Root      1 :     2.269801966381079   Change is   -0.000165764144057
 Root      2 :     3.305379268990301   Change is   -0.000334837522053
 Root      3 :     3.925479467426118   Change is   -0.003079687697433
 Convergence achieved on expansion vectors.
 ***********************************************************************
 Stability analysis using <AA,BB:AA,BB> singles matrix:
 ***********************************************************************

 Eigenvectors of the stability matrix:
 
 Eigenvector   1:  2.101-AG   Eigenvalue= 0.0834137  <S**2>=0.853
      3A ->  8A        0.11189
      4A ->  7A       -0.20056
      5A ->  6A       -0.64548
      3B ->  8B       -0.11189
      4B ->  7B        0.20056
      5B ->  6B        0.64548
 SavETr:  write IOETrn=   770 NScale= 10 NData=  16 NLR=1 NState=    1 LETran=      28.
 The wavefunction is stable under the perturbations considered.
 Leave Link  914 at Fri Feb 24 16:29:12 2017, MaxMem=   134217728 cpu:         0.1
 (Enter /projects/guscus/apps/gau/g09-e1/g09/l508.exe)
 The wavefunction is already stable.
 Leave Link  508 at Fri Feb 24 16:29:12 2017, MaxMem=   134217728 cpu:         0.0
 (Enter /projects/guscus/apps/gau/g09-e1/g09/l601.exe)
 Copying SCF densities to generalized density rwf, IOpCl= 1 IROHF=0.

 **********************************************************************

            Population analysis using the SCF density.

 **********************************************************************

 Orbital symmetries:
 Alpha Orbitals:
       Occupied  (BG) (BG) (BG) (BG) (BG)
       Virtual   (BG) (BG) (BG) (BG) (BG)
 Beta  Orbitals:
       Occupied  (BG) (BG) (BG) (BG) (BG)
       Virtual   (BG) (BG) (BG) (BG) (BG)
 Unable to determine electronic state:  partially filled degenerate orbitals.
 Alpha  occ. eigenvalues --   -0.86037  -0.74454  -0.56188  -0.41353  -0.36784
 Alpha virt. eigenvalues --    0.05040   0.22059   0.31272   0.54869   0.73467
  Beta  occ. eigenvalues --   -0.86037  -0.74454  -0.56188  -0.41353  -0.36784
  Beta virt. eigenvalues --    0.05040   0.22059   0.31272   0.54869   0.73467
          Condensed to atoms (all electrons):
               1          2          3          4          5          6
     1  H    0.958227   0.151708   0.162643  -0.166825  -0.006508  -0.105925
     2  H    0.151708   0.871160  -0.137955   0.099165  -0.012823  -0.021905
     3  H    0.162643  -0.137955   1.121423  -0.050368   0.177213  -0.116950
     4  H   -0.166825   0.099165  -0.050368   0.970074  -0.105768   0.268735
     5  H   -0.006508  -0.012823   0.177213  -0.105768   0.958251  -0.019792
     6  H   -0.105925  -0.021905  -0.116950   0.268735  -0.019792   0.958251
     7  H    0.002608   0.003645  -0.025075  -0.019192   0.268735  -0.105768
     8  H    0.004634   0.006069  -0.092854  -0.025075  -0.116950   0.177213
     9  H   -0.000612  -0.000171   0.006069   0.003645  -0.021905  -0.012823
    10  H    0.001463  -0.000612   0.004634   0.002608  -0.105925  -0.006508
               7          8          9         10
     1  H    0.002608   0.004634  -0.000612   0.001463
     2  H    0.003645   0.006069  -0.000171  -0.000612
     3  H   -0.025075  -0.092854   0.006069   0.004634
     4  H   -0.019192  -0.025075   0.003645   0.002608
     5  H    0.268735  -0.116950  -0.021905  -0.105925
     6  H   -0.105768   0.177213  -0.012823  -0.006508
     7  H    0.970074  -0.050368   0.099165  -0.166825
     8  H   -0.050368   1.121423  -0.137955   0.162643
     9  H    0.099165  -0.137955   0.871160   0.151708
    10  H   -0.166825   0.162643   0.151708   0.958227
          Atomic-Atomic Spin Densities.
               1          2          3          4          5          6
     1  H    0.718787   0.097725  -0.091054  -0.193078   0.002787  -0.032442
     2  H    0.097725  -0.691922   0.115878  -0.096667  -0.008639  -0.001835
     3  H   -0.091054   0.115878  -0.759382  -0.025824   0.164083   0.093168
     4  H   -0.193078  -0.096667  -0.025824   0.761196  -0.067002   0.147489
     5  H    0.002787  -0.008639   0.164083  -0.067002   0.411079   0.000000
     6  H   -0.032442  -0.001835   0.093168   0.147489   0.000000  -0.411079
     7  H    0.001756  -0.003902   0.041358   0.000000  -0.147489   0.067002
     8  H    0.015526   0.002123   0.000000  -0.041358  -0.093168  -0.164083
     9  H   -0.001363   0.000000  -0.002123   0.003902   0.001835   0.008639
    10  H    0.000000   0.001363  -0.015526  -0.001756   0.032442  -0.002787
               7          8          9         10
     1  H    0.001756   0.015526  -0.001363   0.000000
     2  H   -0.003902   0.002123   0.000000   0.001363
     3  H    0.041358   0.000000  -0.002123  -0.015526
     4  H    0.000000  -0.041358   0.003902  -0.001756
     5  H   -0.147489  -0.093168   0.001835   0.032442
     6  H    0.067002  -0.164083   0.008639  -0.002787
     7  H   -0.761196   0.025824   0.096667   0.193078
     8  H    0.025824   0.759382  -0.115878   0.091054
     9  H    0.096667  -0.115878   0.691922  -0.097725
    10  H    0.193078   0.091054  -0.097725  -0.718787
 Mulliken charges and spin densities:
               1          2
     1  H   -0.001412   0.518644
     2  H    0.041719  -0.585877
     3  H   -0.048780  -0.479422
     4  H    0.023001   0.486902
     5  H   -0.014528   0.295929
     6  H   -0.014528  -0.295929
     7  H    0.023001  -0.486902
     8  H   -0.048780   0.479422
     9  H    0.041719   0.585877
    10  H   -0.001412  -0.518644
 Sum of Mulliken charges =  -0.00000   0.00000
 Mulliken charges and spin densities with hydrogens summed into heavy atoms:
               1          2
 Electronic spatial extent (au):  <R**2>=            129.6406
 Charge=             -0.0000 electrons
 Dipole moment (field-independent basis, Debye):
    X=              0.0000    Y=              0.0000    Z=              0.0000  Tot=              0.0000
 Quadrupole moment (field-independent basis, Debye-Ang):
   XX=            -13.8395   YY=            -14.1952   ZZ=            -12.8453
   XY=             -1.8010   XZ=             -0.0000   YZ=             -0.0000
 Traceless Quadrupole moment (field-independent basis, Debye-Ang):
   XX=             -0.2128   YY=             -0.5686   ZZ=              0.7814
   XY=             -1.8010   XZ=             -0.0000   YZ=             -0.0000
 Octapole moment (field-independent basis, Debye-Ang**2):
  XXX=             -0.0000  YYY=              0.0000  ZZZ=             -0.0000  XYY=             -0.0000
  XXY=             -0.0000  XXZ=             -0.0000  XZZ=             -0.0000  YZZ=              0.0000
  YYZ=             -0.0000  XYZ=             -0.0000
 Hexadecapole moment (field-independent basis, Debye-Ang**3):
 XXXX=           -201.2458 YYYY=            -69.0430 ZZZZ=            -15.4476 XXXY=             28.6575
 XXXZ=              0.0000 YYYX=             30.3565 YYYZ=             -0.0000 ZZZX=              0.0000
 ZZZY=             -0.0000 XXYY=            -41.6042 XXZZ=            -34.1694 YYZZ=            -14.0083
 XXYZ=             -0.0000 YYXZ=              0.0000 ZZXY=             10.3464
 N-N= 1.349000930668D+01 E-N=-3.620909494947D+01  KE= 5.270148018182D+00
 Symmetry AG   KE= 2.341596655562D+00
 Symmetry BG   KE= 0.000000000000D+00
 Symmetry AU   KE= 0.000000000000D+00
 Symmetry BU   KE= 2.928551362620D+00
                          Isotropic Fermi Contact Couplings
        Atom                 a.u.       MegaHertz       Gauss      10(-4) cm-1
     1  H(1)               0.19918     445.15123     158.84102     148.48647
     2  H(1)              -0.20508    -458.35133    -163.55115    -152.88955
     3  H(1)              -0.20745    -463.64160    -165.43885    -154.65419
     4  H(1)               0.20916     467.46353     166.80261     155.92905
     5  H(1)               0.11451     255.91926      91.31835      85.36548
     6  H(1)              -0.11451    -255.91926     -91.31835     -85.36548
     7  H(1)              -0.20916    -467.46353    -166.80261    -155.92905
     8  H(1)               0.20745     463.64160     165.43885     154.65419
     9  H(1)               0.20508     458.35133     163.55115     152.88955
    10  H(1)              -0.19918    -445.15123    -158.84102    -148.48647
 --------------------------------------------------------
       Center         ----  Spin Dipole Couplings  ----
                      3XX-RR        3YY-RR        3ZZ-RR
 --------------------------------------------------------
     1   Atom       -0.012934     -0.048975      0.061909
     2   Atom        0.012517      0.049397     -0.061914
     3   Atom        0.054870      0.023951     -0.078820
     4   Atom       -0.022908     -0.046943      0.069851
     5   Atom       -0.064249      0.002249      0.062000
     6   Atom        0.064249     -0.002249     -0.062000
     7   Atom        0.022908      0.046943     -0.069851
     8   Atom       -0.054870     -0.023951      0.078820
     9   Atom       -0.012517     -0.049397      0.061914
    10   Atom        0.012934      0.048975     -0.061909
 --------------------------------------------------------
                        XY            XZ            YZ
 --------------------------------------------------------
     1   Atom        0.067934      0.000000     -0.000000
     2   Atom       -0.001193      0.000000      0.000000
     3   Atom       -0.044792     -0.000000      0.000000
     4   Atom        0.071264     -0.000000     -0.000000
     5   Atom        0.076178      0.000000     -0.000000
     6   Atom       -0.076178      0.000000      0.000000
     7   Atom       -0.071264     -0.000000      0.000000
     8   Atom        0.044792      0.000000     -0.000000
     9   Atom        0.001193      0.000000     -0.000000
    10   Atom       -0.067934     -0.000000      0.000000
 --------------------------------------------------------


 ---------------------------------------------------------------------------------
              Anisotropic Spin Dipole Couplings in Principal Axis System
 ---------------------------------------------------------------------------------

       Atom             a.u.   MegaHertz   Gauss  10(-4) cm-1        Axes

              Baa    -0.1012   -54.016   -19.274   -18.018 -0.6098  0.7926  0.0000
     1 H(1)   Bbb     0.0393    20.984     7.488     7.000  0.7926  0.6098  0.0000
              Bcc     0.0619    33.032    11.787    11.018  0.0000  0.0000  1.0000
 
              Baa    -0.0619   -33.034   -11.788   -11.019  0.0000  0.0000  1.0000
     2 H(1)   Bbb     0.0125     6.658     2.376     2.221  0.9995  0.0323  0.0000
              Bcc     0.0494    26.377     9.412     8.798 -0.0323  0.9995  0.0000
 
              Baa    -0.0788   -42.055   -15.006   -14.028  0.0000  0.0000  1.0000
     3 H(1)   Bbb    -0.0080    -4.255    -1.518    -1.419  0.5804  0.8143  0.0000
              Bcc     0.0868    46.310    16.524    15.447  0.8143 -0.5804  0.0000
 
              Baa    -0.1072   -57.194   -20.408   -19.078 -0.6456  0.7636  0.0000
     4 H(1)   Bbb     0.0373    19.925     7.110     6.646  0.7636  0.6456 -0.0000
              Bcc     0.0699    37.269    13.299    12.432  0.0000  0.0000  1.0000
 
              Baa    -0.1141   -60.888   -21.726   -20.310  0.8367 -0.5477  0.0000
     5 H(1)   Bbb     0.0521    27.808     9.923     9.276  0.5477  0.8367  0.0000
              Bcc     0.0620    33.080    11.804    11.034  0.0000  0.0000  1.0000
 
              Baa    -0.0620   -33.080   -11.804   -11.034  0.0000  0.0000  1.0000
     6 H(1)   Bbb    -0.0521   -27.808    -9.923    -9.276  0.5477  0.8367 -0.0000
              Bcc     0.1141    60.888    21.726    20.310  0.8367 -0.5477  0.0000
 
              Baa    -0.0699   -37.269   -13.299   -12.432  0.0000  0.0000  1.0000
     7 H(1)   Bbb    -0.0373   -19.925    -7.110    -6.646  0.7636  0.6456  0.0000
              Bcc     0.1072    57.194    20.408    19.078 -0.6456  0.7636  0.0000
 
              Baa    -0.0868   -46.310   -16.524   -15.447  0.8143 -0.5804  0.0000
     8 H(1)   Bbb     0.0080     4.255     1.518     1.419  0.5804  0.8143  0.0000
              Bcc     0.0788    42.055    15.006    14.028  0.0000  0.0000  1.0000
 
              Baa    -0.0494   -26.377    -9.412    -8.798 -0.0323  0.9995  0.0000
     9 H(1)   Bbb    -0.0125    -6.658    -2.376    -2.221  0.9995  0.0323  0.0000
              Bcc     0.0619    33.034    11.788    11.019  0.0000  0.0000  1.0000
 
              Baa    -0.0619   -33.032   -11.787   -11.018  0.0000  0.0000  1.0000
    10 H(1)   Bbb    -0.0393   -20.984    -7.488    -7.000  0.7926  0.6098  0.0000
              Bcc     0.1012    54.016    19.274    18.018 -0.6098  0.7926  0.0000
 

 ---------------------------------------------------------------------------------

 No NMR shielding tensors so no spin-rotation constants.
 Leave Link  601 at Fri Feb 24 16:29:13 2017, MaxMem=   134217728 cpu:         0.1
 (Enter /projects/guscus/apps/gau/g09-e1/g09/l9999.exe)

 Test job not archived.
 1\1\GINC-SULU\Stability\UHF\Gen\H10\LCJ1\24-Feb-2017\0\\#p uhf/gen scf
 (tight,novaracc,noincfock,fulldiag ) stable=opt guess=(read) geom=nocr
 owd test\\hf stability analysis of h10 triangular lattice, y= 0.631100
 06080846870 alpha= 34.600000000000001\\0,1\H\H,1,1.1113973711\H,1,1.11
 13973711,2,110.8\H,2,1.1113973711,1,69.2,3,0.,0\H,3,1.1113973711,1,180
 .,2,0.,0\H,4,1.1113973711,2,180.,1,0.,0\H,5,1.1113973711,3,180.,2,0.,0
 \H,6,1.1113973711,4,180.,1,0.,0\H,7,1.1113973711,5,180.,2,0.,0\H,8,1.1
 113973711,6,180.,1,0.,0\\Version=ES64L-G09RevE.01\HF=-4.9276273\S2=1.3
 27853\S2-1=0.\S2A=2.574722\RMSD=6.617e-09\Dipole=0.,0.,0.\Quadrupole=-
 0.1582253,0.5809342,-0.4227089,0.,-1.3389932,0.\PG=C02H [SGH(H10)]\\@


 LIFE IS A CONTINUAL STRUGGLE AGAINST THE TENDENCY TO PRODUCE ENTROPY.
 Job cpu time:       0 days  0 hours  0 minutes  0.8 seconds.
 File lengths (MBytes):  RWF=     82 Int=      0 D2E=      0 Chk=      2 Scr=      2
 Normal termination of Gaussian 09 at Fri Feb 24 16:29:13 2017.
