 Entering Gaussian System, Link 0=g09
 AtFile(1): H.gbs
            H     0
            S   10   1.00
               1000.000000000000            0.000068713567
                316.227766000000            0.000169141320
                100.000000000000            0.000823394812
                 31.622776600000            0.003425569236
                 10.000000000000            0.013951996000
                  3.162277660000            0.056909313560
                  1.000000000000            0.198286399900
                  0.316227766000            0.496922426700
                  0.100000000000            0.369846276400
                  0.031622776600            0.003752720039
            ****
 Initial command:
 /projects/guscus/apps/gau/g09-e1/g09/l1.exe "/users/lcj1/gaussian/h10/2rows_uhf/ag2bu3/singlet/follow20/test/Gau-29457.inp" -scrdir="/users/lcj1/gaussian/h10/2rows_uhf/ag2bu3/singlet/follow20/test/"
 Entering Link 1 = /projects/guscus/apps/gau/g09-e1/g09/l1.exe PID=     29458.
  
 Copyright (c) 1988,1990,1992,1993,1995,1998,2003,2009,2015,
            Gaussian, Inc.  All Rights Reserved.
  
 This is part of the Gaussian(R) 09 program.  It is based on
 the Gaussian(R) 03 system (copyright 2003, Gaussian, Inc.),
 the Gaussian(R) 98 system (copyright 1998, Gaussian, Inc.),
 the Gaussian(R) 94 system (copyright 1995, Gaussian, Inc.),
 the Gaussian 92(TM) system (copyright 1992, Gaussian, Inc.),
 the Gaussian 90(TM) system (copyright 1990, Gaussian, Inc.),
 the Gaussian 88(TM) system (copyright 1988, Gaussian, Inc.),
 the Gaussian 86(TM) system (copyright 1986, Carnegie Mellon
 University), and the Gaussian 82(TM) system (copyright 1983,
 Carnegie Mellon University). Gaussian is a federally registered
 trademark of Gaussian, Inc.
  
 This software contains proprietary and confidential information,
 including trade secrets, belonging to Gaussian, Inc.
  
 This software is provided under written license and may be
 used, copied, transmitted, or stored only in accord with that
 written license.
  
 The following legend is applicable only to US Government
 contracts under FAR:
  
                    RESTRICTED RIGHTS LEGEND
  
 Use, reproduction and disclosure by the US Government is
 subject to restrictions as set forth in subparagraphs (a)
 and (c) of the Commercial Computer Software - Restricted
 Rights clause in FAR 52.227-19.
  
 Gaussian, Inc.
 340 Quinnipiac St., Bldg. 40, Wallingford CT 06492
  
  
 ---------------------------------------------------------------
 Warning -- This program may not be used in any manner that
 competes with the business of Gaussian, Inc. or will provide
 assistance to any competitor of Gaussian, Inc.  The licensee
 of this program is prohibited from giving any competitor of
 Gaussian, Inc. access to this program.  By using this program,
 the user acknowledges that Gaussian, Inc. is engaged in the
 business of creating and licensing software in the field of
 computational chemistry and represents and warrants to the
 licensee that it is not a competitor of Gaussian, Inc. and that
 it will not use this program in any manner prohibited above.
 ---------------------------------------------------------------
  

 Cite this work as:
 Gaussian 09, Revision E.01,
 M. J. Frisch, G. W. Trucks, H. B. Schlegel, G. E. Scuseria, 
 M. A. Robb, J. R. Cheeseman, G. Scalmani, V. Barone, B. Mennucci, 
 G. A. Petersson, H. Nakatsuji, M. Caricato, X. Li, H. P. Hratchian, 
 A. F. Izmaylov, J. Bloino, G. Zheng, J. L. Sonnenberg, M. Hada, 
 M. Ehara, K. Toyota, R. Fukuda, J. Hasegawa, M. Ishida, T. Nakajima, 
 Y. Honda, O. Kitao, H. Nakai, T. Vreven, J. A. Montgomery, Jr., 
 J. E. Peralta, F. Ogliaro, M. Bearpark, J. J. Heyd, E. Brothers, 
 K. N. Kudin, V. N. Staroverov, T. Keith, R. Kobayashi, J. Normand, 
 K. Raghavachari, A. Rendell, J. C. Burant, S. S. Iyengar, J. Tomasi, 
 M. Cossi, N. Rega, J. M. Millam, M. Klene, J. E. Knox, J. B. Cross, 
 V. Bakken, C. Adamo, J. Jaramillo, R. Gomperts, R. E. Stratmann, 
 O. Yazyev, A. J. Austin, R. Cammi, C. Pomelli, J. W. Ochterski, 
 R. L. Martin, K. Morokuma, V. G. Zakrzewski, G. A. Voth, 
 P. Salvador, J. J. Dannenberg, S. Dapprich, A. D. Daniels, 
 O. Farkas, J. B. Foresman, J. V. Ortiz, J. Cioslowski, 
 and D. J. Fox, Gaussian, Inc., Wallingford CT, 2013.
 
 ******************************************
 Gaussian 09:  ES64L-G09RevE.01 30-Nov-2015
                24-Feb-2017 
 ******************************************
 %chk=h10.chk
 ----------------------------------------------------------------------
 #p uhf/gen scf(tight,novaracc,noincfock,fulldiag ) stable=opt guess=(r
 ead) geom=nocrowd test
 ----------------------------------------------------------------------
 1/38=1/1;
 2/12=1,17=6,18=5,40=1/2;
 3/5=7,11=2,16=1,25=1,30=1,116=2/1,2,3;
 4/5=1/1;
 5/5=100002,16=1,32=2,38=6/2;
 6/7=2,8=2,9=2,10=2,28=1/1;
 8/6=1,10=90,11=11/1;
 9/8=-3,42=1,46=1/14;
 5/5=100002,8=3,16=1,17=40,32=2,38=6/8(-2);
 6/7=2,8=2,9=2,10=2,28=1/1;
 99/5=1,9=1/99;
 Leave Link    1 at Fri Feb 24 16:27:00 2017, MaxMem=           0 cpu:         0.0
 (Enter /projects/guscus/apps/gau/g09-e1/g09/l101.exe)
 ----------------------------------------------------------------------
 hf stability analysis of h10 triangular lattice, y= 0.4926415667038366
 9 alpha= 22.800000000000001
 ----------------------------------------------------------------------
 Symbolic Z-matrix:
 Charge =  0 Multiplicity = 1
 H
 H                    1     1.27128 
 H                    1     1.27128  2     134.4 
 H                    2     1.27128  1     45.6     3     0.       0
 H                    3     1.27128  1     180.     2     0.       0
 H                    4     1.27128  2     180.     1     0.       0
 H                    5     1.27128  3     180.     2     0.       0
 H                    6     1.27128  4     180.     1     0.       0
 H                    7     1.27128  5     180.     2     0.       0
 H                    8     1.27128  6     180.     1     0.       0
 
 NAtoms=     10 NQM=       10 NQMF=       0 NMMI=      0 NMMIF=      0
                NMic=       0 NMicF=      0.
                    Isotopes and Nuclear Properties:
 (Nuclear quadrupole moments (NQMom) in fm**2, nuclear magnetic moments (NMagM)
  in nuclear magnetons)

  Atom         1           2           3           4           5           6           7           8           9          10
 IAtWgt=           1           1           1           1           1           1           1           1           1           1
 AtmWgt=   1.0078250   1.0078250   1.0078250   1.0078250   1.0078250   1.0078250   1.0078250   1.0078250   1.0078250   1.0078250
 NucSpn=           1           1           1           1           1           1           1           1           1           1
 AtZEff=   0.0000000   0.0000000   0.0000000   0.0000000   0.0000000   0.0000000   0.0000000   0.0000000   0.0000000   0.0000000
 NQMom=    0.0000000   0.0000000   0.0000000   0.0000000   0.0000000   0.0000000   0.0000000   0.0000000   0.0000000   0.0000000
 NMagM=    2.7928460   2.7928460   2.7928460   2.7928460   2.7928460   2.7928460   2.7928460   2.7928460   2.7928460   2.7928460
 AtZNuc=   1.0000000   1.0000000   1.0000000   1.0000000   1.0000000   1.0000000   1.0000000   1.0000000   1.0000000   1.0000000
 Leave Link  101 at Fri Feb 24 16:27:00 2017, MaxMem=   134217728 cpu:         0.0
 (Enter /projects/guscus/apps/gau/g09-e1/g09/l202.exe)
                          Input orientation:                          
 ---------------------------------------------------------------------
 Center     Atomic      Atomic             Coordinates (Angstroms)
 Number     Number       Type             X           Y           Z
 ---------------------------------------------------------------------
      1          1           0        0.000000    0.000000    0.000000
      2          1           0        0.000000    0.000000    1.271282
      3          1           0        0.908296    0.000000   -0.889469
      4          1           0        0.908296    0.000000    0.381813
      5          1           0        1.816592    0.000000   -1.778939
      6          1           0        1.816592    0.000000   -0.507657
      7          1           0        2.724889    0.000000   -2.668408
      8          1           0        2.724889    0.000000   -1.397126
      9          1           0        3.633185    0.000000   -3.557877
     10          1           0        3.633185    0.000000   -2.286595
 ---------------------------------------------------------------------
                    Distance matrix (angstroms):
                    1          2          3          4          5
     1  H    0.000000
     2  H    1.271282   0.000000
     3  H    1.271282   2.343896   0.000000
     4  H    0.985283   1.271282   1.271282   0.000000
     5  H    2.542564   3.550191   1.271282   2.343896   0.000000
     6  H    1.886193   2.542564   0.985283   1.271282   1.271282
     7  H    3.813846   4.790217   2.542564   3.550191   1.271282
     8  H    3.062185   3.813846   1.886193   2.542564   0.985283
     9  H    5.085128   6.043245   3.813846   4.790217   2.542564
    10  H    4.292849   5.085128   3.062185   3.813846   1.886193
                    6          7          8          9         10
     6  H    0.000000
     7  H    2.343896   0.000000
     8  H    1.271282   1.271282   0.000000
     9  H    3.550191   1.271282   2.343896   0.000000
    10  H    2.542564   0.985283   1.271282   1.271282   0.000000
 Stoichiometry    H10
 Framework group  C2H[SGH(H10)]
 Deg. of freedom     9
 Full point group                 C2H     NOp   4
 Largest Abelian subgroup         C2H     NOp   4
 Largest concise Abelian subgroup C2      NOp   2
                         Standard orientation:                         
 ---------------------------------------------------------------------
 Center     Atomic      Atomic             Coordinates (Angstroms)
 Number     Number       Type             X           Y           Z
 ---------------------------------------------------------------------
      1          1           0        1.816592   -1.143298    0.000000
      2          1           0        1.816592   -2.414580    0.000000
      3          1           0        0.908296   -0.253828    0.000000
      4          1           0        0.908296   -1.525110    0.000000
      5          1           0        0.000000    0.635641   -0.000000
      6          1           0       -0.000000   -0.635641   -0.000000
      7          1           0       -0.908296    1.525110    0.000000
      8          1           0       -0.908296    0.253828    0.000000
      9          1           0       -1.816592    2.414580    0.000000
     10          1           0       -1.816592    1.143298    0.000000
 ---------------------------------------------------------------------
 Rotational constants (GHZ):    258.9545974     14.5657133     13.7900488
 Leave Link  202 at Fri Feb 24 16:27:00 2017, MaxMem=   134217728 cpu:         0.0
 (Enter /projects/guscus/apps/gau/g09-e1/g09/l301.exe)
 General basis read from cards:  (5D, 7F)
 Centers:       1      2      3      4      5      6      7      8      9     10
 S 10 1.00
     Exponent=  1.0000000000D+03 Coefficients=  6.8713567000D-05
     Exponent=  3.1622776600D+02 Coefficients=  1.6914132000D-04
     Exponent=  1.0000000000D+02 Coefficients=  8.2339481200D-04
     Exponent=  3.1622776600D+01 Coefficients=  3.4255692360D-03
     Exponent=  1.0000000000D+01 Coefficients=  1.3951996000D-02
     Exponent=  3.1622776600D+00 Coefficients=  5.6909313560D-02
     Exponent=  1.0000000000D+00 Coefficients=  1.9828639990D-01
     Exponent=  3.1622776600D-01 Coefficients=  4.9692242670D-01
     Exponent=  1.0000000000D-01 Coefficients=  3.6984627640D-01
     Exponent=  3.1622776600D-02 Coefficients=  3.7527200390D-03
 ****
 Ernie: Thresh=  0.10000D-02 Tol=  0.10000D-05 Strict=F.
 There are     5 symmetry adapted cartesian basis functions of AG  symmetry.
 There are     0 symmetry adapted cartesian basis functions of BG  symmetry.
 There are     0 symmetry adapted cartesian basis functions of AU  symmetry.
 There are     5 symmetry adapted cartesian basis functions of BU  symmetry.
 There are     5 symmetry adapted basis functions of AG  symmetry.
 There are     0 symmetry adapted basis functions of BG  symmetry.
 There are     0 symmetry adapted basis functions of AU  symmetry.
 There are     5 symmetry adapted basis functions of BU  symmetry.
    10 basis functions,   100 primitive gaussians,    10 cartesian basis functions
     5 alpha electrons        5 beta electrons
       nuclear repulsion energy        12.5408324278 Hartrees.
 IExCor=    0 DFT=F Ex=HF Corr=None ExCW=0 ScaHFX=  1.000000
 ScaDFX=  1.000000  1.000000  1.000000  1.000000 ScalE2=  1.000000  1.000000
 IRadAn=      0 IRanWt=     -1 IRanGd=            0 ICorTp=0 IEmpDi=  4
 NAtoms=   10 NActive=   10 NUniq=    5 SFac= 4.00D+00 NAtFMM=   60 NAOKFM=F Big=F
 Integral buffers will be    131072 words long.
 Raffenetti 2 integral format.
 Two-electron integral symmetry is turned on.
 Leave Link  301 at Fri Feb 24 16:27:00 2017, MaxMem=   134217728 cpu:         0.0
 (Enter /projects/guscus/apps/gau/g09-e1/g09/l302.exe)
 NPDir=0 NMtPBC=     1 NCelOv=     1 NCel=       1 NClECP=     1 NCelD=      1
         NCelK=      1 NCelE2=     1 NClLst=     1 CellRange=     0.0.
 One-electron integrals computed using PRISM.
 One-electron integral symmetry used in STVInt
 NBasis=    10 RedAO= T EigKep=  1.90D-01  NBF=     5     0     0     5
 NBsUse=    10 1.00D-06 EigRej= -1.00D+00 NBFU=     5     0     0     5
 Leave Link  302 at Fri Feb 24 16:27:01 2017, MaxMem=   134217728 cpu:         0.0
 (Enter /projects/guscus/apps/gau/g09-e1/g09/l303.exe)
 DipDrv:  MaxL=1.
 Leave Link  303 at Fri Feb 24 16:27:01 2017, MaxMem=   134217728 cpu:         0.0
 (Enter /projects/guscus/apps/gau/g09-e1/g09/l401.exe)
 Initial guess from the checkpoint file:  "h10.chk"
 B after Tr=     0.000000   -0.000000    0.000000
         Rot=    0.999995   -0.000000    0.000000   -0.003103 Ang=  -0.36 deg.
 Guess basis will be translated and rotated to current coordinates.
 JPrj=2 DoOrth=T DoCkMO=T.
 Initial guess orbital symmetries:
 Alpha Orbitals:
       Occupied  (BG) (BG) (BG) (BG) (BG)
       Virtual   (BG) (BG) (BG) (BG) (BG)
 Beta  Orbitals:
       Occupied  (BG) (BG) (BG) (BG) (BG)
       Virtual   (BG) (BG) (BG) (BG) (BG)
 Initial guess <Sx>= 0.0000 <Sy>= 0.0000 <Sz>= 0.0000 <S**2>= 1.5591 S= 0.8450
 Leave Link  401 at Fri Feb 24 16:27:01 2017, MaxMem=   134217728 cpu:         0.1
 (Enter /projects/guscus/apps/gau/g09-e1/g09/l502.exe)
 UHF open shell SCF:
 Using DIIS extrapolation, IDIIS=  1040.
 Integral symmetry usage will be decided dynamically.
 Keep R1 and R2 ints in memory in symmetry-blocked form, NReq=878179.
 IVT=       20217 IEndB=       20217 NGot=   134217728 MDV=   134195632
 LenX=   134195632 LenY=   134194750
 Requested convergence on RMS density matrix=1.00D-08 within 128 cycles.
 Requested convergence on MAX density matrix=1.00D-06.
 Requested convergence on             energy=1.00D-06.
 No special actions if energy rises.
 FoFCou: FMM=F IPFlag=           0 FMFlag=           0 FMFlg1=           0
         NFxFlg=           0 DoJE=F BraDBF=F KetDBF=F FulRan=T
         wScrn=  0.000000 ICntrl=     600 IOpCl=  0 I1Cent=           0 NGrid=           0
         NMat0=    1 NMatS0=     55 NMatT0=    0 NMatD0=    1 NMtDS0=    0 NMtDT0=    0
 Petite list used in FoFCou.
 An orbital has undefined symmetry, so N**3 symmetry is turned off.

 Cycle   1  Pass 1  IDiag  1:
 Density matrix breaks symmetry, PCut= 1.00D-04
 Density matrix has no symmetry -- integrals replicated.
 E= -4.82793619034555    
 DIIS: error= 9.99D-04 at cycle   1 NSaved=   1.
 NSaved= 1 IEnMin= 1 EnMin= -4.82793619034555     IErMin= 1 ErrMin= 9.99D-04
 ErrMax= 9.99D-04  0.00D+00 EMaxC= 1.00D-01 BMatC= 5.14D-05 BMatP= 5.14D-05
 IDIUse=3 WtCom= 9.90D-01 WtEn= 9.99D-03
 Coeff-Com:  0.100D+01
 Coeff-En:   0.100D+01
 Coeff:      0.100D+01
 Gap=     0.385 Goal=   None    Shift=    0.000
 Gap=     0.368 Goal=   None    Shift=    0.000
 RMSDP=2.19D-03 MaxDP=5.35D-03              OVMax= 0.00D+00

 Cycle   2  Pass 1  IDiag  1:
 Density matrix breaks symmetry, PCut= 1.00D-07
 Density matrix has no symmetry -- integrals replicated.
 E= -4.82801560159285     Delta-E=       -0.000079411247 Rises=F Damp=F
 DIIS: error= 7.65D-04 at cycle   2 NSaved=   2.
 NSaved= 2 IEnMin= 2 EnMin= -4.82801560159285     IErMin= 2 ErrMin= 7.65D-04
 ErrMax= 7.65D-04  0.00D+00 EMaxC= 1.00D-01 BMatC= 2.54D-05 BMatP= 5.14D-05
 IDIUse=3 WtCom= 9.92D-01 WtEn= 7.65D-03
 Coeff-Com: -0.897D+00 0.190D+01
 Coeff-En:   0.000D+00 0.100D+01
 Coeff:     -0.890D+00 0.189D+01
 Gap=     0.384 Goal=   None    Shift=    0.000
 Gap=     0.368 Goal=   None    Shift=    0.000
 RMSDP=3.09D-03 MaxDP=8.08D-03 DE=-7.94D-05 OVMax= 0.00D+00

 Cycle   3  Pass 1  IDiag  1:
 Density matrix breaks symmetry, PCut= 1.00D-07
 Density matrix has no symmetry -- integrals replicated.
 E= -4.82809241839394     Delta-E=       -0.000076816801 Rises=F Damp=F
 DIIS: error= 5.06D-04 at cycle   3 NSaved=   3.
 NSaved= 3 IEnMin= 3 EnMin= -4.82809241839394     IErMin= 3 ErrMin= 5.06D-04
 ErrMax= 5.06D-04  0.00D+00 EMaxC= 1.00D-01 BMatC= 1.35D-05 BMatP= 2.54D-05
 IDIUse=3 WtCom= 9.95D-01 WtEn= 5.06D-03
 Coeff-Com:  0.155D+01-0.366D+01 0.310D+01
 Coeff-En:   0.000D+00 0.000D+00 0.100D+01
 Coeff:      0.154D+01-0.364D+01 0.309D+01
 Gap=     0.382 Goal=   None    Shift=    0.000
 Gap=     0.366 Goal=   None    Shift=    0.000
 RMSDP=3.92D-03 MaxDP=1.11D-02 DE=-7.68D-05 OVMax= 0.00D+00

 Cycle   4  Pass 1  IDiag  1:
 Density matrix breaks symmetry, PCut= 1.00D-07
 Density matrix has no symmetry -- integrals replicated.
 E= -4.82816412808420     Delta-E=       -0.000071709690 Rises=F Damp=F
 DIIS: error= 3.38D-04 at cycle   4 NSaved=   4.
 NSaved= 4 IEnMin= 4 EnMin= -4.82816412808420     IErMin= 4 ErrMin= 3.38D-04
 ErrMax= 3.38D-04  0.00D+00 EMaxC= 1.00D-01 BMatC= 6.70D-06 BMatP= 1.35D-05
 IDIUse=3 WtCom= 9.97D-01 WtEn= 3.38D-03
 Coeff-Com: -0.167D+01 0.424D+01-0.484D+01 0.328D+01
 Coeff-En:   0.000D+00 0.000D+00 0.000D+00 0.100D+01
 Coeff:     -0.167D+01 0.422D+01-0.483D+01 0.327D+01
 Gap=     0.380 Goal=   None    Shift=    0.000
 Gap=     0.365 Goal=   None    Shift=    0.000
 RMSDP=4.97D-03 MaxDP=1.48D-02 DE=-7.17D-05 OVMax= 0.00D+00

 Cycle   5  Pass 1  IDiag  1:
 Density matrix breaks symmetry, PCut= 1.00D-07
 Density matrix has no symmetry -- integrals replicated.
 E= -4.82822288458121     Delta-E=       -0.000058756497 Rises=F Damp=F
 DIIS: error= 2.14D-04 at cycle   5 NSaved=   5.
 NSaved= 5 IEnMin= 5 EnMin= -4.82822288458121     IErMin= 5 ErrMin= 2.14D-04
 ErrMax= 2.14D-04  0.00D+00 EMaxC= 1.00D-01 BMatC= 2.21D-06 BMatP= 6.70D-06
 IDIUse=3 WtCom= 9.98D-01 WtEn= 2.14D-03
 Coeff-Com:  0.605D+00-0.159D+01 0.217D+01-0.231D+01 0.212D+01
 Coeff-En:   0.000D+00 0.000D+00 0.000D+00 0.000D+00 0.100D+01
 Coeff:      0.604D+00-0.158D+01 0.216D+01-0.230D+01 0.212D+01
 Gap=     0.379 Goal=   None    Shift=    0.000
 Gap=     0.364 Goal=   None    Shift=    0.000
 RMSDP=2.97D-03 MaxDP=9.32D-03 DE=-5.88D-05 OVMax= 0.00D+00

 Cycle   6  Pass 1  IDiag  1:
 Density matrix breaks symmetry, PCut= 1.00D-07
 Density matrix has no symmetry -- integrals replicated.
 E= -4.82824300772881     Delta-E=       -0.000020123148 Rises=F Damp=F
 DIIS: error= 1.34D-04 at cycle   6 NSaved=   6.
 NSaved= 6 IEnMin= 6 EnMin= -4.82824300772881     IErMin= 6 ErrMin= 1.34D-04
 ErrMax= 1.34D-04  0.00D+00 EMaxC= 1.00D-01 BMatC= 9.62D-07 BMatP= 2.21D-06
 IDIUse=3 WtCom= 9.99D-01 WtEn= 1.34D-03
 Coeff-Com: -0.329D-01 0.152D+00-0.612D+00 0.135D+01-0.248D+01 0.262D+01
 Coeff-En:   0.000D+00 0.000D+00 0.000D+00 0.000D+00 0.000D+00 0.100D+01
 Coeff:     -0.329D-01 0.152D+00-0.611D+00 0.135D+01-0.248D+01 0.262D+01
 Gap=     0.378 Goal=   None    Shift=    0.000
 Gap=     0.363 Goal=   None    Shift=    0.000
 RMSDP=2.34D-03 MaxDP=8.06D-03 DE=-2.01D-05 OVMax= 0.00D+00

 Cycle   7  Pass 1  IDiag  1:
 Density matrix breaks symmetry, PCut= 1.00D-07
 Density matrix has no symmetry -- integrals replicated.
 E= -4.82825237318354     Delta-E=       -0.000009365455 Rises=F Damp=F
 DIIS: error= 7.15D-05 at cycle   7 NSaved=   7.
 NSaved= 7 IEnMin= 7 EnMin= -4.82825237318354     IErMin= 7 ErrMin= 7.15D-05
 ErrMax= 7.15D-05  0.00D+00 EMaxC= 1.00D-01 BMatC= 3.17D-07 BMatP= 9.62D-07
 IDIUse=1 WtCom= 1.00D+00 WtEn= 0.00D+00
 Coeff-Com: -0.302D+00 0.722D+00-0.442D+00-0.513D+00 0.208D+01-0.327D+01
 Coeff-Com:  0.273D+01
 Coeff:     -0.302D+00 0.722D+00-0.442D+00-0.513D+00 0.208D+01-0.327D+01
 Coeff:      0.273D+01
 Gap=     0.377 Goal=   None    Shift=    0.000
 Gap=     0.362 Goal=   None    Shift=    0.000
 RMSDP=1.65D-03 MaxDP=5.81D-03 DE=-9.37D-06 OVMax= 0.00D+00

 Cycle   8  Pass 1  IDiag  1:
 Density matrix breaks symmetry, PCut= 1.00D-07
 Density matrix has no symmetry -- integrals replicated.
 E= -4.82825542424375     Delta-E=       -0.000003051060 Rises=F Damp=F
 DIIS: error= 2.73D-05 at cycle   8 NSaved=   8.
 NSaved= 8 IEnMin= 8 EnMin= -4.82825542424375     IErMin= 8 ErrMin= 2.73D-05
 ErrMax= 2.73D-05  0.00D+00 EMaxC= 1.00D-01 BMatC= 4.24D-08 BMatP= 3.17D-07
 IDIUse=1 WtCom= 1.00D+00 WtEn= 0.00D+00
 Coeff-Com:  0.154D+00-0.377D+00 0.315D+00-0.149D-01-0.517D+00 0.110D+01
 Coeff-Com: -0.139D+01 0.173D+01
 Coeff:      0.154D+00-0.377D+00 0.315D+00-0.149D-01-0.517D+00 0.110D+01
 Coeff:     -0.139D+01 0.173D+01
 Gap=     0.377 Goal=   None    Shift=    0.000
 Gap=     0.362 Goal=   None    Shift=    0.000
 RMSDP=5.71D-04 MaxDP=1.92D-03 DE=-3.05D-06 OVMax= 0.00D+00

 Cycle   9  Pass 1  IDiag  1:
 Density matrix breaks symmetry, PCut= 1.00D-07
 Density matrix has no symmetry -- integrals replicated.
 E= -4.82825573234286     Delta-E=       -0.000000308099 Rises=F Damp=F
 DIIS: error= 1.24D-05 at cycle   9 NSaved=   9.
 NSaved= 9 IEnMin= 9 EnMin= -4.82825573234286     IErMin= 9 ErrMin= 1.24D-05
 ErrMax= 1.24D-05  0.00D+00 EMaxC= 1.00D-01 BMatC= 7.97D-09 BMatP= 4.24D-08
 IDIUse=1 WtCom= 1.00D+00 WtEn= 0.00D+00
 Coeff-Com: -0.391D-01 0.997D-01-0.951D-01 0.467D-01 0.328D-01-0.165D+00
 Coeff-Com:  0.347D+00-0.943D+00 0.172D+01
 Coeff:     -0.391D-01 0.997D-01-0.951D-01 0.467D-01 0.328D-01-0.165D+00
 Coeff:      0.347D+00-0.943D+00 0.172D+01
 Gap=     0.377 Goal=   None    Shift=    0.000
 Gap=     0.362 Goal=   None    Shift=    0.000
 RMSDP=1.69D-04 MaxDP=5.81D-04 DE=-3.08D-07 OVMax= 0.00D+00

 Cycle  10  Pass 1  IDiag  1:
 Density matrix breaks symmetry, PCut= 1.00D-07
 Density matrix has no symmetry -- integrals replicated.
 E= -4.82825576464873     Delta-E=       -0.000000032306 Rises=F Damp=F
 DIIS: error= 6.68D-06 at cycle  10 NSaved=  10.
 NSaved=10 IEnMin=10 EnMin= -4.82825576464873     IErMin=10 ErrMin= 6.68D-06
 ErrMax= 6.68D-06  0.00D+00 EMaxC= 1.00D-01 BMatC= 2.10D-09 BMatP= 7.97D-09
 IDIUse=1 WtCom= 1.00D+00 WtEn= 0.00D+00
 Coeff-Com: -0.142D-02-0.277D-03 0.207D-01-0.733D-01 0.179D+00-0.207D+00
 Coeff-Com:  0.500D-01 0.522D+00-0.177D+01 0.228D+01
 Coeff:     -0.142D-02-0.277D-03 0.207D-01-0.733D-01 0.179D+00-0.207D+00
 Coeff:      0.500D-01 0.522D+00-0.177D+01 0.228D+01
 Gap=     0.377 Goal=   None    Shift=    0.000
 Gap=     0.362 Goal=   None    Shift=    0.000
 RMSDP=4.65D-05 MaxDP=2.14D-04 DE=-3.23D-08 OVMax= 0.00D+00

 Cycle  11  Pass 1  IDiag  1:
 Density matrix breaks symmetry, PCut= 1.00D-07
 Density matrix has no symmetry -- integrals replicated.
 E= -4.82825577258910     Delta-E=       -0.000000007940 Rises=F Damp=F
 DIIS: error= 1.98D-06 at cycle  11 NSaved=  11.
 NSaved=11 IEnMin=11 EnMin= -4.82825577258910     IErMin=11 ErrMin= 1.98D-06
 ErrMax= 1.98D-06  0.00D+00 EMaxC= 1.00D-01 BMatC= 2.40D-10 BMatP= 2.10D-09
 IDIUse=1 WtCom= 1.00D+00 WtEn= 0.00D+00
 Coeff-Com:  0.833D-02-0.187D-01 0.766D-02 0.289D-01-0.997D-01 0.134D+00
 Coeff-Com: -0.705D-01-0.190D+00 0.850D+00-0.149D+01 0.184D+01
 Coeff:      0.833D-02-0.187D-01 0.766D-02 0.289D-01-0.997D-01 0.134D+00
 Coeff:     -0.705D-01-0.190D+00 0.850D+00-0.149D+01 0.184D+01
 Gap=     0.377 Goal=   None    Shift=    0.000
 Gap=     0.362 Goal=   None    Shift=    0.000
 RMSDP=1.63D-05 MaxDP=8.02D-05 DE=-7.94D-09 OVMax= 0.00D+00

 Cycle  12  Pass 1  IDiag  1:
 Density matrix breaks symmetry, PCut= 1.00D-07
 Density matrix has no symmetry -- integrals replicated.
 E= -4.82825577337156     Delta-E=       -0.000000000782 Rises=F Damp=F
 DIIS: error= 4.70D-07 at cycle  12 NSaved=  12.
 NSaved=12 IEnMin=12 EnMin= -4.82825577337156     IErMin=12 ErrMin= 4.70D-07
 ErrMax= 4.70D-07  0.00D+00 EMaxC= 1.00D-01 BMatC= 1.87D-11 BMatP= 2.40D-10
 IDIUse=1 WtCom= 1.00D+00 WtEn= 0.00D+00
 Coeff-Com: -0.674D-02 0.151D-01-0.586D-02-0.240D-01 0.816D-01-0.110D+00
 Coeff-Com:  0.610D-01 0.138D+00-0.637D+00 0.116D+01-0.160D+01 0.193D+01
 Coeff:     -0.674D-02 0.151D-01-0.586D-02-0.240D-01 0.816D-01-0.110D+00
 Coeff:      0.610D-01 0.138D+00-0.637D+00 0.116D+01-0.160D+01 0.193D+01
 Gap=     0.377 Goal=   None    Shift=    0.000
 Gap=     0.362 Goal=   None    Shift=    0.000
 RMSDP=5.63D-06 MaxDP=2.69D-05 DE=-7.82D-10 OVMax= 0.00D+00

 Cycle  13  Pass 1  IDiag  1:
 Density matrix breaks symmetry, PCut= 1.00D-07
 Density matrix has no symmetry -- integrals replicated.
 E= -4.82825577342724     Delta-E=       -0.000000000056 Rises=F Damp=F
 DIIS: error= 1.50D-07 at cycle  13 NSaved=  13.
 NSaved=13 IEnMin=13 EnMin= -4.82825577342724     IErMin=13 ErrMin= 1.50D-07
 ErrMax= 1.50D-07  0.00D+00 EMaxC= 1.00D-01 BMatC= 1.44D-12 BMatP= 1.87D-11
 IDIUse=1 WtCom= 1.00D+00 WtEn= 0.00D+00
 Coeff-Com:  0.315D-02-0.720D-02 0.355D-02 0.846D-02-0.313D-01 0.430D-01
 Coeff-Com: -0.241D-01-0.526D-01 0.244D+00-0.448D+00 0.642D+00-0.985D+00
 Coeff-Com:  0.160D+01
 Coeff:      0.315D-02-0.720D-02 0.355D-02 0.846D-02-0.313D-01 0.430D-01
 Coeff:     -0.241D-01-0.526D-01 0.244D+00-0.448D+00 0.642D+00-0.985D+00
 Coeff:      0.160D+01
 Gap=     0.377 Goal=   None    Shift=    0.000
 Gap=     0.362 Goal=   None    Shift=    0.000
 RMSDP=1.22D-06 MaxDP=5.41D-06 DE=-5.57D-11 OVMax= 0.00D+00

 Cycle  14  Pass 1  IDiag  1:
 Density matrix breaks symmetry, PCut= 1.00D-07
 Density matrix has no symmetry -- integrals replicated.
 E= -4.82825577343092     Delta-E=       -0.000000000004 Rises=F Damp=F
 DIIS: error= 4.02D-08 at cycle  14 NSaved=  14.
 NSaved=14 IEnMin=14 EnMin= -4.82825577343092     IErMin=14 ErrMin= 4.02D-08
 ErrMax= 4.02D-08  0.00D+00 EMaxC= 1.00D-01 BMatC= 1.82D-13 BMatP= 1.44D-12
 IDIUse=1 WtCom= 1.00D+00 WtEn= 0.00D+00
 Coeff-Com: -0.103D-02 0.234D-02-0.112D-02-0.270D-02 0.988D-02-0.135D-01
 Coeff-Com:  0.693D-02 0.183D-01-0.794D-01 0.143D+00-0.207D+00 0.355D+00
 Coeff-Com: -0.829D+00 0.160D+01
 Coeff:     -0.103D-02 0.234D-02-0.112D-02-0.270D-02 0.988D-02-0.135D-01
 Coeff:      0.693D-02 0.183D-01-0.794D-01 0.143D+00-0.207D+00 0.355D+00
 Coeff:     -0.829D+00 0.160D+01
 Gap=     0.377 Goal=   None    Shift=    0.000
 Gap=     0.362 Goal=   None    Shift=    0.000
 RMSDP=2.12D-07 MaxDP=9.99D-07 DE=-3.68D-12 OVMax= 0.00D+00

 Cycle  15  Pass 1  IDiag  1:
 Density matrix breaks symmetry, PCut= 1.00D-07
 Density matrix has no symmetry -- integrals replicated.
 E= -4.82825577343129     Delta-E=       -0.000000000000 Rises=F Damp=F
 DIIS: error= 2.18D-08 at cycle  15 NSaved=  15.
 NSaved=15 IEnMin=15 EnMin= -4.82825577343129     IErMin=15 ErrMin= 2.18D-08
 ErrMax= 2.18D-08  0.00D+00 EMaxC= 1.00D-01 BMatC= 3.79D-14 BMatP= 1.82D-13
 IDIUse=1 WtCom= 1.00D+00 WtEn= 0.00D+00
 Coeff-Com:  0.300D-03-0.700D-03 0.441D-03 0.388D-03-0.181D-02 0.260D-02
 Coeff-Com: -0.104D-02-0.429D-02 0.159D-01-0.266D-01 0.359D-01-0.796D-01
 Coeff-Com:  0.324D+00-0.122D+01 0.195D+01
 Coeff:      0.300D-03-0.700D-03 0.441D-03 0.388D-03-0.181D-02 0.260D-02
 Coeff:     -0.104D-02-0.429D-02 0.159D-01-0.266D-01 0.359D-01-0.796D-01
 Coeff:      0.324D+00-0.122D+01 0.195D+01
 Gap=     0.377 Goal=   None    Shift=    0.000
 Gap=     0.362 Goal=   None    Shift=    0.000
 RMSDP=3.41D-07 MaxDP=1.23D-06 DE=-3.66D-13 OVMax= 0.00D+00

 Cycle  16  Pass 1  IDiag  1:
 Density matrix breaks symmetry, PCut= 1.00D-07
 Density matrix has no symmetry -- integrals replicated.
 E= -4.82825577343143     Delta-E=       -0.000000000000 Rises=F Damp=F
 DIIS: error= 9.42D-09 at cycle  16 NSaved=  16.
 NSaved=16 IEnMin=16 EnMin= -4.82825577343143     IErMin=16 ErrMin= 9.42D-09
 ErrMax= 9.42D-09  0.00D+00 EMaxC= 1.00D-01 BMatC= 3.89D-15 BMatP= 3.79D-14
 IDIUse=1 WtCom= 1.00D+00 WtEn= 0.00D+00
 Large coefficients: NSaved= 16 BigCof=    0.00 CofMax=   10.00 Det=-6.95D-16
 Inversion failed.  Reducing to 15 matrices.
 Coeff-Com:  0.427D-05-0.376D-04 0.173D-03-0.519D-03 0.681D-03-0.672D-03
 Coeff-Com: -0.342D-04 0.270D-02-0.660D-02 0.110D-01-0.312D-02-0.101D+00
 Coeff-Com:  0.612D+00-0.133D+01 0.181D+01
 Coeff:      0.427D-05-0.376D-04 0.173D-03-0.519D-03 0.681D-03-0.672D-03
 Coeff:     -0.342D-04 0.270D-02-0.660D-02 0.110D-01-0.312D-02-0.101D+00
 Coeff:      0.612D+00-0.133D+01 0.181D+01
 Gap=     0.377 Goal=   None    Shift=    0.000
 Gap=     0.362 Goal=   None    Shift=    0.000
 RMSDP=4.35D-08 MaxDP=1.66D-07 DE=-1.39D-13 OVMax= 0.00D+00

 Cycle  17  Pass 1  IDiag  1:
 Density matrix breaks symmetry, PCut= 1.00D-07
 Density matrix has no symmetry -- integrals replicated.
 E= -4.82825577343144     Delta-E=       -0.000000000000 Rises=F Damp=F
 DIIS: error= 2.23D-09 at cycle  17 NSaved=  16.
 NSaved=16 IEnMin=16 EnMin= -4.82825577343144     IErMin=16 ErrMin= 2.23D-09
 ErrMax= 2.23D-09  0.00D+00 EMaxC= 1.00D-01 BMatC= 4.09D-16 BMatP= 3.89D-15
 IDIUse=1 WtCom= 1.00D+00 WtEn= 0.00D+00
 Large coefficients: NSaved= 16 BigCof=    0.00 CofMax=   10.00 Det=-1.58D-16
 Inversion failed.  Reducing to 15 matrices.
 Coeff-Com:  0.902D-05-0.507D-04 0.163D-03-0.215D-03 0.191D-03 0.100D-03
 Coeff-Com: -0.108D-02 0.241D-02-0.389D-02 0.155D-02 0.319D-01-0.196D+00
 Coeff-Com:  0.462D+00-0.932D+00 0.163D+01
 Coeff:      0.902D-05-0.507D-04 0.163D-03-0.215D-03 0.191D-03 0.100D-03
 Coeff:     -0.108D-02 0.241D-02-0.389D-02 0.155D-02 0.319D-01-0.196D+00
 Coeff:      0.462D+00-0.932D+00 0.163D+01
 Gap=     0.377 Goal=   None    Shift=    0.000
 Gap=     0.362 Goal=   None    Shift=    0.000
 RMSDP=2.44D-08 MaxDP=7.44D-08 DE=-1.07D-14 OVMax= 0.00D+00

 Cycle  18  Pass 1  IDiag  1:
 Density matrix breaks symmetry, PCut= 1.00D-07
 Density matrix has no symmetry -- integrals replicated.
 E= -4.82825577343144     Delta-E=       -0.000000000000 Rises=F Damp=F
 DIIS: error= 5.74D-10 at cycle  18 NSaved=  16.
 NSaved=16 IEnMin=16 EnMin= -4.82825577343144     IErMin=16 ErrMin= 5.74D-10
 ErrMax= 5.74D-10  0.00D+00 EMaxC= 1.00D-01 BMatC= 3.04D-17 BMatP= 4.09D-16
 IDIUse=1 WtCom= 1.00D+00 WtEn= 0.00D+00
 Large coefficients: NSaved= 16 BigCof=    0.00 CofMax=   10.00 Det=-2.14D-17
 Inversion failed.  Reducing to 15 matrices.
 Coeff-Com: -0.249D-06 0.175D-06-0.200D-05 0.196D-04-0.737D-04 0.191D-03
 Coeff-Com: -0.252D-03 0.226D-03-0.452D-04-0.699D-03 0.201D-02-0.118D-01
 Coeff-Com:  0.109D+00-0.505D+00 0.141D+01
 Coeff:     -0.249D-06 0.175D-06-0.200D-05 0.196D-04-0.737D-04 0.191D-03
 Coeff:     -0.252D-03 0.226D-03-0.452D-04-0.699D-03 0.201D-02-0.118D-01
 Coeff:      0.109D+00-0.505D+00 0.141D+01
 Gap=     0.377 Goal=   None    Shift=    0.000
 Gap=     0.362 Goal=   None    Shift=    0.000
 RMSDP=8.62D-09 MaxDP=3.13D-08 DE=-3.55D-15 OVMax= 0.00D+00

 Density matrix breaks symmetry, PCut= 1.00D-07
 Density matrix has no symmetry -- integrals replicated.
 SCF Done:  E(UHF) =  -4.82825577343     A.U. after   18 cycles
            NFock= 18  Conv=0.86D-08     -V/T= 1.9035
 <Sx>= 0.0000 <Sy>= 0.0000 <Sz>= 0.0000 <S**2>= 1.4606 S= 0.8079
 <L.S>= 0.000000000000E+00
 KE= 5.344001013334D+00 PE=-3.450139111924D+01 EE= 1.178830190470D+01
 Annihilation of the first spin contaminant:
 S**2 before annihilation     1.4606,   after     3.6097
 Leave Link  502 at Fri Feb 24 16:27:01 2017, MaxMem=   134217728 cpu:         0.1
 (Enter /projects/guscus/apps/gau/g09-e1/g09/l601.exe)
 Copying SCF densities to generalized density rwf, IOpCl= 1 IROHF=0.

 **********************************************************************

            Population analysis using the SCF density.

 **********************************************************************

 Orbital symmetries:
 Alpha Orbitals:
       Occupied  (BG) (BG) (BG) (BG) (BG)
       Virtual   (BG) (BG) (BG) (BG) (BG)
 Beta  Orbitals:
       Occupied  (BG) (BG) (BG) (BG) (BG)
       Virtual   (BG) (BG) (BG) (BG) (BG)
 Unable to determine electronic state:  partially filled degenerate orbitals.
 Alpha  occ. eigenvalues --   -0.81574  -0.72099  -0.58383  -0.37860  -0.29781
 Alpha virt. eigenvalues --    0.07896   0.18914   0.26193   0.40596   0.59344
  Beta  occ. eigenvalues --   -0.82636  -0.72657  -0.56867  -0.39196  -0.27026
  Beta virt. eigenvalues --    0.09191   0.13119   0.27038   0.41615   0.59441
          Condensed to atoms (all electrons):
               1          2          3          4          5          6
     1  H    1.070690  -0.109367   0.109972   0.122247   0.013213  -0.180356
     2  H   -0.109367   1.116103  -0.085131   0.139606   0.001773  -0.007157
     3  H    0.109972  -0.085131   0.964715  -0.067306   0.103971   0.101656
     4  H    0.122247   0.139606  -0.067306   0.624431  -0.056801   0.110870
     5  H    0.013213   0.001773   0.103971  -0.056801   1.062621  -0.212580
     6  H   -0.180356  -0.007157   0.101656   0.110870  -0.212580   1.240972
     7  H    0.004370   0.000187   0.009427  -0.002077   0.225493  -0.089249
     8  H   -0.009277   0.004295  -0.138522   0.002518   0.038258   0.117170
     9  H   -0.000194  -0.000056   0.002640   0.000151  -0.048700   0.008187
    10  H   -0.000001  -0.000087  -0.009411   0.003160  -0.117190   0.012803
               7          8          9         10
     1  H    0.004370  -0.009277  -0.000194  -0.000001
     2  H    0.000187   0.004295  -0.000056  -0.000087
     3  H    0.009427  -0.138522   0.002640  -0.009411
     4  H   -0.002077   0.002518   0.000151   0.003160
     5  H    0.225493   0.038258  -0.048700  -0.117190
     6  H   -0.089249   0.117170   0.008187   0.012803
     7  H    1.242640  -0.215866  -0.195939   0.057712
     8  H   -0.215866   1.169171  -0.019620   0.063154
     9  H   -0.195939  -0.019620   1.063667   0.170345
    10  H    0.057712   0.063154   0.170345   0.728406
          Atomic-Atomic Spin Densities.
               1          2          3          4          5          6
     1  H    0.728687  -0.221120   0.202898  -0.183069   0.018770  -0.120226
     2  H   -0.221120   0.916701  -0.033742  -0.029305   0.004670   0.012154
     3  H    0.202898  -0.033742  -0.443708   0.088177  -0.122210  -0.106063
     4  H   -0.183069  -0.029305   0.088177  -0.209014  -0.020493   0.169940
     5  H    0.018770   0.004670  -0.122210  -0.020493   0.589586  -0.143471
     6  H   -0.120226   0.012154  -0.106063   0.169940  -0.143471   0.633869
     7  H   -0.000620  -0.000171  -0.010967  -0.000613  -0.130293   0.040810
     8  H   -0.003621   0.001382   0.099038  -0.015276   0.274744  -0.116396
     9  H    0.000198   0.000009  -0.001992   0.000199   0.011362  -0.005126
    10  H   -0.000255  -0.000247   0.008893   0.000859  -0.065404   0.007777
               7          8          9         10
     1  H   -0.000620  -0.003621   0.000198  -0.000255
     2  H   -0.000171   0.001382   0.000009  -0.000247
     3  H   -0.010967   0.099038  -0.001992   0.008893
     4  H   -0.000613  -0.015276   0.000199   0.000859
     5  H   -0.130293   0.274744   0.011362  -0.065404
     6  H    0.040810  -0.116396  -0.005126   0.007777
     7  H   -1.019822   0.248665   0.219530   0.137634
     8  H    0.248665  -0.934329   0.006216  -0.129825
     9  H    0.219530   0.006216  -0.948455  -0.001625
    10  H    0.137634  -0.129825  -0.001625   0.502901
 Mulliken charges and spin densities:
               1          2
     1  H   -0.021296   0.421642
     2  H   -0.060167   0.650331
     3  H    0.007989  -0.319677
     4  H    0.123201  -0.198595
     5  H   -0.010058   0.417259
     6  H   -0.102317   0.373267
     7  H   -0.036697  -0.515848
     8  H   -0.011283  -0.569403
     9  H    0.019519  -0.719684
    10  H    0.091110   0.460708
 Sum of Mulliken charges =  -0.00000  -0.00000
 Mulliken charges and spin densities with hydrogens summed into heavy atoms:
               1          2
 Electronic spatial extent (au):  <R**2>=            161.1012
 Charge=             -0.0000 electrons
 Dipole moment (field-independent basis, Debye):
    X=             -0.8944    Y=              0.6283    Z=              0.0000  Tot=              1.0931
 Quadrupole moment (field-independent basis, Debye-Ang):
   XX=            -13.7931   YY=            -15.3632   ZZ=            -12.8687
   XY=              0.4331   XZ=             -0.0000   YZ=              0.0000
 Traceless Quadrupole moment (field-independent basis, Debye-Ang):
   XX=              0.2153   YY=             -1.3549   ZZ=              1.1396
   XY=              0.4331   XZ=             -0.0000   YZ=              0.0000
 Octapole moment (field-independent basis, Debye-Ang**2):
  XXX=             -3.6013  YYY=              6.3331  ZZZ=             -0.0000  XYY=             -3.3857
  XXY=              2.4956  XXZ=             -0.0000  XZZ=             -0.2336  YZZ=              0.2772
  YYZ=             -0.0000  XYZ=              0.0000
 Hexadecapole moment (field-independent basis, Debye-Ang**3):
 XXXX=           -155.0944 YYYY=           -197.2728 ZZZZ=            -15.5370 XXXY=             72.6037
 XXXZ=             -0.0000 YYYX=             78.9635 YYYZ=              0.0000 ZZZX=             -0.0000
 ZZZY=              0.0000 XXYY=            -65.6255 XXZZ=            -27.3836 YYZZ=            -32.1934
 XXYZ=              0.0000 YYXZ=             -0.0000 ZZXY=             21.4215
 N-N= 1.254083242777D+01 E-N=-3.450139110846D+01  KE= 5.344001013334D+00
 Symmetry AG   KE= 2.186113139127D+00
 Symmetry BG   KE= 0.000000000000D+00
 Symmetry AU   KE= 0.000000000000D+00
 Symmetry BU   KE= 3.157887874207D+00
                          Isotropic Fermi Contact Couplings
        Atom                 a.u.       MegaHertz       Gauss      10(-4) cm-1
     1  H(1)               0.18917     422.78923     150.86170     141.02731
     2  H(1)               0.25562     571.29416     203.85196     190.56322
     3  H(1)              -0.12814    -286.37426    -102.18545     -95.52417
     4  H(1)              -0.06643    -148.46567     -52.97624     -49.52282
     5  H(1)               0.17316     387.01103     138.09515     129.09298
     6  H(1)               0.16478     368.27478     131.40959     122.84324
     7  H(1)              -0.25668    -573.65623    -204.69480    -191.35112
     8  H(1)              -0.24199    -540.82390    -192.97941    -180.39944
     9  H(1)              -0.26985    -603.09230    -215.19832    -201.16994
    10  H(1)               0.15551     347.55912     124.01773     115.93324
 --------------------------------------------------------
       Center         ----  Spin Dipole Couplings  ----
                      3XX-RR        3YY-RR        3ZZ-RR
 --------------------------------------------------------
     1   Atom       -0.052559      0.048228      0.004332
     2   Atom       -0.011609      0.005756      0.005854
     3   Atom        0.064801      0.005769     -0.070569
     4   Atom        0.077161      0.001243     -0.078403
     5   Atom       -0.076153     -0.009529      0.085682
     6   Atom       -0.081442      0.035305      0.046137
     7   Atom        0.085983     -0.063659     -0.022324
     8   Atom        0.108129     -0.055994     -0.052134
     9   Atom       -0.038442      0.045075     -0.006633
    10   Atom       -0.025518     -0.078645      0.104164
 --------------------------------------------------------
                        XY            XZ            YZ
 --------------------------------------------------------
     1   Atom       -0.030981      0.000000     -0.000000
     2   Atom        0.027119     -0.000000      0.000000
     3   Atom       -0.020515      0.000000     -0.000000
     4   Atom       -0.033948      0.000000     -0.000000
     5   Atom        0.045387      0.000000      0.000000
     6   Atom       -0.009019     -0.000000     -0.000000
     7   Atom        0.039412     -0.000000     -0.000000
     8   Atom        0.011840     -0.000000     -0.000000
     9   Atom        0.026772     -0.000000      0.000000
    10   Atom        0.006604      0.000000     -0.000000
 --------------------------------------------------------


 ---------------------------------------------------------------------------------
              Anisotropic Spin Dipole Couplings in Principal Axis System
 ---------------------------------------------------------------------------------

       Atom             a.u.   MegaHertz   Gauss  10(-4) cm-1        Axes

              Baa    -0.0613   -32.718   -11.675   -10.914  0.9623  0.2721  0.0000
     1 H(1)   Bbb     0.0043     2.311     0.825     0.771  0.0000  0.0000  1.0000
              Bcc     0.0570    30.407    10.850    10.143 -0.2721  0.9623 -0.0000
 
              Baa    -0.0314   -16.755    -5.979    -5.589  0.8077 -0.5895  0.0000
     2 H(1)   Bbb     0.0059     3.123     1.114     1.042  0.0000  0.0000  1.0000
              Bcc     0.0255    13.631     4.864     4.547  0.5895  0.8077  0.0000
 
              Baa    -0.0706   -37.652   -13.435   -12.559  0.0000  0.0000  1.0000
     3 H(1)   Bbb    -0.0007    -0.353    -0.126    -0.118  0.2991  0.9542  0.0000
              Bcc     0.0712    38.005    13.561    12.677  0.9542 -0.2991  0.0000
 
              Baa    -0.0784   -41.832   -14.927   -13.954  0.0000  0.0000  1.0000
     4 H(1)   Bbb    -0.0117    -6.255    -2.232    -2.086  0.3568  0.9342  0.0000
              Bcc     0.0901    48.087    17.159    16.040  0.9342 -0.3568  0.0000
 
              Baa    -0.0991   -52.897   -18.875   -17.645  0.8921 -0.4518  0.0000
     5 H(1)   Bbb     0.0135     7.181     2.562     2.395  0.4518  0.8921 -0.0000
              Bcc     0.0857    45.716    16.313    15.249  0.0000  0.0000  1.0000
 
              Baa    -0.0821   -43.823   -15.637   -14.618  0.9971  0.0766  0.0000
     6 H(1)   Bbb     0.0360    19.207     6.853     6.407 -0.0766  0.9971 -0.0000
              Bcc     0.0461    24.617     8.784     8.211  0.0000  0.0000  1.0000
 
              Baa    -0.0734   -39.165   -13.975   -13.064 -0.2400  0.9708 -0.0000
     7 H(1)   Bbb    -0.0223   -11.911    -4.250    -3.973  0.0000  0.0000  1.0000
              Bcc     0.0957    51.076    18.225    17.037  0.9708  0.2400  0.0000
 
              Baa    -0.0568   -30.329   -10.822   -10.117 -0.0716  0.9974 -0.0000
     8 H(1)   Bbb    -0.0521   -27.816    -9.926    -9.278  0.0000  0.0000  1.0000
              Bcc     0.1090    58.146    20.748    19.395  0.9974  0.0716  0.0000
 
              Baa    -0.0463   -24.697    -8.812    -8.238  0.9596 -0.2812  0.0000
     9 H(1)   Bbb    -0.0066    -3.539    -1.263    -1.180  0.0000  0.0000  1.0000
              Bcc     0.0529    28.235    10.075     9.418  0.2812  0.9596  0.0000
 
              Baa    -0.0795   -42.393   -15.127   -14.141 -0.1215  0.9926  0.0000
    10 H(1)   Bbb    -0.0247   -13.184    -4.704    -4.398  0.9926  0.1215  0.0000
              Bcc     0.1042    55.577    19.831    18.538  0.0000  0.0000  1.0000
 

 ---------------------------------------------------------------------------------

 No NMR shielding tensors so no spin-rotation constants.
 Leave Link  601 at Fri Feb 24 16:27:01 2017, MaxMem=   134217728 cpu:         0.1
 (Enter /projects/guscus/apps/gau/g09-e1/g09/l801.exe)
 Range of M.O.s used for correlation:     1    10
 NBasis=    10 NAE=     5 NBE=     5 NFC=     0 NFV=     0
 NROrb=     10 NOA=     5 NOB=     5 NVA=     5 NVB=     5
 Leave Link  801 at Fri Feb 24 16:27:01 2017, MaxMem=   134217728 cpu:         0.0
 (Enter /projects/guscus/apps/gau/g09-e1/g09/l914.exe)
 UHF ground state
 Doing stability rather than CIS.
 MDV=   134217728 DFT=F DoStab=T Mixed=F DoRPA=F DoScal=F NonHer=F
 Keep R1 and R2 ints in memory in symmetry-blocked form, NReq=802982.
 FoFCou: FMM=F IPFlag=           0 FMFlag=           0 FMFlg1=           0
         NFxFlg=           0 DoJE=F BraDBF=F KetDBF=F FulRan=T
         wScrn=  0.000000 ICntrl=     600 IOpCl=  0 I1Cent=           0 NGrid=           0
         NMat0=    1 NMatS0=     55 NMatT0=    0 NMatD0=    1 NMtDS0=    0 NMtDT0=    0
 Petite list used in FoFCou.
 Making orbital integer symmetry assigments:
 Orbital symmetries:
 Alpha Orbitals:
       Occupied  (BG) (BG) (BG) (BG) (BG)
       Virtual   (BG) (BG) (BG) (BG) (BG)
 Beta  Orbitals:
       Occupied  (BG) (BG) (BG) (BG) (BG)
       Virtual   (BG) (BG) (BG) (BG) (BG)
    12 initial guesses have been made.
 Convergence on wavefunction:    0.001000000000000
 Davidson Disk Diagonalization:  ConvIn= 1.00D-03 SkipCon=T Conv= 1.00D-03.
 Max sub-space:   200 roots to seek:    12 dimension of matrix:           50
 Iteration     1 Dimension    12 NMult     0 NNew     12
 CISAX will form    12 AO SS matrices at one time.
 NMat=    12 NSing=    12 JSym2X= 2.
 Excitation Energies [eV] at current iteration:
 Root      1 :     1.385336099203263
 Root      2 :     3.427445487316669
 Root      3 :     3.970102774991178
 Root      4 :     5.230629641543394
 Root      5 :     6.125464594902663
 Root      6 :     7.073328857977707
 Root      7 :     7.828282446430214
 Root      8 :     8.879054769023361
 Root      9 :     9.704033483353594
 Root     10 :     9.930619557431200
 Root     11 :    11.586272683892970
 Root     12 :    13.173486454705850
 Iteration     2 Dimension    24 NMult    12 NNew     12
 CISAX will form    12 AO SS matrices at one time.
 NMat=    12 NSing=    12 JSym2X= 2.
 Root      1 not converged, maximum delta is    0.162159984878786
 Excitation Energies [eV] at current iteration:
 Root      1 :     0.620071990520458   Change is   -0.765264108682806
 Root      2 :     2.634392569520427   Change is   -0.793052917796242
 Root      3 :     3.114662684784073   Change is   -0.855440090207105
 Root      4 :     3.885156694589180   Change is   -1.345472946954214
 Root      5 :     5.015965204247690   Change is   -1.109499390654973
 Root      6 :     5.861087467423618   Change is   -1.212241390554089
 Root      7 :     6.547747593152581   Change is   -1.280534853277633
 Root      8 :     7.735670793219433   Change is   -1.143383975803926
 Root      9 :     8.558631562011840   Change is   -1.371987995419360
 Root     10 :     9.282048542137836   Change is   -0.421984941215759
 Root     11 :    10.017967411568870   Change is   -1.568305272324095
 Root     12 :    11.275616113791910   Change is   -1.897870340913939
 Iteration     3 Dimension    27 NMult    24 NNew      3
 CISAX will form     3 AO SS matrices at one time.
 NMat=     3 NSing=     3 JSym2X= 2.
 Root      1 not converged, maximum delta is    0.015491368181583
 Excitation Energies [eV] at current iteration:
 Root      1 :     0.588485594275815   Change is   -0.031586396244643
 Root      2 :     2.541432597443411   Change is   -0.092959972077016
 Root      3 :     3.064865982083729   Change is   -0.049796702700344
 Iteration     4 Dimension    30 NMult    27 NNew      3
 CISAX will form     3 AO SS matrices at one time.
 NMat=     3 NSing=     3 JSym2X= 2.
 Root      1 not converged, maximum delta is    0.002884865566906
 Excitation Energies [eV] at current iteration:
 Root      1 :     0.587677140079955   Change is   -0.000808454195860
 Root      2 :     2.532017152872959   Change is   -0.009415444570452
 Root      3 :     3.062950558511023   Change is   -0.001915423572706
 Iteration     5 Dimension    33 NMult    30 NNew      3
 CISAX will form     3 AO SS matrices at one time.
 NMat=     3 NSing=     3 JSym2X= 2.
 Root      1 has converged.
 Excitation Energies [eV] at current iteration:
 Root      1 :     0.587655482257175   Change is   -0.000021657822779
 Root      2 :     2.531772368434372   Change is   -0.000244784438587
 Root      3 :     3.062909871524202   Change is   -0.000040686986821
 Convergence achieved on expansion vectors.
 ***********************************************************************
 Stability analysis using <AA,BB:AA,BB> singles matrix:
 ***********************************************************************

 Eigenvectors of the stability matrix:
 
 Eigenvector   1:  2.753-AG   Eigenvalue= 0.0215959  <S**2>=1.645
      3A ->  6A       -0.15787
      4A ->  6A        0.31228
      5A ->  7A        0.17193
      4B ->  7B       -0.20274
      5B ->  6B        0.82683
      5B ->  8B        0.20391
      5B ->  9B       -0.10288
 SavETr:  write IOETrn=   770 NScale= 10 NData=  16 NLR=1 NState=    1 LETran=      28.
 The wavefunction is stable under the perturbations considered.
 Leave Link  914 at Fri Feb 24 16:27:02 2017, MaxMem=   134217728 cpu:         0.2
 (Enter /projects/guscus/apps/gau/g09-e1/g09/l508.exe)
 The wavefunction is already stable.
 Leave Link  508 at Fri Feb 24 16:27:02 2017, MaxMem=   134217728 cpu:         0.0
 (Enter /projects/guscus/apps/gau/g09-e1/g09/l601.exe)
 Copying SCF densities to generalized density rwf, IOpCl= 1 IROHF=0.

 **********************************************************************

            Population analysis using the SCF density.

 **********************************************************************

 Orbital symmetries:
 Alpha Orbitals:
       Occupied  (BG) (BG) (BG) (BG) (BG)
       Virtual   (BG) (BG) (BG) (BG) (BG)
 Beta  Orbitals:
       Occupied  (BG) (BG) (BG) (BG) (BG)
       Virtual   (BG) (BG) (BG) (BG) (BG)
 Unable to determine electronic state:  partially filled degenerate orbitals.
 Alpha  occ. eigenvalues --   -0.81574  -0.72099  -0.58383  -0.37860  -0.29781
 Alpha virt. eigenvalues --    0.07896   0.18914   0.26193   0.40596   0.59344
  Beta  occ. eigenvalues --   -0.82636  -0.72657  -0.56867  -0.39196  -0.27026
  Beta virt. eigenvalues --    0.09191   0.13119   0.27038   0.41615   0.59441
          Condensed to atoms (all electrons):
               1          2          3          4          5          6
     1  H    1.070690  -0.109367   0.109972   0.122247   0.013213  -0.180356
     2  H   -0.109367   1.116103  -0.085131   0.139606   0.001773  -0.007157
     3  H    0.109972  -0.085131   0.964715  -0.067306   0.103971   0.101656
     4  H    0.122247   0.139606  -0.067306   0.624431  -0.056801   0.110870
     5  H    0.013213   0.001773   0.103971  -0.056801   1.062621  -0.212580
     6  H   -0.180356  -0.007157   0.101656   0.110870  -0.212580   1.240972
     7  H    0.004370   0.000187   0.009427  -0.002077   0.225493  -0.089249
     8  H   -0.009277   0.004295  -0.138522   0.002518   0.038258   0.117170
     9  H   -0.000194  -0.000056   0.002640   0.000151  -0.048700   0.008187
    10  H   -0.000001  -0.000087  -0.009411   0.003160  -0.117190   0.012803
               7          8          9         10
     1  H    0.004370  -0.009277  -0.000194  -0.000001
     2  H    0.000187   0.004295  -0.000056  -0.000087
     3  H    0.009427  -0.138522   0.002640  -0.009411
     4  H   -0.002077   0.002518   0.000151   0.003160
     5  H    0.225493   0.038258  -0.048700  -0.117190
     6  H   -0.089249   0.117170   0.008187   0.012803
     7  H    1.242640  -0.215866  -0.195939   0.057712
     8  H   -0.215866   1.169171  -0.019620   0.063154
     9  H   -0.195939  -0.019620   1.063667   0.170345
    10  H    0.057712   0.063154   0.170345   0.728406
          Atomic-Atomic Spin Densities.
               1          2          3          4          5          6
     1  H    0.728687  -0.221120   0.202898  -0.183069   0.018770  -0.120226
     2  H   -0.221120   0.916701  -0.033742  -0.029305   0.004670   0.012154
     3  H    0.202898  -0.033742  -0.443708   0.088177  -0.122210  -0.106063
     4  H   -0.183069  -0.029305   0.088177  -0.209014  -0.020493   0.169940
     5  H    0.018770   0.004670  -0.122210  -0.020493   0.589586  -0.143471
     6  H   -0.120226   0.012154  -0.106063   0.169940  -0.143471   0.633869
     7  H   -0.000620  -0.000171  -0.010967  -0.000613  -0.130293   0.040810
     8  H   -0.003621   0.001382   0.099038  -0.015276   0.274744  -0.116396
     9  H    0.000198   0.000009  -0.001992   0.000199   0.011362  -0.005126
    10  H   -0.000255  -0.000247   0.008893   0.000859  -0.065404   0.007777
               7          8          9         10
     1  H   -0.000620  -0.003621   0.000198  -0.000255
     2  H   -0.000171   0.001382   0.000009  -0.000247
     3  H   -0.010967   0.099038  -0.001992   0.008893
     4  H   -0.000613  -0.015276   0.000199   0.000859
     5  H   -0.130293   0.274744   0.011362  -0.065404
     6  H    0.040810  -0.116396  -0.005126   0.007777
     7  H   -1.019822   0.248665   0.219530   0.137634
     8  H    0.248665  -0.934329   0.006216  -0.129825
     9  H    0.219530   0.006216  -0.948455  -0.001625
    10  H    0.137634  -0.129825  -0.001625   0.502901
 Mulliken charges and spin densities:
               1          2
     1  H   -0.021296   0.421642
     2  H   -0.060167   0.650331
     3  H    0.007989  -0.319677
     4  H    0.123201  -0.198595
     5  H   -0.010058   0.417259
     6  H   -0.102317   0.373267
     7  H   -0.036697  -0.515848
     8  H   -0.011283  -0.569403
     9  H    0.019519  -0.719684
    10  H    0.091110   0.460708
 Sum of Mulliken charges =  -0.00000  -0.00000
 Mulliken charges and spin densities with hydrogens summed into heavy atoms:
               1          2
 Electronic spatial extent (au):  <R**2>=            161.1012
 Charge=             -0.0000 electrons
 Dipole moment (field-independent basis, Debye):
    X=             -0.8944    Y=              0.6283    Z=              0.0000  Tot=              1.0931
 Quadrupole moment (field-independent basis, Debye-Ang):
   XX=            -13.7931   YY=            -15.3632   ZZ=            -12.8687
   XY=              0.4331   XZ=             -0.0000   YZ=              0.0000
 Traceless Quadrupole moment (field-independent basis, Debye-Ang):
   XX=              0.2153   YY=             -1.3549   ZZ=              1.1396
   XY=              0.4331   XZ=             -0.0000   YZ=              0.0000
 Octapole moment (field-independent basis, Debye-Ang**2):
  XXX=             -3.6013  YYY=              6.3331  ZZZ=             -0.0000  XYY=             -3.3857
  XXY=              2.4956  XXZ=             -0.0000  XZZ=             -0.2336  YZZ=              0.2772
  YYZ=             -0.0000  XYZ=              0.0000
 Hexadecapole moment (field-independent basis, Debye-Ang**3):
 XXXX=           -155.0944 YYYY=           -197.2728 ZZZZ=            -15.5370 XXXY=             72.6037
 XXXZ=             -0.0000 YYYX=             78.9635 YYYZ=              0.0000 ZZZX=             -0.0000
 ZZZY=              0.0000 XXYY=            -65.6255 XXZZ=            -27.3836 YYZZ=            -32.1934
 XXYZ=              0.0000 YYXZ=             -0.0000 ZZXY=             21.4215
 N-N= 1.254083242777D+01 E-N=-3.450139110846D+01  KE= 5.344001013334D+00
 Symmetry AG   KE= 2.186113139127D+00
 Symmetry BG   KE= 0.000000000000D+00
 Symmetry AU   KE= 0.000000000000D+00
 Symmetry BU   KE= 3.157887874207D+00
                          Isotropic Fermi Contact Couplings
        Atom                 a.u.       MegaHertz       Gauss      10(-4) cm-1
     1  H(1)               0.18917     422.78923     150.86170     141.02731
     2  H(1)               0.25562     571.29416     203.85196     190.56322
     3  H(1)              -0.12814    -286.37426    -102.18545     -95.52417
     4  H(1)              -0.06643    -148.46567     -52.97624     -49.52282
     5  H(1)               0.17316     387.01103     138.09515     129.09298
     6  H(1)               0.16478     368.27478     131.40959     122.84324
     7  H(1)              -0.25668    -573.65623    -204.69480    -191.35112
     8  H(1)              -0.24199    -540.82390    -192.97941    -180.39944
     9  H(1)              -0.26985    -603.09230    -215.19832    -201.16994
    10  H(1)               0.15551     347.55912     124.01773     115.93324
 --------------------------------------------------------
       Center         ----  Spin Dipole Couplings  ----
                      3XX-RR        3YY-RR        3ZZ-RR
 --------------------------------------------------------
     1   Atom       -0.052559      0.048228      0.004332
     2   Atom       -0.011609      0.005756      0.005854
     3   Atom        0.064801      0.005769     -0.070569
     4   Atom        0.077161      0.001243     -0.078403
     5   Atom       -0.076153     -0.009529      0.085682
     6   Atom       -0.081442      0.035305      0.046137
     7   Atom        0.085983     -0.063659     -0.022324
     8   Atom        0.108129     -0.055994     -0.052134
     9   Atom       -0.038442      0.045075     -0.006633
    10   Atom       -0.025518     -0.078645      0.104164
 --------------------------------------------------------
                        XY            XZ            YZ
 --------------------------------------------------------
     1   Atom       -0.030981      0.000000     -0.000000
     2   Atom        0.027119     -0.000000      0.000000
     3   Atom       -0.020515      0.000000     -0.000000
     4   Atom       -0.033948      0.000000     -0.000000
     5   Atom        0.045387      0.000000      0.000000
     6   Atom       -0.009019     -0.000000     -0.000000
     7   Atom        0.039412     -0.000000     -0.000000
     8   Atom        0.011840     -0.000000     -0.000000
     9   Atom        0.026772     -0.000000      0.000000
    10   Atom        0.006604      0.000000     -0.000000
 --------------------------------------------------------


 ---------------------------------------------------------------------------------
              Anisotropic Spin Dipole Couplings in Principal Axis System
 ---------------------------------------------------------------------------------

       Atom             a.u.   MegaHertz   Gauss  10(-4) cm-1        Axes

              Baa    -0.0613   -32.718   -11.675   -10.914  0.9623  0.2721  0.0000
     1 H(1)   Bbb     0.0043     2.311     0.825     0.771  0.0000  0.0000  1.0000
              Bcc     0.0570    30.407    10.850    10.143 -0.2721  0.9623 -0.0000
 
              Baa    -0.0314   -16.755    -5.979    -5.589  0.8077 -0.5895  0.0000
     2 H(1)   Bbb     0.0059     3.123     1.114     1.042  0.0000  0.0000  1.0000
              Bcc     0.0255    13.631     4.864     4.547  0.5895  0.8077  0.0000
 
              Baa    -0.0706   -37.652   -13.435   -12.559  0.0000  0.0000  1.0000
     3 H(1)   Bbb    -0.0007    -0.353    -0.126    -0.118  0.2991  0.9542  0.0000
              Bcc     0.0712    38.005    13.561    12.677  0.9542 -0.2991  0.0000
 
              Baa    -0.0784   -41.832   -14.927   -13.954  0.0000  0.0000  1.0000
     4 H(1)   Bbb    -0.0117    -6.255    -2.232    -2.086  0.3568  0.9342  0.0000
              Bcc     0.0901    48.087    17.159    16.040  0.9342 -0.3568  0.0000
 
              Baa    -0.0991   -52.897   -18.875   -17.645  0.8921 -0.4518  0.0000
     5 H(1)   Bbb     0.0135     7.181     2.562     2.395  0.4518  0.8921 -0.0000
              Bcc     0.0857    45.716    16.313    15.249  0.0000  0.0000  1.0000
 
              Baa    -0.0821   -43.823   -15.637   -14.618  0.9971  0.0766  0.0000
     6 H(1)   Bbb     0.0360    19.207     6.853     6.407 -0.0766  0.9971 -0.0000
              Bcc     0.0461    24.617     8.784     8.211  0.0000  0.0000  1.0000
 
              Baa    -0.0734   -39.165   -13.975   -13.064 -0.2400  0.9708 -0.0000
     7 H(1)   Bbb    -0.0223   -11.911    -4.250    -3.973  0.0000  0.0000  1.0000
              Bcc     0.0957    51.076    18.225    17.037  0.9708  0.2400  0.0000
 
              Baa    -0.0568   -30.329   -10.822   -10.117 -0.0716  0.9974 -0.0000
     8 H(1)   Bbb    -0.0521   -27.816    -9.926    -9.278  0.0000  0.0000  1.0000
              Bcc     0.1090    58.146    20.748    19.395  0.9974  0.0716  0.0000
 
              Baa    -0.0463   -24.697    -8.812    -8.238  0.9596 -0.2812  0.0000
     9 H(1)   Bbb    -0.0066    -3.539    -1.263    -1.180  0.0000  0.0000  1.0000
              Bcc     0.0529    28.235    10.075     9.418  0.2812  0.9596  0.0000
 
              Baa    -0.0795   -42.393   -15.127   -14.141 -0.1215  0.9926  0.0000
    10 H(1)   Bbb    -0.0247   -13.184    -4.704    -4.398  0.9926  0.1215  0.0000
              Bcc     0.1042    55.577    19.831    18.538  0.0000  0.0000  1.0000
 

 ---------------------------------------------------------------------------------

 No NMR shielding tensors so no spin-rotation constants.
 Leave Link  601 at Fri Feb 24 16:27:02 2017, MaxMem=   134217728 cpu:         0.1
 (Enter /projects/guscus/apps/gau/g09-e1/g09/l9999.exe)

 Test job not archived.
 1\1\GINC-SULU\Stability\UHF\Gen\H10\LCJ1\24-Feb-2017\0\\#p uhf/gen scf
 (tight,novaracc,noincfock,fulldiag ) stable=opt guess=(read) geom=nocr
 owd test\\hf stability analysis of h10 triangular lattice, y= 0.492641
 56670383669 alpha= 22.800000000000001\\0,1\H\H,1,1.271281907\H,1,1.271
 281907,2,134.4\H,2,1.271281907,1,45.6,3,0.,0\H,3,1.271281907,1,180.,2,
 0.,0\H,4,1.271281907,2,180.,1,0.,0\H,5,1.271281907,3,180.,2,0.,0\H,6,1
 .271281907,4,180.,1,0.,0\H,7,1.271281907,5,180.,2,0.,0\H,8,1.271281907
 ,6,180.,1,0.,0\\Version=ES64L-G09RevE.01\HF=-4.8282558\S2=1.460648\S2-
 1=0.\S2A=3.609656\RMSD=8.623e-09\Dipole=0.3518939,0.,-0.247199\Quadrup
 ole=0.1600522,0.8472593,-1.0073116,0.,0.3220048,0.\PG=C02H [SGH(H10)]\
 \@


    THE DOUGHNUT CREED
 AS YOU RAMBLE ON THROUGH LIFE, BROTHER
 WHATEVER BE YOUR GOAL
 KEEP YOUR EYE UPON THE DOUGHNUT
 AND NOT UPON THE HOLE.
 Job cpu time:       0 days  0 hours  0 minutes  0.9 seconds.
 File lengths (MBytes):  RWF=     82 Int=      0 D2E=      0 Chk=      2 Scr=      2
 Normal termination of Gaussian 09 at Fri Feb 24 16:27:02 2017.
