 Entering Gaussian System, Link 0=g09
 AtFile(1): H.gbs
            H     0
            S   10   1.00
               1000.000000000000            0.000068713567
                316.227766000000            0.000169141320
                100.000000000000            0.000823394812
                 31.622776600000            0.003425569236
                 10.000000000000            0.013951996000
                  3.162277660000            0.056909313560
                  1.000000000000            0.198286399900
                  0.316227766000            0.496922426700
                  0.100000000000            0.369846276400
                  0.031622776600            0.003752720039
            ****
 Initial command:
 /projects/guscus/apps/gau/g09-e1/g09/l1.exe "/users/lcj1/gaussian/h10/2rows_uhf/ag2bu3/singlet/follow20/test/Gau-28860.inp" -scrdir="/users/lcj1/gaussian/h10/2rows_uhf/ag2bu3/singlet/follow20/test/"
 Entering Link 1 = /projects/guscus/apps/gau/g09-e1/g09/l1.exe PID=     28861.
  
 Copyright (c) 1988,1990,1992,1993,1995,1998,2003,2009,2015,
            Gaussian, Inc.  All Rights Reserved.
  
 This is part of the Gaussian(R) 09 program.  It is based on
 the Gaussian(R) 03 system (copyright 2003, Gaussian, Inc.),
 the Gaussian(R) 98 system (copyright 1998, Gaussian, Inc.),
 the Gaussian(R) 94 system (copyright 1995, Gaussian, Inc.),
 the Gaussian 92(TM) system (copyright 1992, Gaussian, Inc.),
 the Gaussian 90(TM) system (copyright 1990, Gaussian, Inc.),
 the Gaussian 88(TM) system (copyright 1988, Gaussian, Inc.),
 the Gaussian 86(TM) system (copyright 1986, Carnegie Mellon
 University), and the Gaussian 82(TM) system (copyright 1983,
 Carnegie Mellon University). Gaussian is a federally registered
 trademark of Gaussian, Inc.
  
 This software contains proprietary and confidential information,
 including trade secrets, belonging to Gaussian, Inc.
  
 This software is provided under written license and may be
 used, copied, transmitted, or stored only in accord with that
 written license.
  
 The following legend is applicable only to US Government
 contracts under FAR:
  
                    RESTRICTED RIGHTS LEGEND
  
 Use, reproduction and disclosure by the US Government is
 subject to restrictions as set forth in subparagraphs (a)
 and (c) of the Commercial Computer Software - Restricted
 Rights clause in FAR 52.227-19.
  
 Gaussian, Inc.
 340 Quinnipiac St., Bldg. 40, Wallingford CT 06492
  
  
 ---------------------------------------------------------------
 Warning -- This program may not be used in any manner that
 competes with the business of Gaussian, Inc. or will provide
 assistance to any competitor of Gaussian, Inc.  The licensee
 of this program is prohibited from giving any competitor of
 Gaussian, Inc. access to this program.  By using this program,
 the user acknowledges that Gaussian, Inc. is engaged in the
 business of creating and licensing software in the field of
 computational chemistry and represents and warrants to the
 licensee that it is not a competitor of Gaussian, Inc. and that
 it will not use this program in any manner prohibited above.
 ---------------------------------------------------------------
  

 Cite this work as:
 Gaussian 09, Revision E.01,
 M. J. Frisch, G. W. Trucks, H. B. Schlegel, G. E. Scuseria, 
 M. A. Robb, J. R. Cheeseman, G. Scalmani, V. Barone, B. Mennucci, 
 G. A. Petersson, H. Nakatsuji, M. Caricato, X. Li, H. P. Hratchian, 
 A. F. Izmaylov, J. Bloino, G. Zheng, J. L. Sonnenberg, M. Hada, 
 M. Ehara, K. Toyota, R. Fukuda, J. Hasegawa, M. Ishida, T. Nakajima, 
 Y. Honda, O. Kitao, H. Nakai, T. Vreven, J. A. Montgomery, Jr., 
 J. E. Peralta, F. Ogliaro, M. Bearpark, J. J. Heyd, E. Brothers, 
 K. N. Kudin, V. N. Staroverov, T. Keith, R. Kobayashi, J. Normand, 
 K. Raghavachari, A. Rendell, J. C. Burant, S. S. Iyengar, J. Tomasi, 
 M. Cossi, N. Rega, J. M. Millam, M. Klene, J. E. Knox, J. B. Cross, 
 V. Bakken, C. Adamo, J. Jaramillo, R. Gomperts, R. E. Stratmann, 
 O. Yazyev, A. J. Austin, R. Cammi, C. Pomelli, J. W. Ochterski, 
 R. L. Martin, K. Morokuma, V. G. Zakrzewski, G. A. Voth, 
 P. Salvador, J. J. Dannenberg, S. Dapprich, A. D. Daniels, 
 O. Farkas, J. B. Foresman, J. V. Ortiz, J. Cioslowski, 
 and D. J. Fox, Gaussian, Inc., Wallingford CT, 2013.
 
 ******************************************
 Gaussian 09:  ES64L-G09RevE.01 30-Nov-2015
                24-Feb-2017 
 ******************************************
 %chk=h10.chk
 ----------------------------------------------------------------------
 #p uhf/gen scf(tight,novaracc,noincfock,fulldiag ) stable=opt guess=(r
 ead) geom=nocrowd test
 ----------------------------------------------------------------------
 1/38=1/1;
 2/12=1,17=6,18=5,40=1/2;
 3/5=7,11=2,16=1,25=1,30=1,116=2/1,2,3;
 4/5=1/1;
 5/5=100002,16=1,32=2,38=6/2;
 6/7=2,8=2,9=2,10=2,28=1/1;
 8/6=1,10=90,11=11/1;
 9/8=-3,42=1,46=1/14;
 5/5=100002,8=3,16=1,17=40,32=2,38=6/8(-2);
 6/7=2,8=2,9=2,10=2,28=1/1;
 99/5=1,9=1/99;
 Leave Link    1 at Fri Feb 24 16:25:42 2017, MaxMem=           0 cpu:         0.0
 (Enter /projects/guscus/apps/gau/g09-e1/g09/l101.exe)
 ----------------------------------------------------------------------
 hf stability analysis of h10 triangular lattice, y= 0.4041950807883822
 3 alpha= 15.800000000000001
 ----------------------------------------------------------------------
 Symbolic Z-matrix:
 Charge =  0 Multiplicity = 1
 H
 H                    1     1.48448 
 H                    1     1.48448  2     148.4 
 H                    2     1.48448  1     31.6     3     0.       0
 H                    3     1.48448  1     180.     2     0.       0
 H                    4     1.48448  2     180.     1     0.       0
 H                    5     1.48448  3     180.     2     0.       0
 H                    6     1.48448  4     180.     1     0.       0
 H                    7     1.48448  5     180.     2     0.       0
 H                    8     1.48448  6     180.     1     0.       0
 
 NAtoms=     10 NQM=       10 NQMF=       0 NMMI=      0 NMMIF=      0
                NMic=       0 NMicF=      0.
                    Isotopes and Nuclear Properties:
 (Nuclear quadrupole moments (NQMom) in fm**2, nuclear magnetic moments (NMagM)
  in nuclear magnetons)

  Atom         1           2           3           4           5           6           7           8           9          10
 IAtWgt=           1           1           1           1           1           1           1           1           1           1
 AtmWgt=   1.0078250   1.0078250   1.0078250   1.0078250   1.0078250   1.0078250   1.0078250   1.0078250   1.0078250   1.0078250
 NucSpn=           1           1           1           1           1           1           1           1           1           1
 AtZEff=   0.0000000   0.0000000   0.0000000   0.0000000   0.0000000   0.0000000   0.0000000   0.0000000   0.0000000   0.0000000
 NQMom=    0.0000000   0.0000000   0.0000000   0.0000000   0.0000000   0.0000000   0.0000000   0.0000000   0.0000000   0.0000000
 NMagM=    2.7928460   2.7928460   2.7928460   2.7928460   2.7928460   2.7928460   2.7928460   2.7928460   2.7928460   2.7928460
 AtZNuc=   1.0000000   1.0000000   1.0000000   1.0000000   1.0000000   1.0000000   1.0000000   1.0000000   1.0000000   1.0000000
 Leave Link  101 at Fri Feb 24 16:25:42 2017, MaxMem=   134217728 cpu:         0.0
 (Enter /projects/guscus/apps/gau/g09-e1/g09/l202.exe)
                          Input orientation:                          
 ---------------------------------------------------------------------
 Center     Atomic      Atomic             Coordinates (Angstroms)
 Number     Number       Type             X           Y           Z
 ---------------------------------------------------------------------
      1          1           0        0.000000    0.000000    0.000000
      2          1           0        0.000000    0.000000    1.484482
      3          1           0        0.777848    0.000000   -1.264373
      4          1           0        0.777848    0.000000    0.220109
      5          1           0        1.555695    0.000000   -2.528746
      6          1           0        1.555695    0.000000   -1.044264
      7          1           0        2.333543    0.000000   -3.793119
      8          1           0        2.333543    0.000000   -2.308638
      9          1           0        3.111390    0.000000   -5.057493
     10          1           0        3.111390    0.000000   -3.573011
 ---------------------------------------------------------------------
                    Distance matrix (angstroms):
                    1          2          3          4          5
     1  H    0.000000
     2  H    1.484482   0.000000
     3  H    1.484482   2.856790   0.000000
     4  H    0.808390   1.484482   1.484482   0.000000
     5  H    2.968964   4.304206   1.484482   2.856790   0.000000
     6  H    1.873680   2.968964   0.808390   1.484482   1.484482
     7  H    4.453445   5.770485   2.968964   4.304206   1.484482
     8  H    3.282564   4.453445   1.873680   2.968964   0.808390
     9  H    5.937927   7.244182   4.453445   5.770485   2.968964
    10  H    4.737843   5.937927   3.282564   4.453445   1.873680
                    6          7          8          9         10
     6  H    0.000000
     7  H    2.856790   0.000000
     8  H    1.484482   1.484482   0.000000
     9  H    4.304206   1.484482   2.856790   0.000000
    10  H    2.968964   0.808390   1.484482   1.484482   0.000000
 Stoichiometry    H10
 Framework group  C2H[SGH(H10)]
 Deg. of freedom     9
 Full point group                 C2H     NOp   4
 Largest Abelian subgroup         C2H     NOp   4
 Largest concise Abelian subgroup C2      NOp   2
                         Standard orientation:                         
 ---------------------------------------------------------------------
 Center     Atomic      Atomic             Coordinates (Angstroms)
 Number     Number       Type             X           Y           Z
 ---------------------------------------------------------------------
      1          1           0        1.555695   -1.786505   -0.000000
      2          1           0        1.555695   -3.270987   -0.000000
      3          1           0        0.777848   -0.522132   -0.000000
      4          1           0        0.777848   -2.006614   -0.000000
      5          1           0        0.000000    0.742241   -0.000000
      6          1           0       -0.000000   -0.742241   -0.000000
      7          1           0       -0.777848    2.006614   -0.000000
      8          1           0       -0.777848    0.522132   -0.000000
      9          1           0       -1.555695    3.270987   -0.000000
     10          1           0       -1.555695    1.786505   -0.000000
 ---------------------------------------------------------------------
 Rotational constants (GHZ):    362.5506128     10.4036742     10.1134605
 Leave Link  202 at Fri Feb 24 16:25:43 2017, MaxMem=   134217728 cpu:         0.0
 (Enter /projects/guscus/apps/gau/g09-e1/g09/l301.exe)
 General basis read from cards:  (5D, 7F)
 Centers:       1      2      3      4      5      6      7      8      9     10
 S 10 1.00
     Exponent=  1.0000000000D+03 Coefficients=  6.8713567000D-05
     Exponent=  3.1622776600D+02 Coefficients=  1.6914132000D-04
     Exponent=  1.0000000000D+02 Coefficients=  8.2339481200D-04
     Exponent=  3.1622776600D+01 Coefficients=  3.4255692360D-03
     Exponent=  1.0000000000D+01 Coefficients=  1.3951996000D-02
     Exponent=  3.1622776600D+00 Coefficients=  5.6909313560D-02
     Exponent=  1.0000000000D+00 Coefficients=  1.9828639990D-01
     Exponent=  3.1622776600D-01 Coefficients=  4.9692242670D-01
     Exponent=  1.0000000000D-01 Coefficients=  3.6984627640D-01
     Exponent=  3.1622776600D-02 Coefficients=  3.7527200390D-03
 ****
 Ernie: Thresh=  0.10000D-02 Tol=  0.10000D-05 Strict=F.
 There are     5 symmetry adapted cartesian basis functions of AG  symmetry.
 There are     0 symmetry adapted cartesian basis functions of BG  symmetry.
 There are     0 symmetry adapted cartesian basis functions of AU  symmetry.
 There are     5 symmetry adapted cartesian basis functions of BU  symmetry.
 There are     5 symmetry adapted basis functions of AG  symmetry.
 There are     0 symmetry adapted basis functions of BG  symmetry.
 There are     0 symmetry adapted basis functions of AU  symmetry.
 There are     5 symmetry adapted basis functions of BU  symmetry.
    10 basis functions,   100 primitive gaussians,    10 cartesian basis functions
     5 alpha electrons        5 beta electrons
       nuclear repulsion energy        11.6231387859 Hartrees.
 IExCor=    0 DFT=F Ex=HF Corr=None ExCW=0 ScaHFX=  1.000000
 ScaDFX=  1.000000  1.000000  1.000000  1.000000 ScalE2=  1.000000  1.000000
 IRadAn=      0 IRanWt=     -1 IRanGd=            0 ICorTp=0 IEmpDi=  4
 NAtoms=   10 NActive=   10 NUniq=    5 SFac= 4.00D+00 NAtFMM=   60 NAOKFM=F Big=F
 Integral buffers will be    131072 words long.
 Raffenetti 2 integral format.
 Two-electron integral symmetry is turned on.
 Leave Link  301 at Fri Feb 24 16:25:43 2017, MaxMem=   134217728 cpu:         0.0
 (Enter /projects/guscus/apps/gau/g09-e1/g09/l302.exe)
 NPDir=0 NMtPBC=     1 NCelOv=     1 NCel=       1 NClECP=     1 NCelD=      1
         NCelK=      1 NCelE2=     1 NClLst=     1 CellRange=     0.0.
 One-electron integrals computed using PRISM.
 One-electron integral symmetry used in STVInt
 NBasis=    10 RedAO= T EigKep=  1.76D-01  NBF=     5     0     0     5
 NBsUse=    10 1.00D-06 EigRej= -1.00D+00 NBFU=     5     0     0     5
 Leave Link  302 at Fri Feb 24 16:25:43 2017, MaxMem=   134217728 cpu:         0.0
 (Enter /projects/guscus/apps/gau/g09-e1/g09/l303.exe)
 DipDrv:  MaxL=1.
 Leave Link  303 at Fri Feb 24 16:25:43 2017, MaxMem=   134217728 cpu:         0.0
 (Enter /projects/guscus/apps/gau/g09-e1/g09/l401.exe)
 Initial guess from the checkpoint file:  "h10.chk"
 B after Tr=     0.000000   -0.000000   -0.000000
         Rot=    0.999995    0.000000    0.000000   -0.003103 Ang=  -0.36 deg.
 Guess basis will be translated and rotated to current coordinates.
 JPrj=2 DoOrth=T DoCkMO=T.
 Initial guess orbital symmetries:
 Alpha Orbitals:
       Occupied  (BG) (BG) (BG) (BG) (BG)
       Virtual   (BG) (BG) (BG) (BG) (BG)
 Beta  Orbitals:
       Occupied  (BG) (BG) (BG) (BG) (BG)
       Virtual   (BG) (BG) (BG) (BG) (BG)
 Initial guess <Sx>= 0.0000 <Sy>= 0.0000 <Sz>= 0.0000 <S**2>= 1.0020 S= 0.6189
 Leave Link  401 at Fri Feb 24 16:25:43 2017, MaxMem=   134217728 cpu:         0.1
 (Enter /projects/guscus/apps/gau/g09-e1/g09/l502.exe)
 UHF open shell SCF:
 Using DIIS extrapolation, IDIIS=  1040.
 Integral symmetry usage will be decided dynamically.
 Keep R1 and R2 ints in memory in symmetry-blocked form, NReq=875379.
 IVT=       20217 IEndB=       20217 NGot=   134217728 MDV=   134195632
 LenX=   134195632 LenY=   134194750
 Requested convergence on RMS density matrix=1.00D-08 within 128 cycles.
 Requested convergence on MAX density matrix=1.00D-06.
 Requested convergence on             energy=1.00D-06.
 No special actions if energy rises.
 FoFCou: FMM=F IPFlag=           0 FMFlag=           0 FMFlg1=           0
         NFxFlg=           0 DoJE=F BraDBF=F KetDBF=F FulRan=T
         wScrn=  0.000000 ICntrl=     600 IOpCl=  0 I1Cent=           0 NGrid=           0
         NMat0=    1 NMatS0=     55 NMatT0=    0 NMatD0=    1 NMtDS0=    0 NMtDT0=    0
 Petite list used in FoFCou.
 An orbital has undefined symmetry, so N**3 symmetry is turned off.

 Cycle   1  Pass 1  IDiag  1:
 Density matrix breaks symmetry, PCut= 1.00D-04
 Density matrix has no symmetry -- integrals replicated.
 E= -5.07571630957853    
 DIIS: error= 4.87D-04 at cycle   1 NSaved=   1.
 NSaved= 1 IEnMin= 1 EnMin= -5.07571630957853     IErMin= 1 ErrMin= 4.87D-04
 ErrMax= 4.87D-04  0.00D+00 EMaxC= 1.00D-01 BMatC= 2.50D-05 BMatP= 2.50D-05
 IDIUse=3 WtCom= 9.95D-01 WtEn= 4.87D-03
 Coeff-Com:  0.100D+01
 Coeff-En:   0.100D+01
 Coeff:      0.100D+01
 Gap=     0.528 Goal=   None    Shift=    0.000
 Gap=     0.528 Goal=   None    Shift=    0.000
 RMSDP=9.03D-04 MaxDP=1.95D-03              OVMax= 0.00D+00

 Cycle   2  Pass 1  IDiag  1:
 Density matrix breaks symmetry, PCut= 1.00D-07
 Density matrix has no symmetry -- integrals replicated.
 E= -5.07573968507600     Delta-E=       -0.000023375497 Rises=F Damp=F
 DIIS: error= 1.63D-04 at cycle   2 NSaved=   2.
 NSaved= 2 IEnMin= 2 EnMin= -5.07573968507600     IErMin= 2 ErrMin= 1.63D-04
 ErrMax= 1.63D-04  0.00D+00 EMaxC= 1.00D-01 BMatC= 3.89D-06 BMatP= 2.50D-05
 IDIUse=3 WtCom= 9.98D-01 WtEn= 1.63D-03
 Coeff-Com: -0.513D+00 0.151D+01
 Coeff-En:   0.000D+00 0.100D+01
 Coeff:     -0.512D+00 0.151D+01
 Gap=     0.528 Goal=   None    Shift=    0.000
 Gap=     0.528 Goal=   None    Shift=    0.000
 RMSDP=5.38D-04 MaxDP=1.29D-03 DE=-2.34D-05 OVMax= 0.00D+00

 Cycle   3  Pass 1  IDiag  1:
 Density matrix breaks symmetry, PCut= 1.00D-07
 Density matrix has no symmetry -- integrals replicated.
 E= -5.07574460818031     Delta-E=       -0.000004923104 Rises=F Damp=F
 DIIS: error= 8.02D-05 at cycle   3 NSaved=   3.
 NSaved= 3 IEnMin= 3 EnMin= -5.07574460818031     IErMin= 3 ErrMin= 8.02D-05
 ErrMax= 8.02D-05  0.00D+00 EMaxC= 1.00D-01 BMatC= 5.49D-07 BMatP= 3.89D-06
 IDIUse=1 WtCom= 1.00D+00 WtEn= 0.00D+00
 Coeff-Com:  0.420D+00-0.130D+01 0.188D+01
 Coeff:      0.420D+00-0.130D+01 0.188D+01
 Gap=     0.528 Goal=   None    Shift=    0.000
 Gap=     0.528 Goal=   None    Shift=    0.000
 RMSDP=2.57D-04 MaxDP=8.94D-04 DE=-4.92D-06 OVMax= 0.00D+00

 Cycle   4  Pass 1  IDiag  1:
 Density matrix breaks symmetry, PCut= 1.00D-07
 Density matrix has no symmetry -- integrals replicated.
 E= -5.07574563170023     Delta-E=       -0.000001023520 Rises=F Damp=F
 DIIS: error= 5.28D-05 at cycle   4 NSaved=   4.
 NSaved= 4 IEnMin= 4 EnMin= -5.07574563170023     IErMin= 4 ErrMin= 5.28D-05
 ErrMax= 5.28D-05  0.00D+00 EMaxC= 1.00D-01 BMatC= 2.24D-07 BMatP= 5.49D-07
 IDIUse=1 WtCom= 1.00D+00 WtEn= 0.00D+00
 Coeff-Com: -0.599D+00 0.191D+01-0.365D+01 0.334D+01
 Coeff:     -0.599D+00 0.191D+01-0.365D+01 0.334D+01
 Gap=     0.528 Goal=   None    Shift=    0.000
 Gap=     0.528 Goal=   None    Shift=    0.000
 RMSDP=3.61D-04 MaxDP=1.30D-03 DE=-1.02D-06 OVMax= 0.00D+00

 Cycle   5  Pass 1  IDiag  1:
 Density matrix breaks symmetry, PCut= 1.00D-07
 Density matrix has no symmetry -- integrals replicated.
 E= -5.07574632007860     Delta-E=       -0.000000688378 Rises=F Damp=F
 DIIS: error= 1.14D-05 at cycle   5 NSaved=   5.
 NSaved= 5 IEnMin= 5 EnMin= -5.07574632007860     IErMin= 5 ErrMin= 1.14D-05
 ErrMax= 1.14D-05  0.00D+00 EMaxC= 1.00D-01 BMatC= 1.06D-08 BMatP= 2.24D-07
 IDIUse=1 WtCom= 1.00D+00 WtEn= 0.00D+00
 Coeff-Com:  0.147D+00-0.468D+00 0.992D+00-0.118D+01 0.151D+01
 Coeff:      0.147D+00-0.468D+00 0.992D+00-0.118D+01 0.151D+01
 Gap=     0.528 Goal=   None    Shift=    0.000
 Gap=     0.528 Goal=   None    Shift=    0.000
 RMSDP=7.55D-05 MaxDP=2.58D-04 DE=-6.88D-07 OVMax= 0.00D+00

 Cycle   6  Pass 1  IDiag  1:
 Density matrix breaks symmetry, PCut= 1.00D-07
 Density matrix has no symmetry -- integrals replicated.
 E= -5.07574634555541     Delta-E=       -0.000000025477 Rises=F Damp=F
 DIIS: error= 1.11D-06 at cycle   6 NSaved=   6.
 NSaved= 6 IEnMin= 6 EnMin= -5.07574634555541     IErMin= 6 ErrMin= 1.11D-06
 ErrMax= 1.11D-06  0.00D+00 EMaxC= 1.00D-01 BMatC= 1.32D-10 BMatP= 1.06D-08
 IDIUse=1 WtCom= 1.00D+00 WtEn= 0.00D+00
 Coeff-Com: -0.421D-01 0.134D+00-0.291D+00 0.366D+00-0.535D+00 0.137D+01
 Coeff:     -0.421D-01 0.134D+00-0.291D+00 0.366D+00-0.535D+00 0.137D+01
 Gap=     0.528 Goal=   None    Shift=    0.000
 Gap=     0.528 Goal=   None    Shift=    0.000
 RMSDP=3.03D-06 MaxDP=1.21D-05 DE=-2.55D-08 OVMax= 0.00D+00

 Cycle   7  Pass 1  IDiag  1:
 Density matrix breaks symmetry, PCut= 1.00D-07
 Density matrix has no symmetry -- integrals replicated.
 E= -5.07574634570938     Delta-E=       -0.000000000154 Rises=F Damp=F
 DIIS: error= 6.42D-07 at cycle   7 NSaved=   7.
 NSaved= 7 IEnMin= 7 EnMin= -5.07574634570938     IErMin= 7 ErrMin= 6.42D-07
 ErrMax= 6.42D-07  0.00D+00 EMaxC= 1.00D-01 BMatC= 3.04D-11 BMatP= 1.32D-10
 IDIUse=1 WtCom= 1.00D+00 WtEn= 0.00D+00
 Coeff-Com:  0.381D-01-0.122D+00 0.265D+00-0.338D+00 0.512D+00-0.154D+01
 Coeff-Com:  0.219D+01
 Coeff:      0.381D-01-0.122D+00 0.265D+00-0.338D+00 0.512D+00-0.154D+01
 Coeff:      0.219D+01
 Gap=     0.528 Goal=   None    Shift=    0.000
 Gap=     0.528 Goal=   None    Shift=    0.000
 RMSDP=2.08D-06 MaxDP=7.59D-06 DE=-1.54D-10 OVMax= 0.00D+00

 Cycle   8  Pass 1  IDiag  1:
 Density matrix breaks symmetry, PCut= 1.00D-07
 Density matrix has no symmetry -- integrals replicated.
 E= -5.07574634576060     Delta-E=       -0.000000000051 Rises=F Damp=F
 DIIS: error= 3.12D-07 at cycle   8 NSaved=   8.
 NSaved= 8 IEnMin= 8 EnMin= -5.07574634576060     IErMin= 8 ErrMin= 3.12D-07
 ErrMax= 3.12D-07  0.00D+00 EMaxC= 1.00D-01 BMatC= 6.16D-12 BMatP= 3.04D-11
 IDIUse=1 WtCom= 1.00D+00 WtEn= 0.00D+00
 Coeff-Com: -0.347D-01 0.111D+00-0.243D+00 0.310D+00-0.474D+00 0.149D+01
 Coeff-Com: -0.262D+01 0.245D+01
 Coeff:     -0.347D-01 0.111D+00-0.243D+00 0.310D+00-0.474D+00 0.149D+01
 Coeff:     -0.262D+01 0.245D+01
 Gap=     0.528 Goal=   None    Shift=    0.000
 Gap=     0.528 Goal=   None    Shift=    0.000
 RMSDP=1.28D-06 MaxDP=5.21D-06 DE=-5.12D-11 OVMax= 0.00D+00

 Cycle   9  Pass 1  IDiag  1:
 Density matrix breaks symmetry, PCut= 1.00D-07
 Density matrix has no symmetry -- integrals replicated.
 E= -5.07574634577262     Delta-E=       -0.000000000012 Rises=F Damp=F
 DIIS: error= 3.74D-08 at cycle   9 NSaved=   9.
 NSaved= 9 IEnMin= 9 EnMin= -5.07574634577262     IErMin= 9 ErrMin= 3.74D-08
 ErrMax= 3.74D-08  0.00D+00 EMaxC= 1.00D-01 BMatC= 1.12D-13 BMatP= 6.16D-12
 IDIUse=1 WtCom= 1.00D+00 WtEn= 0.00D+00
 Coeff-Com:  0.133D-01-0.424D-01 0.929D-01-0.119D+00 0.181D+00-0.569D+00
 Coeff-Com:  0.104D+01-0.111D+01 0.150D+01
 Coeff:      0.133D-01-0.424D-01 0.929D-01-0.119D+00 0.181D+00-0.569D+00
 Coeff:      0.104D+01-0.111D+01 0.150D+01
 Gap=     0.528 Goal=   None    Shift=    0.000
 Gap=     0.528 Goal=   None    Shift=    0.000
 RMSDP=1.34D-07 MaxDP=6.12D-07 DE=-1.20D-11 OVMax= 0.00D+00

 Cycle  10  Pass 1  IDiag  1:
 Density matrix breaks symmetry, PCut= 1.00D-07
 Density matrix has no symmetry -- integrals replicated.
 E= -5.07574634577277     Delta-E=       -0.000000000000 Rises=F Damp=F
 DIIS: error= 4.27D-09 at cycle  10 NSaved=  10.
 NSaved=10 IEnMin=10 EnMin= -5.07574634577277     IErMin=10 ErrMin= 4.27D-09
 ErrMax= 4.27D-09  0.00D+00 EMaxC= 1.00D-01 BMatC= 9.74D-16 BMatP= 1.12D-13
 IDIUse=1 WtCom= 1.00D+00 WtEn= 0.00D+00
 Coeff-Com: -0.903D-03 0.289D-02-0.634D-02 0.808D-02-0.122D-01 0.369D-01
 Coeff-Com: -0.715D-01 0.820D-01-0.142D+00 0.110D+01
 Coeff:     -0.903D-03 0.289D-02-0.634D-02 0.808D-02-0.122D-01 0.369D-01
 Coeff:     -0.715D-01 0.820D-01-0.142D+00 0.110D+01
 Gap=     0.528 Goal=   None    Shift=    0.000
 Gap=     0.528 Goal=   None    Shift=    0.000
 RMSDP=7.73D-09 MaxDP=2.40D-08 DE=-1.56D-13 OVMax= 0.00D+00

 Density matrix breaks symmetry, PCut= 1.00D-07
 Density matrix has no symmetry -- integrals replicated.
 SCF Done:  E(UHF) =  -5.07574634577     A.U. after   10 cycles
            NFock= 10  Conv=0.77D-08     -V/T= 1.9398
 <Sx>= 0.0000 <Sy>= 0.0000 <Sz>= 0.0000 <S**2>= 1.0026 S= 0.6192
 <L.S>= 0.000000000000E+00
 KE= 5.400761335804D+00 PE=-3.303451636547D+01 EE= 1.093486989802D+01
 Annihilation of the first spin contaminant:
 S**2 before annihilation     1.0026,   after     0.0274
 Leave Link  502 at Fri Feb 24 16:25:43 2017, MaxMem=   134217728 cpu:         0.1
 (Enter /projects/guscus/apps/gau/g09-e1/g09/l601.exe)
 Copying SCF densities to generalized density rwf, IOpCl= 1 IROHF=0.

 **********************************************************************

            Population analysis using the SCF density.

 **********************************************************************

 Orbital symmetries:
 Alpha Orbitals:
       Occupied  (BG) (BG) (BG) (BG) (BG)
       Virtual   (BG) (BG) (BG) (BG) (BG)
 Beta  Orbitals:
       Occupied  (BG) (BG) (BG) (BG) (BG)
       Virtual   (BG) (BG) (BG) (BG) (BG)
 Unable to determine electronic state:  partially filled degenerate orbitals.
 Alpha  occ. eigenvalues --   -0.76501  -0.70149  -0.59688  -0.46519  -0.35344
 Alpha virt. eigenvalues --    0.17426   0.21103   0.29043   0.46075   0.63188
  Beta  occ. eigenvalues --   -0.76501  -0.70149  -0.59688  -0.46519  -0.35344
  Beta virt. eigenvalues --    0.17426   0.21103   0.29043   0.46075   0.63188
          Condensed to atoms (all electrons):
               1          2          3          4          5          6
     1  H    0.813501  -0.113691  -0.135404   0.540989   0.006429  -0.106716
     2  H   -0.113691   1.240668  -0.000890  -0.088243   0.000186   0.004332
     3  H   -0.135404  -0.000890   0.853346  -0.094231  -0.142759   0.608311
     4  H    0.540989  -0.088243  -0.094231   0.715000   0.002501  -0.121278
     5  H    0.006429   0.000186  -0.142759   0.002501   0.861187  -0.116095
     6  H   -0.106716   0.004332   0.608311  -0.121278  -0.116095   0.861187
     7  H   -0.000081  -0.000010   0.004792   0.000086  -0.121278   0.002501
     8  H    0.006070   0.000007  -0.108125   0.004792   0.608311  -0.142759
     9  H   -0.000006   0.000001   0.000007  -0.000010   0.004332   0.000186
    10  H   -0.000184  -0.000006   0.006070  -0.000081  -0.106716   0.006429
               7          8          9         10
     1  H   -0.000081   0.006070  -0.000006  -0.000184
     2  H   -0.000010   0.000007   0.000001  -0.000006
     3  H    0.004792  -0.108125   0.000007   0.006070
     4  H    0.000086   0.004792  -0.000010  -0.000081
     5  H   -0.121278   0.608311   0.004332  -0.106716
     6  H    0.002501  -0.142759   0.000186   0.006429
     7  H    0.715000  -0.094231  -0.088243   0.540989
     8  H   -0.094231   0.853346  -0.000890  -0.135404
     9  H   -0.088243  -0.000890   1.240668  -0.113691
    10  H    0.540989  -0.135404  -0.113691   0.813501
          Atomic-Atomic Spin Densities.
               1          2          3          4          5          6
     1  H    0.171718  -0.154542  -0.009744   0.073170   0.000638  -0.020577
     2  H   -0.154542   1.217176   0.007683  -0.126447  -0.000339   0.011323
     3  H   -0.009744   0.007683  -0.045884  -0.001074   0.009989   0.007521
     4  H    0.073170  -0.126447  -0.001074   0.041259   0.000304  -0.017448
     5  H    0.000638  -0.000339   0.009989   0.000304  -0.072792  -0.000000
     6  H   -0.020577   0.011323   0.007521  -0.017448  -0.000000   0.072792
     7  H    0.000007   0.000005  -0.000830   0.000000   0.017448  -0.000304
     8  H    0.001139  -0.000419  -0.000000   0.000830  -0.007521  -0.009989
     9  H   -0.000012   0.000000   0.000419  -0.000005  -0.011323   0.000339
    10  H   -0.000000   0.000012  -0.001139  -0.000007   0.020577  -0.000638
               7          8          9         10
     1  H    0.000007   0.001139  -0.000012  -0.000000
     2  H    0.000005  -0.000419   0.000000   0.000012
     3  H   -0.000830  -0.000000   0.000419  -0.001139
     4  H    0.000000   0.000830  -0.000005  -0.000007
     5  H    0.017448  -0.007521  -0.011323   0.020577
     6  H   -0.000304  -0.009989   0.000339  -0.000638
     7  H   -0.041259   0.001074   0.126447  -0.073170
     8  H    0.001074   0.045884  -0.007683   0.009744
     9  H    0.126447  -0.007683  -1.217176   0.154542
    10  H   -0.073170   0.009744   0.154542  -0.171718
 Mulliken charges and spin densities:
               1          2
     1  H   -0.010908   0.061796
     2  H   -0.042353   0.954454
     3  H    0.008884  -0.033059
     4  H    0.040475  -0.029418
     5  H    0.003903  -0.043019
     6  H    0.003903   0.043019
     7  H    0.040475   0.029418
     8  H    0.008884   0.033059
     9  H   -0.042353  -0.954454
    10  H   -0.010908  -0.061796
 Sum of Mulliken charges =   0.00000   0.00000
 Mulliken charges and spin densities with hydrogens summed into heavy atoms:
               1          2
 Electronic spatial extent (au):  <R**2>=            211.9170
 Charge=              0.0000 electrons
 Dipole moment (field-independent basis, Debye):
    X=             -0.0000    Y=              0.0000    Z=              0.0000  Tot=              0.0000
 Quadrupole moment (field-independent basis, Debye-Ang):
   XX=            -13.3091   YY=            -20.8893   ZZ=            -12.6802
   XY=              4.9379   XZ=              0.0000   YZ=             -0.0000
 Traceless Quadrupole moment (field-independent basis, Debye-Ang):
   XX=              2.3171   YY=             -5.2631   ZZ=              2.9460
   XY=              4.9379   XZ=              0.0000   YZ=             -0.0000
 Octapole moment (field-independent basis, Debye-Ang**2):
  XXX=             -0.0000  YYY=              0.0000  ZZZ=              0.0000  XYY=             -0.0000
  XXY=              0.0000  XXZ=              0.0000  XZZ=             -0.0000  YZZ=              0.0000
  YYZ=              0.0000  XYZ=             -0.0000
 Hexadecapole moment (field-independent basis, Debye-Ang**3):
 XXXX=           -109.2826 YYYY=           -444.1373 ZZZZ=            -15.1582 XXXY=             89.7900
 XXXZ=              0.0000 YYYX=            142.6631 YYYZ=             -0.0000 ZZZX=              0.0000
 ZZZY=             -0.0000 XXYY=            -99.1992 XXZZ=            -20.7949 YYZZ=            -55.8545
 XXYZ=             -0.0000 YYXZ=              0.0000 ZZXY=             26.8393
 N-N= 1.162313878587D+01 E-N=-3.303451636572D+01  KE= 5.400761335804D+00
 Symmetry AG   KE= 2.312303685193D+00
 Symmetry BG   KE= 0.000000000000D+00
 Symmetry AU   KE= 0.000000000000D+00
 Symmetry BU   KE= 3.088457650611D+00
                          Isotropic Fermi Contact Couplings
        Atom                 a.u.       MegaHertz       Gauss      10(-4) cm-1
     1  H(1)               0.04966     110.99651      39.60631      37.02445
     2  H(1)               0.35375     790.60668     282.10811     263.71800
     3  H(1)              -0.01231     -27.51446      -9.81784      -9.17784
     4  H(1)               0.01327      29.65094      10.58019       9.89049
     5  H(1)              -0.02000     -44.69551     -15.94847     -14.90882
     6  H(1)               0.02000      44.69551      15.94847      14.90882
     7  H(1)              -0.01327     -29.65094     -10.58019      -9.89049
     8  H(1)               0.01231      27.51446       9.81784       9.17784
     9  H(1)              -0.35375    -790.60668    -282.10811    -263.71800
    10  H(1)              -0.04966    -110.99651     -39.60631     -37.02445
 --------------------------------------------------------
       Center         ----  Spin Dipole Couplings  ----
                      3XX-RR        3YY-RR        3ZZ-RR
 --------------------------------------------------------
     1   Atom       -0.010290      0.037428     -0.027138
     2   Atom        0.005374     -0.017085      0.011711
     3   Atom        0.007833      0.005635     -0.013468
     4   Atom        0.021745      0.018404     -0.040149
     5   Atom        0.002404     -0.001897     -0.000508
     6   Atom       -0.002404      0.001897      0.000508
     7   Atom       -0.021745     -0.018404      0.040149
     8   Atom       -0.007833     -0.005635      0.013468
     9   Atom       -0.005374      0.017085     -0.011711
    10   Atom        0.010290     -0.037428      0.027138
 --------------------------------------------------------
                        XY            XZ            YZ
 --------------------------------------------------------
     1   Atom        0.000357     -0.000000     -0.000000
     2   Atom        0.008880     -0.000000      0.000000
     3   Atom       -0.002621     -0.000000     -0.000000
     4   Atom       -0.012646     -0.000000     -0.000000
     5   Atom        0.009393      0.000000      0.000000
     6   Atom       -0.009393      0.000000      0.000000
     7   Atom        0.012646     -0.000000      0.000000
     8   Atom        0.002621     -0.000000     -0.000000
     9   Atom       -0.008880      0.000000     -0.000000
    10   Atom       -0.000357     -0.000000      0.000000
 --------------------------------------------------------


 ---------------------------------------------------------------------------------
              Anisotropic Spin Dipole Couplings in Principal Axis System
 ---------------------------------------------------------------------------------

       Atom             a.u.   MegaHertz   Gauss  10(-4) cm-1        Axes

              Baa    -0.0271   -14.479    -5.167    -4.830  0.0000  0.0000  1.0000
     1 H(1)   Bbb    -0.0103    -5.492    -1.960    -1.832  1.0000 -0.0075  0.0000
              Bcc     0.0374    19.971     7.126     6.662  0.0075  1.0000  0.0000
 
              Baa    -0.0202   -10.763    -3.840    -3.590 -0.3283  0.9446  0.0000
     2 H(1)   Bbb     0.0085     4.514     1.611     1.506  0.9446  0.3283  0.0000
              Bcc     0.0117     6.249     2.230     2.084  0.0000  0.0000  1.0000
 
              Baa    -0.0135    -7.186    -2.564    -2.397  0.0000  0.0000  1.0000
     3 H(1)   Bbb     0.0039     2.076     0.741     0.693  0.5538  0.8327 -0.0000
              Bcc     0.0096     5.110     1.823     1.704  0.8327 -0.5538  0.0000
 
              Baa    -0.0401   -21.422    -7.644    -7.146  0.0000  0.0000  1.0000
     4 H(1)   Bbb     0.0073     3.905     1.393     1.303  0.6592  0.7520 -0.0000
              Bcc     0.0328    17.517     6.250     5.843  0.7520 -0.6592  0.0000
 
              Baa    -0.0094    -5.006    -1.786    -1.670 -0.6232  0.7820 -0.0000
     5 H(1)   Bbb    -0.0005    -0.271    -0.097    -0.090  0.0000  0.0000  1.0000
              Bcc     0.0099     5.277     1.883     1.760  0.7820  0.6232  0.0000
 
              Baa    -0.0099    -5.277    -1.883    -1.760  0.7820  0.6232  0.0000
     6 H(1)   Bbb     0.0005     0.271     0.097     0.090  0.0000  0.0000  1.0000
              Bcc     0.0094     5.006     1.786     1.670 -0.6232  0.7820  0.0000
 
              Baa    -0.0328   -17.517    -6.250    -5.843  0.7520 -0.6592  0.0000
     7 H(1)   Bbb    -0.0073    -3.905    -1.393    -1.303  0.6592  0.7520  0.0000
              Bcc     0.0401    21.422     7.644     7.146  0.0000  0.0000  1.0000
 
              Baa    -0.0096    -5.110    -1.823    -1.704  0.8327 -0.5538  0.0000
     8 H(1)   Bbb    -0.0039    -2.076    -0.741    -0.693  0.5538  0.8327 -0.0000
              Bcc     0.0135     7.186     2.564     2.397  0.0000  0.0000  1.0000
 
              Baa    -0.0117    -6.249    -2.230    -2.084  0.0000  0.0000  1.0000
     9 H(1)   Bbb    -0.0085    -4.514    -1.611    -1.506  0.9446  0.3283  0.0000
              Bcc     0.0202    10.763     3.840     3.590 -0.3283  0.9446  0.0000
 
              Baa    -0.0374   -19.971    -7.126    -6.662  0.0075  1.0000  0.0000
    10 H(1)   Bbb     0.0103     5.492     1.960     1.832  1.0000 -0.0075  0.0000
              Bcc     0.0271    14.479     5.167     4.830  0.0000  0.0000  1.0000
 

 ---------------------------------------------------------------------------------

 No NMR shielding tensors so no spin-rotation constants.
 Leave Link  601 at Fri Feb 24 16:25:44 2017, MaxMem=   134217728 cpu:         0.1
 (Enter /projects/guscus/apps/gau/g09-e1/g09/l801.exe)
 Range of M.O.s used for correlation:     1    10
 NBasis=    10 NAE=     5 NBE=     5 NFC=     0 NFV=     0
 NROrb=     10 NOA=     5 NOB=     5 NVA=     5 NVB=     5
 Leave Link  801 at Fri Feb 24 16:25:44 2017, MaxMem=   134217728 cpu:         0.0
 (Enter /projects/guscus/apps/gau/g09-e1/g09/l914.exe)
 UHF ground state
 Doing stability rather than CIS.
 MDV=   134217728 DFT=F DoStab=T Mixed=F DoRPA=F DoScal=F NonHer=F
 Keep R1 and R2 ints in memory in symmetry-blocked form, NReq=802982.
 FoFCou: FMM=F IPFlag=           0 FMFlag=           0 FMFlg1=           0
         NFxFlg=           0 DoJE=F BraDBF=F KetDBF=F FulRan=T
         wScrn=  0.000000 ICntrl=     600 IOpCl=  0 I1Cent=           0 NGrid=           0
         NMat0=    1 NMatS0=     55 NMatT0=    0 NMatD0=    1 NMtDS0=    0 NMtDT0=    0
 Petite list used in FoFCou.
 Making orbital integer symmetry assigments:
 Orbital symmetries:
 Alpha Orbitals:
       Occupied  (BG) (BG) (BG) (BG) (BG)
       Virtual   (BG) (BG) (BG) (BG) (BG)
 Beta  Orbitals:
       Occupied  (BG) (BG) (BG) (BG) (BG)
       Virtual   (BG) (BG) (BG) (BG) (BG)
    12 initial guesses have been made.
 Convergence on wavefunction:    0.001000000000000
 Davidson Disk Diagonalization:  ConvIn= 1.00D-03 SkipCon=T Conv= 1.00D-03.
 Max sub-space:   200 roots to seek:    12 dimension of matrix:           50
 Iteration     1 Dimension    12 NMult     0 NNew     12
 CISAX will form    12 AO SS matrices at one time.
 NMat=    12 NSing=    12 JSym2X= 2.
 Excitation Energies [eV] at current iteration:
 Root      1 :     4.910957742838387
 Root      2 :     6.678501833308199
 Root      3 :     9.090847941035543
 Root      4 :    10.227579013896100
 Root      5 :    11.768911800962590
 Root      6 :    12.131043352015110
 Root      7 :    12.617011152648490
 Root      8 :    12.727172231061220
 Root      9 :    13.352496181135350
 Root     10 :    14.231464160433330
 Root     11 :    15.373637273059560
 Root     12 :    15.634399410538750
 Iteration     2 Dimension    24 NMult    12 NNew     12
 CISAX will form    12 AO SS matrices at one time.
 NMat=    12 NSing=    12 JSym2X= 2.
 Root      1 not converged, maximum delta is    0.155873326168694
 Excitation Energies [eV] at current iteration:
 Root      1 :     2.281218257828862   Change is   -2.629739485009525
 Root      2 :     3.892338354742921   Change is   -2.786163478565278
 Root      3 :     6.806765418655642   Change is   -3.420813595240452
 Root      4 :     8.475079411628915   Change is   -0.615768529406628
 Root      5 :    10.746122963552740   Change is   -1.384920388462369
 Root      6 :    10.757132014413870   Change is   -1.011779786548716
 Root      7 :    11.267029858272470   Change is   -1.349981294376023
 Root      8 :    11.368501376004260   Change is   -1.358670855056956
 Root      9 :    12.045966696908600   Change is   -1.306529484226755
 Root     10 :    12.526410401187660   Change is   -1.705053759245671
 Root     11 :    13.980675607854720   Change is   -1.392961665204838
 Root     12 :    14.004203241113730   Change is   -1.630196169425016
 Iteration     3 Dimension    27 NMult    24 NNew      3
 CISAX will form     3 AO SS matrices at one time.
 NMat=     3 NSing=     3 JSym2X= 2.
 Root      1 not converged, maximum delta is    0.012887327404213
 Excitation Energies [eV] at current iteration:
 Root      1 :     2.250628220291744   Change is   -0.030590037537118
 Root      2 :     3.823428266360631   Change is   -0.068910088382290
 Root      3 :     5.428417561105286   Change is   -1.378347857550356
 Iteration     4 Dimension    30 NMult    27 NNew      3
 CISAX will form     3 AO SS matrices at one time.
 NMat=     3 NSing=     3 JSym2X= 2.
 Root      1 not converged, maximum delta is    0.001680744766487
 Excitation Energies [eV] at current iteration:
 Root      1 :     2.250460243410823   Change is   -0.000167976880921
 Root      2 :     3.821790575237345   Change is   -0.001637691123286
 Root      3 :     5.402258545870692   Change is   -0.026159015234594
 Iteration     5 Dimension    33 NMult    30 NNew      3
 CISAX will form     3 AO SS matrices at one time.
 NMat=     3 NSing=     3 JSym2X= 2.
 Root      1 has converged.
 Excitation Energies [eV] at current iteration:
 Root      1 :     2.250459558320635   Change is   -0.000000685090188
 Root      2 :     3.821090216462024   Change is   -0.000700358775321
 Root      3 :     5.401911710079085   Change is   -0.000346835791607
 Convergence achieved on expansion vectors.
 ***********************************************************************
 Stability analysis using <AA,BB:AA,BB> singles matrix:
 ***********************************************************************

 Eigenvectors of the stability matrix:
 
 Eigenvector   1:  3.481-AG   Eigenvalue= 0.0827029  <S**2>=2.779
      1A -> 10A        0.13676
      2A ->  9A       -0.11995
      3A ->  8A        0.16619
      4A ->  6A       -0.35161
      4A ->  8A       -0.11950
      5A ->  6A        0.48628
      5A ->  7A       -0.13718
      1B -> 10B       -0.13676
      2B ->  9B        0.11995
      3B ->  8B       -0.16619
      4B ->  6B        0.35161
      4B ->  8B        0.11950
      5B ->  6B       -0.48628
      5B ->  7B        0.13718
 SavETr:  write IOETrn=   770 NScale= 10 NData=  16 NLR=1 NState=    1 LETran=      28.
 The wavefunction is stable under the perturbations considered.
 Leave Link  914 at Fri Feb 24 16:25:44 2017, MaxMem=   134217728 cpu:         0.1
 (Enter /projects/guscus/apps/gau/g09-e1/g09/l508.exe)
 The wavefunction is already stable.
 Leave Link  508 at Fri Feb 24 16:25:44 2017, MaxMem=   134217728 cpu:         0.0
 (Enter /projects/guscus/apps/gau/g09-e1/g09/l601.exe)
 Copying SCF densities to generalized density rwf, IOpCl= 1 IROHF=0.

 **********************************************************************

            Population analysis using the SCF density.

 **********************************************************************

 Orbital symmetries:
 Alpha Orbitals:
       Occupied  (BG) (BG) (BG) (BG) (BG)
       Virtual   (BG) (BG) (BG) (BG) (BG)
 Beta  Orbitals:
       Occupied  (BG) (BG) (BG) (BG) (BG)
       Virtual   (BG) (BG) (BG) (BG) (BG)
 Unable to determine electronic state:  partially filled degenerate orbitals.
 Alpha  occ. eigenvalues --   -0.76501  -0.70149  -0.59688  -0.46519  -0.35344
 Alpha virt. eigenvalues --    0.17426   0.21103   0.29043   0.46075   0.63188
  Beta  occ. eigenvalues --   -0.76501  -0.70149  -0.59688  -0.46519  -0.35344
  Beta virt. eigenvalues --    0.17426   0.21103   0.29043   0.46075   0.63188
          Condensed to atoms (all electrons):
               1          2          3          4          5          6
     1  H    0.813501  -0.113691  -0.135404   0.540989   0.006429  -0.106716
     2  H   -0.113691   1.240668  -0.000890  -0.088243   0.000186   0.004332
     3  H   -0.135404  -0.000890   0.853346  -0.094231  -0.142759   0.608311
     4  H    0.540989  -0.088243  -0.094231   0.715000   0.002501  -0.121278
     5  H    0.006429   0.000186  -0.142759   0.002501   0.861187  -0.116095
     6  H   -0.106716   0.004332   0.608311  -0.121278  -0.116095   0.861187
     7  H   -0.000081  -0.000010   0.004792   0.000086  -0.121278   0.002501
     8  H    0.006070   0.000007  -0.108125   0.004792   0.608311  -0.142759
     9  H   -0.000006   0.000001   0.000007  -0.000010   0.004332   0.000186
    10  H   -0.000184  -0.000006   0.006070  -0.000081  -0.106716   0.006429
               7          8          9         10
     1  H   -0.000081   0.006070  -0.000006  -0.000184
     2  H   -0.000010   0.000007   0.000001  -0.000006
     3  H    0.004792  -0.108125   0.000007   0.006070
     4  H    0.000086   0.004792  -0.000010  -0.000081
     5  H   -0.121278   0.608311   0.004332  -0.106716
     6  H    0.002501  -0.142759   0.000186   0.006429
     7  H    0.715000  -0.094231  -0.088243   0.540989
     8  H   -0.094231   0.853346  -0.000890  -0.135404
     9  H   -0.088243  -0.000890   1.240668  -0.113691
    10  H    0.540989  -0.135404  -0.113691   0.813501
          Atomic-Atomic Spin Densities.
               1          2          3          4          5          6
     1  H    0.171718  -0.154542  -0.009744   0.073170   0.000638  -0.020577
     2  H   -0.154542   1.217176   0.007683  -0.126447  -0.000339   0.011323
     3  H   -0.009744   0.007683  -0.045884  -0.001074   0.009989   0.007521
     4  H    0.073170  -0.126447  -0.001074   0.041259   0.000304  -0.017448
     5  H    0.000638  -0.000339   0.009989   0.000304  -0.072792  -0.000000
     6  H   -0.020577   0.011323   0.007521  -0.017448  -0.000000   0.072792
     7  H    0.000007   0.000005  -0.000830   0.000000   0.017448  -0.000304
     8  H    0.001139  -0.000419  -0.000000   0.000830  -0.007521  -0.009989
     9  H   -0.000012   0.000000   0.000419  -0.000005  -0.011323   0.000339
    10  H   -0.000000   0.000012  -0.001139  -0.000007   0.020577  -0.000638
               7          8          9         10
     1  H    0.000007   0.001139  -0.000012  -0.000000
     2  H    0.000005  -0.000419   0.000000   0.000012
     3  H   -0.000830  -0.000000   0.000419  -0.001139
     4  H    0.000000   0.000830  -0.000005  -0.000007
     5  H    0.017448  -0.007521  -0.011323   0.020577
     6  H   -0.000304  -0.009989   0.000339  -0.000638
     7  H   -0.041259   0.001074   0.126447  -0.073170
     8  H    0.001074   0.045884  -0.007683   0.009744
     9  H    0.126447  -0.007683  -1.217176   0.154542
    10  H   -0.073170   0.009744   0.154542  -0.171718
 Mulliken charges and spin densities:
               1          2
     1  H   -0.010908   0.061796
     2  H   -0.042353   0.954454
     3  H    0.008884  -0.033059
     4  H    0.040475  -0.029418
     5  H    0.003903  -0.043019
     6  H    0.003903   0.043019
     7  H    0.040475   0.029418
     8  H    0.008884   0.033059
     9  H   -0.042353  -0.954454
    10  H   -0.010908  -0.061796
 Sum of Mulliken charges =   0.00000   0.00000
 Mulliken charges and spin densities with hydrogens summed into heavy atoms:
               1          2
 Electronic spatial extent (au):  <R**2>=            211.9170
 Charge=              0.0000 electrons
 Dipole moment (field-independent basis, Debye):
    X=             -0.0000    Y=              0.0000    Z=              0.0000  Tot=              0.0000
 Quadrupole moment (field-independent basis, Debye-Ang):
   XX=            -13.3091   YY=            -20.8893   ZZ=            -12.6802
   XY=              4.9379   XZ=              0.0000   YZ=             -0.0000
 Traceless Quadrupole moment (field-independent basis, Debye-Ang):
   XX=              2.3171   YY=             -5.2631   ZZ=              2.9460
   XY=              4.9379   XZ=              0.0000   YZ=             -0.0000
 Octapole moment (field-independent basis, Debye-Ang**2):
  XXX=             -0.0000  YYY=              0.0000  ZZZ=              0.0000  XYY=             -0.0000
  XXY=              0.0000  XXZ=              0.0000  XZZ=             -0.0000  YZZ=              0.0000
  YYZ=              0.0000  XYZ=             -0.0000
 Hexadecapole moment (field-independent basis, Debye-Ang**3):
 XXXX=           -109.2826 YYYY=           -444.1373 ZZZZ=            -15.1582 XXXY=             89.7900
 XXXZ=              0.0000 YYYX=            142.6631 YYYZ=             -0.0000 ZZZX=              0.0000
 ZZZY=             -0.0000 XXYY=            -99.1992 XXZZ=            -20.7949 YYZZ=            -55.8545
 XXYZ=             -0.0000 YYXZ=              0.0000 ZZXY=             26.8393
 N-N= 1.162313878587D+01 E-N=-3.303451636572D+01  KE= 5.400761335804D+00
 Symmetry AG   KE= 2.312303685193D+00
 Symmetry BG   KE= 0.000000000000D+00
 Symmetry AU   KE= 0.000000000000D+00
 Symmetry BU   KE= 3.088457650611D+00
                          Isotropic Fermi Contact Couplings
        Atom                 a.u.       MegaHertz       Gauss      10(-4) cm-1
     1  H(1)               0.04966     110.99651      39.60631      37.02445
     2  H(1)               0.35375     790.60668     282.10811     263.71800
     3  H(1)              -0.01231     -27.51446      -9.81784      -9.17784
     4  H(1)               0.01327      29.65094      10.58019       9.89049
     5  H(1)              -0.02000     -44.69551     -15.94847     -14.90882
     6  H(1)               0.02000      44.69551      15.94847      14.90882
     7  H(1)              -0.01327     -29.65094     -10.58019      -9.89049
     8  H(1)               0.01231      27.51446       9.81784       9.17784
     9  H(1)              -0.35375    -790.60668    -282.10811    -263.71800
    10  H(1)              -0.04966    -110.99651     -39.60631     -37.02445
 --------------------------------------------------------
       Center         ----  Spin Dipole Couplings  ----
                      3XX-RR        3YY-RR        3ZZ-RR
 --------------------------------------------------------
     1   Atom       -0.010290      0.037428     -0.027138
     2   Atom        0.005374     -0.017085      0.011711
     3   Atom        0.007833      0.005635     -0.013468
     4   Atom        0.021745      0.018404     -0.040149
     5   Atom        0.002404     -0.001897     -0.000508
     6   Atom       -0.002404      0.001897      0.000508
     7   Atom       -0.021745     -0.018404      0.040149
     8   Atom       -0.007833     -0.005635      0.013468
     9   Atom       -0.005374      0.017085     -0.011711
    10   Atom        0.010290     -0.037428      0.027138
 --------------------------------------------------------
                        XY            XZ            YZ
 --------------------------------------------------------
     1   Atom        0.000357     -0.000000     -0.000000
     2   Atom        0.008880     -0.000000      0.000000
     3   Atom       -0.002621     -0.000000     -0.000000
     4   Atom       -0.012646     -0.000000     -0.000000
     5   Atom        0.009393      0.000000      0.000000
     6   Atom       -0.009393      0.000000      0.000000
     7   Atom        0.012646     -0.000000      0.000000
     8   Atom        0.002621     -0.000000     -0.000000
     9   Atom       -0.008880      0.000000     -0.000000
    10   Atom       -0.000357     -0.000000      0.000000
 --------------------------------------------------------


 ---------------------------------------------------------------------------------
              Anisotropic Spin Dipole Couplings in Principal Axis System
 ---------------------------------------------------------------------------------

       Atom             a.u.   MegaHertz   Gauss  10(-4) cm-1        Axes

              Baa    -0.0271   -14.479    -5.167    -4.830  0.0000  0.0000  1.0000
     1 H(1)   Bbb    -0.0103    -5.492    -1.960    -1.832  1.0000 -0.0075  0.0000
              Bcc     0.0374    19.971     7.126     6.662  0.0075  1.0000  0.0000
 
              Baa    -0.0202   -10.763    -3.840    -3.590 -0.3283  0.9446  0.0000
     2 H(1)   Bbb     0.0085     4.514     1.611     1.506  0.9446  0.3283  0.0000
              Bcc     0.0117     6.249     2.230     2.084  0.0000  0.0000  1.0000
 
              Baa    -0.0135    -7.186    -2.564    -2.397  0.0000  0.0000  1.0000
     3 H(1)   Bbb     0.0039     2.076     0.741     0.693  0.5538  0.8327 -0.0000
              Bcc     0.0096     5.110     1.823     1.704  0.8327 -0.5538  0.0000
 
              Baa    -0.0401   -21.422    -7.644    -7.146  0.0000  0.0000  1.0000
     4 H(1)   Bbb     0.0073     3.905     1.393     1.303  0.6592  0.7520 -0.0000
              Bcc     0.0328    17.517     6.250     5.843  0.7520 -0.6592  0.0000
 
              Baa    -0.0094    -5.006    -1.786    -1.670 -0.6232  0.7820 -0.0000
     5 H(1)   Bbb    -0.0005    -0.271    -0.097    -0.090  0.0000  0.0000  1.0000
              Bcc     0.0099     5.277     1.883     1.760  0.7820  0.6232  0.0000
 
              Baa    -0.0099    -5.277    -1.883    -1.760  0.7820  0.6232  0.0000
     6 H(1)   Bbb     0.0005     0.271     0.097     0.090  0.0000  0.0000  1.0000
              Bcc     0.0094     5.006     1.786     1.670 -0.6232  0.7820  0.0000
 
              Baa    -0.0328   -17.517    -6.250    -5.843  0.7520 -0.6592  0.0000
     7 H(1)   Bbb    -0.0073    -3.905    -1.393    -1.303  0.6592  0.7520  0.0000
              Bcc     0.0401    21.422     7.644     7.146  0.0000  0.0000  1.0000
 
              Baa    -0.0096    -5.110    -1.823    -1.704  0.8327 -0.5538  0.0000
     8 H(1)   Bbb    -0.0039    -2.076    -0.741    -0.693  0.5538  0.8327 -0.0000
              Bcc     0.0135     7.186     2.564     2.397  0.0000  0.0000  1.0000
 
              Baa    -0.0117    -6.249    -2.230    -2.084  0.0000  0.0000  1.0000
     9 H(1)   Bbb    -0.0085    -4.514    -1.611    -1.506  0.9446  0.3283  0.0000
              Bcc     0.0202    10.763     3.840     3.590 -0.3283  0.9446  0.0000
 
              Baa    -0.0374   -19.971    -7.126    -6.662  0.0075  1.0000  0.0000
    10 H(1)   Bbb     0.0103     5.492     1.960     1.832  1.0000 -0.0075  0.0000
              Bcc     0.0271    14.479     5.167     4.830  0.0000  0.0000  1.0000
 

 ---------------------------------------------------------------------------------

 No NMR shielding tensors so no spin-rotation constants.
 Leave Link  601 at Fri Feb 24 16:25:44 2017, MaxMem=   134217728 cpu:         0.1
 (Enter /projects/guscus/apps/gau/g09-e1/g09/l9999.exe)

 Test job not archived.
 1\1\GINC-SULU\Stability\UHF\Gen\H10\LCJ1\24-Feb-2017\0\\#p uhf/gen scf
 (tight,novaracc,noincfock,fulldiag ) stable=opt guess=(read) geom=nocr
 owd test\\hf stability analysis of h10 triangular lattice, y= 0.404195
 08078838223 alpha= 15.800000000000001\\0,1\H\H,1,1.4844817948\H,1,1.48
 44817948,2,148.4\H,2,1.4844817948,1,31.6,3,0.,0\H,3,1.4844817948,1,180
 .,2,0.,0\H,4,1.4844817948,2,180.,1,0.,0\H,5,1.4844817948,3,180.,2,0.,0
 \H,6,1.4844817948,4,180.,1,0.,0\H,7,1.4844817948,5,180.,2,0.,0\H,8,1.4
 844817948,6,180.,1,0.,0\\Version=ES64L-G09RevE.01\HF=-5.0757463\S2=1.0
 02608\S2-1=0.\S2A=0.027363\RMSD=7.730e-09\Dipole=0.,0.,0.\Quadrupole=1
 .7227062,2.190271,-3.9129772,0.,3.6711931,0.\PG=C02H [SGH(H10)]\\@


 IT IS THE GODS' CUSTOM TO BRING LOW ALL THINGS OF SURPASSING GREATNESS.
     -- HERODOTUS
 IT IS THE LOFTY PINE THAT BY THE STORM IS OFTENER TOSSED;
 TOWERS FALL WITH HEAVIER CRASH WHICH HIGHER SOAR.
     -- HORACE
 THE BIGGER THEY COME, THE HARDER THEY FALL.
     -- BOB FITZSIMONS HEAVYWEIGHT CHAMPION, 1897-1899
 Job cpu time:       0 days  0 hours  0 minutes  0.9 seconds.
 File lengths (MBytes):  RWF=     82 Int=      0 D2E=      0 Chk=      2 Scr=      2
 Normal termination of Gaussian 09 at Fri Feb 24 16:25:44 2017.
