 Entering Gaussian System, Link 0=g09
 AtFile(1): H.gbs
            H     0
            S   10   1.00
               1000.000000000000            0.000068713567
                316.227766000000            0.000169141320
                100.000000000000            0.000823394812
                 31.622776600000            0.003425569236
                 10.000000000000            0.013951996000
                  3.162277660000            0.056909313560
                  1.000000000000            0.198286399900
                  0.316227766000            0.496922426700
                  0.100000000000            0.369846276400
                  0.031622776600            0.003752720039
            ****
 Initial command:
 /projects/guscus/apps/gau/g09-e1/g09/l1.exe "/users/lcj1/gaussian/h10/2rows_uhf/ag2bu3/singlet/follow20/test/Gau-29099.inp" -scrdir="/users/lcj1/gaussian/h10/2rows_uhf/ag2bu3/singlet/follow20/test/"
 Entering Link 1 = /projects/guscus/apps/gau/g09-e1/g09/l1.exe PID=     29100.
  
 Copyright (c) 1988,1990,1992,1993,1995,1998,2003,2009,2015,
            Gaussian, Inc.  All Rights Reserved.
  
 This is part of the Gaussian(R) 09 program.  It is based on
 the Gaussian(R) 03 system (copyright 2003, Gaussian, Inc.),
 the Gaussian(R) 98 system (copyright 1998, Gaussian, Inc.),
 the Gaussian(R) 94 system (copyright 1995, Gaussian, Inc.),
 the Gaussian 92(TM) system (copyright 1992, Gaussian, Inc.),
 the Gaussian 90(TM) system (copyright 1990, Gaussian, Inc.),
 the Gaussian 88(TM) system (copyright 1988, Gaussian, Inc.),
 the Gaussian 86(TM) system (copyright 1986, Carnegie Mellon
 University), and the Gaussian 82(TM) system (copyright 1983,
 Carnegie Mellon University). Gaussian is a federally registered
 trademark of Gaussian, Inc.
  
 This software contains proprietary and confidential information,
 including trade secrets, belonging to Gaussian, Inc.
  
 This software is provided under written license and may be
 used, copied, transmitted, or stored only in accord with that
 written license.
  
 The following legend is applicable only to US Government
 contracts under FAR:
  
                    RESTRICTED RIGHTS LEGEND
  
 Use, reproduction and disclosure by the US Government is
 subject to restrictions as set forth in subparagraphs (a)
 and (c) of the Commercial Computer Software - Restricted
 Rights clause in FAR 52.227-19.
  
 Gaussian, Inc.
 340 Quinnipiac St., Bldg. 40, Wallingford CT 06492
  
  
 ---------------------------------------------------------------
 Warning -- This program may not be used in any manner that
 competes with the business of Gaussian, Inc. or will provide
 assistance to any competitor of Gaussian, Inc.  The licensee
 of this program is prohibited from giving any competitor of
 Gaussian, Inc. access to this program.  By using this program,
 the user acknowledges that Gaussian, Inc. is engaged in the
 business of creating and licensing software in the field of
 computational chemistry and represents and warrants to the
 licensee that it is not a competitor of Gaussian, Inc. and that
 it will not use this program in any manner prohibited above.
 ---------------------------------------------------------------
  

 Cite this work as:
 Gaussian 09, Revision E.01,
 M. J. Frisch, G. W. Trucks, H. B. Schlegel, G. E. Scuseria, 
 M. A. Robb, J. R. Cheeseman, G. Scalmani, V. Barone, B. Mennucci, 
 G. A. Petersson, H. Nakatsuji, M. Caricato, X. Li, H. P. Hratchian, 
 A. F. Izmaylov, J. Bloino, G. Zheng, J. L. Sonnenberg, M. Hada, 
 M. Ehara, K. Toyota, R. Fukuda, J. Hasegawa, M. Ishida, T. Nakajima, 
 Y. Honda, O. Kitao, H. Nakai, T. Vreven, J. A. Montgomery, Jr., 
 J. E. Peralta, F. Ogliaro, M. Bearpark, J. J. Heyd, E. Brothers, 
 K. N. Kudin, V. N. Staroverov, T. Keith, R. Kobayashi, J. Normand, 
 K. Raghavachari, A. Rendell, J. C. Burant, S. S. Iyengar, J. Tomasi, 
 M. Cossi, N. Rega, J. M. Millam, M. Klene, J. E. Knox, J. B. Cross, 
 V. Bakken, C. Adamo, J. Jaramillo, R. Gomperts, R. E. Stratmann, 
 O. Yazyev, A. J. Austin, R. Cammi, C. Pomelli, J. W. Ochterski, 
 R. L. Martin, K. Morokuma, V. G. Zakrzewski, G. A. Voth, 
 P. Salvador, J. J. Dannenberg, S. Dapprich, A. D. Daniels, 
 O. Farkas, J. B. Foresman, J. V. Ortiz, J. Cioslowski, 
 and D. J. Fox, Gaussian, Inc., Wallingford CT, 2013.
 
 ******************************************
 Gaussian 09:  ES64L-G09RevE.01 30-Nov-2015
                24-Feb-2017 
 ******************************************
 %chk=h10.chk
 ----------------------------------------------------------------------
 #p uhf/gen scf(tight,novaracc,noincfock,fulldiag ) stable=opt guess=(r
 ead) geom=nocrowd test
 ----------------------------------------------------------------------
 1/38=1/1;
 2/12=1,17=6,18=5,40=1/2;
 3/5=7,11=2,16=1,25=1,30=1,116=2/1,2,3;
 4/5=1/1;
 5/5=100002,16=1,32=2,38=6/2;
 6/7=2,8=2,9=2,10=2,28=1/1;
 8/6=1,10=90,11=11/1;
 9/8=-3,42=1,46=1/14;
 5/5=100002,8=3,16=1,17=40,32=2,38=6/8(-2);
 6/7=2,8=2,9=2,10=2,28=1/1;
 99/5=1,9=1/99;
 Leave Link    1 at Fri Feb 24 16:26:13 2017, MaxMem=           0 cpu:         0.0
 (Enter /projects/guscus/apps/gau/g09-e1/g09/l101.exe)
 ----------------------------------------------------------------------
 hf stability analysis of h10 triangular lattice, y= 0.4407945531239719
 8 alpha= 18.600000000000001
 ----------------------------------------------------------------------
 Symbolic Z-matrix:
 Charge =  0 Multiplicity = 1
 H
 H                    1     1.38198 
 H                    1     1.38198  2     142.8 
 H                    2     1.38198  1     37.2     3     0.       0
 H                    3     1.38198  1     180.     2     0.       0
 H                    4     1.38198  2     180.     1     0.       0
 H                    5     1.38198  3     180.     2     0.       0
 H                    6     1.38198  4     180.     1     0.       0
 H                    7     1.38198  5     180.     2     0.       0
 H                    8     1.38198  6     180.     1     0.       0
 
 NAtoms=     10 NQM=       10 NQMF=       0 NMMI=      0 NMMIF=      0
                NMic=       0 NMicF=      0.
                    Isotopes and Nuclear Properties:
 (Nuclear quadrupole moments (NQMom) in fm**2, nuclear magnetic moments (NMagM)
  in nuclear magnetons)

  Atom         1           2           3           4           5           6           7           8           9          10
 IAtWgt=           1           1           1           1           1           1           1           1           1           1
 AtmWgt=   1.0078250   1.0078250   1.0078250   1.0078250   1.0078250   1.0078250   1.0078250   1.0078250   1.0078250   1.0078250
 NucSpn=           1           1           1           1           1           1           1           1           1           1
 AtZEff=   0.0000000   0.0000000   0.0000000   0.0000000   0.0000000   0.0000000   0.0000000   0.0000000   0.0000000   0.0000000
 NQMom=    0.0000000   0.0000000   0.0000000   0.0000000   0.0000000   0.0000000   0.0000000   0.0000000   0.0000000   0.0000000
 NMagM=    2.7928460   2.7928460   2.7928460   2.7928460   2.7928460   2.7928460   2.7928460   2.7928460   2.7928460   2.7928460
 AtZNuc=   1.0000000   1.0000000   1.0000000   1.0000000   1.0000000   1.0000000   1.0000000   1.0000000   1.0000000   1.0000000
 Leave Link  101 at Fri Feb 24 16:26:13 2017, MaxMem=   134217728 cpu:         0.0
 (Enter /projects/guscus/apps/gau/g09-e1/g09/l202.exe)
                          Input orientation:                          
 ---------------------------------------------------------------------
 Center     Atomic      Atomic             Coordinates (Angstroms)
 Number     Number       Type             X           Y           Z
 ---------------------------------------------------------------------
      1          1           0        0.000000    0.000000    0.000000
      2          1           0        0.000000    0.000000    1.381977
      3          1           0        0.835542    0.000000   -1.100786
      4          1           0        0.835542    0.000000    0.281191
      5          1           0        1.671085    0.000000   -2.201573
      6          1           0        1.671085    0.000000   -0.819595
      7          1           0        2.506627    0.000000   -3.302359
      8          1           0        2.506627    0.000000   -1.920382
      9          1           0        3.342169    0.000000   -4.403145
     10          1           0        3.342169    0.000000   -3.021168
 ---------------------------------------------------------------------
                    Distance matrix (angstroms):
                    1          2          3          4          5
     1  H    0.000000
     2  H    1.381977   0.000000
     3  H    1.381977   2.619589   0.000000
     4  H    0.881589   1.381977   1.381977   0.000000
     5  H    2.763955   3.954030   1.381977   2.619589   0.000000
     6  H    1.861252   2.763955   0.881589   1.381977   1.381977
     7  H    4.145932   5.312832   2.763955   3.954030   1.381977
     8  H    3.157696   4.145932   1.861252   2.763955   0.881589
     9  H    5.527909   6.681148   4.145932   5.312832   2.763955
    10  H    4.505280   5.527909   3.157696   4.145932   1.861252
                    6          7          8          9         10
     6  H    0.000000
     7  H    2.619589   0.000000
     8  H    1.381977   1.381977   0.000000
     9  H    3.954030   1.381977   2.619589   0.000000
    10  H    2.763955   0.881589   1.381977   1.381977   0.000000
 Stoichiometry    H10
 Framework group  C2H[SGH(H10)]
 Deg. of freedom     9
 Full point group                 C2H     NOp   4
 Largest Abelian subgroup         C2H     NOp   4
 Largest concise Abelian subgroup C2      NOp   2
                         Standard orientation:                         
 ---------------------------------------------------------------------
 Center     Atomic      Atomic             Coordinates (Angstroms)
 Number     Number       Type             X           Y           Z
 ---------------------------------------------------------------------
      1          1           0        1.671085   -1.510584    0.000000
      2          1           0        1.671085   -2.892561    0.000000
      3          1           0        0.835542   -0.409798    0.000000
      4          1           0        0.835542   -1.791775    0.000000
      5          1           0        0.000000    0.690989   -0.000000
      6          1           0       -0.000000   -0.690989   -0.000000
      7          1           0       -0.835542    1.791775    0.000000
      8          1           0       -0.835542    0.409798    0.000000
      9          1           0       -1.671085    2.892561    0.000000
     10          1           0       -1.671085    1.510584    0.000000
 ---------------------------------------------------------------------
 Rotational constants (GHZ):    311.1029017     12.1241506     11.6693774
 Leave Link  202 at Fri Feb 24 16:26:14 2017, MaxMem=   134217728 cpu:         0.0
 (Enter /projects/guscus/apps/gau/g09-e1/g09/l301.exe)
 General basis read from cards:  (5D, 7F)
 Centers:       1      2      3      4      5      6      7      8      9     10
 S 10 1.00
     Exponent=  1.0000000000D+03 Coefficients=  6.8713567000D-05
     Exponent=  3.1622776600D+02 Coefficients=  1.6914132000D-04
     Exponent=  1.0000000000D+02 Coefficients=  8.2339481200D-04
     Exponent=  3.1622776600D+01 Coefficients=  3.4255692360D-03
     Exponent=  1.0000000000D+01 Coefficients=  1.3951996000D-02
     Exponent=  3.1622776600D+00 Coefficients=  5.6909313560D-02
     Exponent=  1.0000000000D+00 Coefficients=  1.9828639990D-01
     Exponent=  3.1622776600D-01 Coefficients=  4.9692242670D-01
     Exponent=  1.0000000000D-01 Coefficients=  3.6984627640D-01
     Exponent=  3.1622776600D-02 Coefficients=  3.7527200390D-03
 ****
 Ernie: Thresh=  0.10000D-02 Tol=  0.10000D-05 Strict=F.
 There are     5 symmetry adapted cartesian basis functions of AG  symmetry.
 There are     0 symmetry adapted cartesian basis functions of BG  symmetry.
 There are     0 symmetry adapted cartesian basis functions of AU  symmetry.
 There are     5 symmetry adapted cartesian basis functions of BU  symmetry.
 There are     5 symmetry adapted basis functions of AG  symmetry.
 There are     0 symmetry adapted basis functions of BG  symmetry.
 There are     0 symmetry adapted basis functions of AU  symmetry.
 There are     5 symmetry adapted basis functions of BU  symmetry.
    10 basis functions,   100 primitive gaussians,    10 cartesian basis functions
     5 alpha electrons        5 beta electrons
       nuclear repulsion energy        12.0231328079 Hartrees.
 IExCor=    0 DFT=F Ex=HF Corr=None ExCW=0 ScaHFX=  1.000000
 ScaDFX=  1.000000  1.000000  1.000000  1.000000 ScalE2=  1.000000  1.000000
 IRadAn=      0 IRanWt=     -1 IRanGd=            0 ICorTp=0 IEmpDi=  4
 NAtoms=   10 NActive=   10 NUniq=    5 SFac= 4.00D+00 NAtFMM=   60 NAOKFM=F Big=F
 Integral buffers will be    131072 words long.
 Raffenetti 2 integral format.
 Two-electron integral symmetry is turned on.
 Leave Link  301 at Fri Feb 24 16:26:14 2017, MaxMem=   134217728 cpu:         0.0
 (Enter /projects/guscus/apps/gau/g09-e1/g09/l302.exe)
 NPDir=0 NMtPBC=     1 NCelOv=     1 NCel=       1 NClECP=     1 NCelD=      1
         NCelK=      1 NCelE2=     1 NClLst=     1 CellRange=     0.0.
 One-electron integrals computed using PRISM.
 One-electron integral symmetry used in STVInt
 NBasis=    10 RedAO= T EigKep=  1.83D-01  NBF=     5     0     0     5
 NBsUse=    10 1.00D-06 EigRej= -1.00D+00 NBFU=     5     0     0     5
 Leave Link  302 at Fri Feb 24 16:26:14 2017, MaxMem=   134217728 cpu:         0.1
 (Enter /projects/guscus/apps/gau/g09-e1/g09/l303.exe)
 DipDrv:  MaxL=1.
 Leave Link  303 at Fri Feb 24 16:26:14 2017, MaxMem=   134217728 cpu:         0.0
 (Enter /projects/guscus/apps/gau/g09-e1/g09/l401.exe)
 Initial guess from the checkpoint file:  "h10.chk"
 B after Tr=     0.000000   -0.000000    0.000000
         Rot=    0.999995    0.000000    0.000000   -0.003103 Ang=  -0.36 deg.
 Guess basis will be translated and rotated to current coordinates.
 JPrj=2 DoOrth=T DoCkMO=T.
 Initial guess orbital symmetries:
 Alpha Orbitals:
       Occupied  (BG) (BG) (BG) (BG) (BG)
       Virtual   (BG) (BG) (BG) (BG) (BG)
 Beta  Orbitals:
       Occupied  (BG) (BG) (BG) (BG) (BG)
       Virtual   (BG) (BG) (BG) (BG) (BG)
 Initial guess <Sx>= 0.0000 <Sy>= 0.0000 <Sz>= 0.0000 <S**2>= 1.1414 S= 0.6796
 Leave Link  401 at Fri Feb 24 16:26:14 2017, MaxMem=   134217728 cpu:         0.1
 (Enter /projects/guscus/apps/gau/g09-e1/g09/l502.exe)
 UHF open shell SCF:
 Using DIIS extrapolation, IDIIS=  1040.
 Integral symmetry usage will be decided dynamically.
 Keep R1 and R2 ints in memory in symmetry-blocked form, NReq=876597.
 IVT=       20217 IEndB=       20217 NGot=   134217728 MDV=   134195632
 LenX=   134195632 LenY=   134194750
 Requested convergence on RMS density matrix=1.00D-08 within 128 cycles.
 Requested convergence on MAX density matrix=1.00D-06.
 Requested convergence on             energy=1.00D-06.
 No special actions if energy rises.
 FoFCou: FMM=F IPFlag=           0 FMFlag=           0 FMFlg1=           0
         NFxFlg=           0 DoJE=F BraDBF=F KetDBF=F FulRan=T
         wScrn=  0.000000 ICntrl=     600 IOpCl=  0 I1Cent=           0 NGrid=           0
         NMat0=    1 NMatS0=     55 NMatT0=    0 NMatD0=    1 NMtDS0=    0 NMtDT0=    0
 Petite list used in FoFCou.
 An orbital has undefined symmetry, so N**3 symmetry is turned off.

 Cycle   1  Pass 1  IDiag  1:
 Density matrix breaks symmetry, PCut= 1.00D-04
 Density matrix has no symmetry -- integrals replicated.
 E= -4.93262636157099    
 DIIS: error= 9.98D-04 at cycle   1 NSaved=   1.
 NSaved= 1 IEnMin= 1 EnMin= -4.93262636157099     IErMin= 1 ErrMin= 9.98D-04
 ErrMax= 9.98D-04  0.00D+00 EMaxC= 1.00D-01 BMatC= 5.12D-05 BMatP= 5.12D-05
 IDIUse=3 WtCom= 9.90D-01 WtEn= 9.98D-03
 Coeff-Com:  0.100D+01
 Coeff-En:   0.100D+01
 Coeff:      0.100D+01
 Gap=     0.413 Goal=   None    Shift=    0.000
 Gap=     0.403 Goal=   None    Shift=    0.000
 RMSDP=1.87D-03 MaxDP=4.51D-03              OVMax= 0.00D+00

 Cycle   2  Pass 1  IDiag  1:
 Density matrix breaks symmetry, PCut= 1.00D-07
 Density matrix has no symmetry -- integrals replicated.
 E= -4.93269241146087     Delta-E=       -0.000066049890 Rises=F Damp=F
 DIIS: error= 6.92D-04 at cycle   2 NSaved=   2.
 NSaved= 2 IEnMin= 2 EnMin= -4.93269241146087     IErMin= 2 ErrMin= 6.92D-04
 ErrMax= 6.92D-04  0.00D+00 EMaxC= 1.00D-01 BMatC= 1.87D-05 BMatP= 5.12D-05
 IDIUse=3 WtCom= 9.93D-01 WtEn= 6.92D-03
 Coeff-Com: -0.700D+00 0.170D+01
 Coeff-En:   0.000D+00 0.100D+01
 Coeff:     -0.695D+00 0.170D+01
 Gap=     0.413 Goal=   None    Shift=    0.000
 Gap=     0.402 Goal=   None    Shift=    0.000
 RMSDP=2.00D-03 MaxDP=6.25D-03 DE=-6.60D-05 OVMax= 0.00D+00

 Cycle   3  Pass 1  IDiag  1:
 Density matrix breaks symmetry, PCut= 1.00D-07
 Density matrix has no symmetry -- integrals replicated.
 E= -4.93273499793559     Delta-E=       -0.000042586475 Rises=F Damp=F
 DIIS: error= 3.98D-04 at cycle   3 NSaved=   3.
 NSaved= 3 IEnMin= 3 EnMin= -4.93273499793559     IErMin= 3 ErrMin= 3.98D-04
 ErrMax= 3.98D-04  0.00D+00 EMaxC= 1.00D-01 BMatC= 8.54D-06 BMatP= 1.87D-05
 IDIUse=3 WtCom= 9.96D-01 WtEn= 3.98D-03
 Coeff-Com:  0.116D+01-0.307D+01 0.291D+01
 Coeff-En:   0.000D+00 0.000D+00 0.100D+01
 Coeff:      0.116D+01-0.306D+01 0.290D+01
 Gap=     0.413 Goal=   None    Shift=    0.000
 Gap=     0.402 Goal=   None    Shift=    0.000
 RMSDP=2.25D-03 MaxDP=9.29D-03 DE=-4.26D-05 OVMax= 0.00D+00

 Cycle   4  Pass 1  IDiag  1:
 Density matrix breaks symmetry, PCut= 1.00D-07
 Density matrix has no symmetry -- integrals replicated.
 E= -4.93276748659569     Delta-E=       -0.000032488660 Rises=F Damp=F
 DIIS: error= 1.93D-04 at cycle   4 NSaved=   4.
 NSaved= 4 IEnMin= 4 EnMin= -4.93276748659569     IErMin= 4 ErrMin= 1.93D-04
 ErrMax= 1.93D-04  0.00D+00 EMaxC= 1.00D-01 BMatC= 3.76D-06 BMatP= 8.54D-06
 IDIUse=3 WtCom= 9.98D-01 WtEn= 1.93D-03
 Coeff-Com: -0.118D+01 0.328D+01-0.392D+01 0.282D+01
 Coeff-En:   0.000D+00 0.000D+00 0.000D+00 0.100D+01
 Coeff:     -0.118D+01 0.327D+01-0.391D+01 0.282D+01
 Gap=     0.414 Goal=   None    Shift=    0.000
 Gap=     0.403 Goal=   None    Shift=    0.000
 RMSDP=2.09D-03 MaxDP=8.51D-03 DE=-3.25D-05 OVMax= 0.00D+00

 Cycle   5  Pass 1  IDiag  1:
 Density matrix breaks symmetry, PCut= 1.00D-07
 Density matrix has no symmetry -- integrals replicated.
 E= -4.93278600820488     Delta-E=       -0.000018521609 Rises=F Damp=F
 DIIS: error= 1.81D-04 at cycle   5 NSaved=   5.
 NSaved= 5 IEnMin= 5 EnMin= -4.93278600820488     IErMin= 5 ErrMin= 1.81D-04
 ErrMax= 1.81D-04  0.00D+00 EMaxC= 1.00D-01 BMatC= 1.34D-06 BMatP= 3.76D-06
 IDIUse=3 WtCom= 9.98D-01 WtEn= 1.81D-03
 Coeff-Com:  0.387D+00-0.107D+01 0.153D+01-0.167D+01 0.182D+01
 Coeff-En:   0.000D+00 0.000D+00 0.000D+00 0.000D+00 0.100D+01
 Coeff:      0.386D+00-0.107D+01 0.153D+01-0.166D+01 0.182D+01
 Gap=     0.415 Goal=   None    Shift=    0.000
 Gap=     0.403 Goal=   None    Shift=    0.000
 RMSDP=8.20D-04 MaxDP=3.65D-03 DE=-1.85D-05 OVMax= 0.00D+00

 Cycle   6  Pass 1  IDiag  1:
 Density matrix breaks symmetry, PCut= 1.00D-07
 Density matrix has no symmetry -- integrals replicated.
 E= -4.93279144582811     Delta-E=       -0.000005437623 Rises=F Damp=F
 DIIS: error= 1.47D-04 at cycle   6 NSaved=   6.
 NSaved= 6 IEnMin= 6 EnMin= -4.93279144582811     IErMin= 6 ErrMin= 1.47D-04
 ErrMax= 1.47D-04  0.00D+00 EMaxC= 1.00D-01 BMatC= 1.05D-06 BMatP= 1.34D-06
 IDIUse=3 WtCom= 9.99D-01 WtEn= 1.47D-03
 Coeff-Com: -0.543D-01 0.154D+00-0.197D+00 0.187D+00-0.314D+00 0.122D+01
 Coeff-En:   0.000D+00 0.000D+00 0.000D+00 0.000D+00 0.000D+00 0.100D+01
 Coeff:     -0.542D-01 0.154D+00-0.196D+00 0.187D+00-0.314D+00 0.122D+01
 Gap=     0.415 Goal=   None    Shift=    0.000
 Gap=     0.403 Goal=   None    Shift=    0.000
 RMSDP=3.55D-04 MaxDP=1.57D-03 DE=-5.44D-06 OVMax= 0.00D+00

 Cycle   7  Pass 1  IDiag  1:
 Density matrix breaks symmetry, PCut= 1.00D-07
 Density matrix has no symmetry -- integrals replicated.
 E= -4.93279379716028     Delta-E=       -0.000002351332 Rises=F Damp=F
 DIIS: error= 1.37D-04 at cycle   7 NSaved=   7.
 NSaved= 7 IEnMin= 7 EnMin= -4.93279379716028     IErMin= 7 ErrMin= 1.37D-04
 ErrMax= 1.37D-04  0.00D+00 EMaxC= 1.00D-01 BMatC= 1.03D-06 BMatP= 1.05D-06
 IDIUse=3 WtCom= 9.99D-01 WtEn= 1.37D-03
 Coeff-Com:  0.651D+00-0.183D+01 0.279D+01-0.333D+01 0.460D+01-0.878D+01
 Coeff-Com:  0.691D+01
 Coeff-En:   0.000D+00 0.000D+00 0.000D+00 0.000D+00 0.000D+00 0.000D+00
 Coeff-En:   0.100D+01
 Coeff:      0.650D+00-0.183D+01 0.278D+01-0.333D+01 0.459D+01-0.877D+01
 Coeff:      0.690D+01
 Gap=     0.415 Goal=   None    Shift=    0.000
 Gap=     0.403 Goal=   None    Shift=    0.000
 RMSDP=1.30D-03 MaxDP=5.69D-03 DE=-2.35D-06 OVMax= 0.00D+00

 Cycle   8  Pass 1  IDiag  1:
 Density matrix breaks symmetry, PCut= 1.00D-07
 Density matrix has no symmetry -- integrals replicated.
 E= -4.93280234007650     Delta-E=       -0.000008542916 Rises=F Damp=F
 DIIS: error= 1.30D-04 at cycle   8 NSaved=   8.
 NSaved= 8 IEnMin= 8 EnMin= -4.93280234007650     IErMin= 8 ErrMin= 1.30D-04
 ErrMax= 1.30D-04  0.00D+00 EMaxC= 1.00D-01 BMatC= 9.89D-07 BMatP= 1.03D-06
 IDIUse=3 WtCom= 9.99D-01 WtEn= 1.30D-03
 Coeff-Com:  0.280D+00-0.777D+00 0.113D+01-0.128D+01 0.143D+01-0.434D+00
 Coeff-Com: -0.206D+01 0.272D+01
 Coeff-En:   0.000D+00 0.000D+00 0.000D+00 0.000D+00 0.000D+00 0.000D+00
 Coeff-En:   0.000D+00 0.100D+01
 Coeff:      0.280D+00-0.776D+00 0.112D+01-0.128D+01 0.143D+01-0.434D+00
 Coeff:     -0.206D+01 0.272D+01
 Gap=     0.416 Goal=   None    Shift=    0.000
 Gap=     0.403 Goal=   None    Shift=    0.000
 RMSDP=2.18D-03 MaxDP=9.24D-03 DE=-8.54D-06 OVMax= 0.00D+00

 Cycle   9  Pass 1  IDiag  1:
 Density matrix breaks symmetry, PCut= 1.00D-07
 Density matrix has no symmetry -- integrals replicated.
 E= -4.93281633052138     Delta-E=       -0.000013990445 Rises=F Damp=F
 DIIS: error= 1.28D-04 at cycle   9 NSaved=   9.
 NSaved= 9 IEnMin= 9 EnMin= -4.93281633052138     IErMin= 9 ErrMin= 1.28D-04
 ErrMax= 1.28D-04  0.00D+00 EMaxC= 1.00D-01 BMatC= 9.28D-07 BMatP= 9.89D-07
 IDIUse=3 WtCom= 9.99D-01 WtEn= 1.28D-03
 Coeff-Com: -0.815D-01 0.215D+00-0.191D+00 0.146D+00 0.578D-02-0.567D+00
 Coeff-Com:  0.314D+01-0.651D+01 0.484D+01
 Coeff-En:   0.000D+00 0.000D+00 0.000D+00 0.000D+00 0.000D+00 0.000D+00
 Coeff-En:   0.000D+00 0.000D+00 0.100D+01
 Coeff:     -0.814D-01 0.215D+00-0.191D+00 0.145D+00 0.577D-02-0.567D+00
 Coeff:      0.314D+01-0.650D+01 0.484D+01
 Gap=     0.417 Goal=   None    Shift=    0.000
 Gap=     0.404 Goal=   None    Shift=    0.000
 RMSDP=5.15D-03 MaxDP=2.19D-02 DE=-1.40D-05 OVMax= 0.00D+00

 Cycle  10  Pass 1  IDiag  1:
 Density matrix breaks symmetry, PCut= 1.00D-07
 Density matrix has no symmetry -- integrals replicated.
 E= -4.93284701997554     Delta-E=       -0.000030689454 Rises=F Damp=F
 DIIS: error= 1.26D-04 at cycle  10 NSaved=  10.
 NSaved=10 IEnMin=10 EnMin= -4.93284701997554     IErMin=10 ErrMin= 1.26D-04
 ErrMax= 1.26D-04  0.00D+00 EMaxC= 1.00D-01 BMatC= 7.67D-07 BMatP= 9.28D-07
 IDIUse=3 WtCom= 9.99D-01 WtEn= 1.26D-03
 Large coefficients: NSaved= 10 BigCof=   44.64 CofMax=   10.00 Det=-2.66D-10
 Inversion failed.  Reducing to  9 matrices.
 Large coefficients: NSaved=  9 BigCof=   13.59 CofMax=   10.00 Det=-4.48D-10
 Inversion failed.  Reducing to  8 matrices.
 Large coefficients: NSaved=  8 BigCof=   13.52 CofMax=   10.00 Det=-4.63D-10
 Inversion failed.  Reducing to  7 matrices.
 Large coefficients: NSaved=  7 BigCof=   12.61 CofMax=   10.00 Det=-4.63D-10
 Inversion failed.  Reducing to  6 matrices.
 Large coefficients: NSaved=  6 BigCof=   11.67 CofMax=   10.00 Det=-5.36D-10
 Inversion failed.  Reducing to  5 matrices.
 Large coefficients: NSaved=  5 BigCof=   11.46 CofMax=   10.00 Det=-9.76D-10
 Inversion failed.  Reducing to  4 matrices.
 Large coefficients: NSaved=  4 BigCof=   11.46 CofMax=   10.00 Det=-7.10D-10
 Inversion failed.  Reducing to  3 matrices.
 Coeff-Com:  0.407D+01-0.702D+01 0.395D+01
 Coeff-En:   0.000D+00 0.000D+00 0.100D+01
 Coeff:      0.406D+01-0.701D+01 0.394D+01
 Gap=     0.419 Goal=   None    Shift=    0.000
 Gap=     0.404 Goal=   None    Shift=    0.000
 RMSDP=6.47D-03 MaxDP=2.76D-02 DE=-3.07D-05 OVMax= 0.00D+00

 Cycle  11  Pass 1  IDiag  1:
 Density matrix breaks symmetry, PCut= 1.00D-07
 Density matrix has no symmetry -- integrals replicated.
 E= -4.93287846071242     Delta-E=       -0.000031440737 Rises=F Damp=F
 DIIS: error= 1.09D-04 at cycle  11 NSaved=   4.
 NSaved= 4 IEnMin= 4 EnMin= -4.93287846071242     IErMin= 4 ErrMin= 1.09D-04
 ErrMax= 1.09D-04  0.00D+00 EMaxC= 1.00D-01 BMatC= 4.56D-07 BMatP= 7.67D-07
 IDIUse=3 WtCom= 9.99D-01 WtEn= 1.09D-03
 Coeff-Com: -0.451D+01 0.867D+01-0.750D+01 0.433D+01
 Coeff-En:   0.000D+00 0.000D+00 0.000D+00 0.100D+01
 Coeff:     -0.450D+01 0.866D+01-0.749D+01 0.433D+01
 Gap=     0.422 Goal=   None    Shift=    0.000
 Gap=     0.405 Goal=   None    Shift=    0.000
 RMSDP=9.94D-03 MaxDP=4.32D-02 DE=-3.14D-05 OVMax= 0.00D+00

 Cycle  12  Pass 1  IDiag  1:
 Density matrix breaks symmetry, PCut= 1.00D-07
 Density matrix has no symmetry -- integrals replicated.
 E= -4.93290019534991     Delta-E=       -0.000021734637 Rises=F Damp=F
 DIIS: error= 3.98D-05 at cycle  12 NSaved=   5.
 NSaved= 5 IEnMin= 5 EnMin= -4.93290019534991     IErMin= 5 ErrMin= 3.98D-05
 ErrMax= 3.98D-05  0.00D+00 EMaxC= 1.00D-01 BMatC= 8.17D-08 BMatP= 4.56D-07
 IDIUse=1 WtCom= 1.00D+00 WtEn= 0.00D+00
 Coeff-Com: -0.309D+00 0.149D+01-0.143D+01 0.278D+00 0.971D+00
 Coeff:     -0.309D+00 0.149D+01-0.143D+01 0.278D+00 0.971D+00
 Gap=     0.420 Goal=   None    Shift=    0.000
 Gap=     0.404 Goal=   None    Shift=    0.000
 RMSDP=4.00D-03 MaxDP=1.77D-02 DE=-2.17D-05 OVMax= 0.00D+00

 Cycle  13  Pass 1  IDiag  1:
 Density matrix breaks symmetry, PCut= 1.00D-07
 Density matrix has no symmetry -- integrals replicated.
 E= -4.93289644845634     Delta-E=        0.000003746894 Rises=F Damp=F
 DIIS: error= 4.29D-05 at cycle  13 NSaved=   6.
 NSaved= 6 IEnMin= 5 EnMin= -4.93290019534991     IErMin= 5 ErrMin= 3.98D-05
 ErrMax= 4.29D-05  0.00D+00 EMaxC= 1.00D-01 BMatC= 1.45D-07 BMatP= 8.17D-08
 IDIUse=1 WtCom= 1.00D+00 WtEn= 0.00D+00
 Coeff-Com: -0.509D+00-0.243D+00 0.125D+01-0.927D+00 0.503D+00 0.930D+00
 Coeff:     -0.509D+00-0.243D+00 0.125D+01-0.927D+00 0.503D+00 0.930D+00
 Gap=     0.423 Goal=   None    Shift=    0.000
 Gap=     0.406 Goal=   None    Shift=    0.000
 RMSDP=6.30D-03 MaxDP=2.78D-02 DE= 3.75D-06 OVMax= 0.00D+00

 Cycle  14  Pass 1  IDiag  1:
 Density matrix breaks symmetry, PCut= 1.00D-07
 Density matrix has no symmetry -- integrals replicated.
 E= -4.93289868707332     Delta-E=       -0.000002238617 Rises=F Damp=F
 DIIS: error= 4.48D-05 at cycle  14 NSaved=   7.
 NSaved= 7 IEnMin= 5 EnMin= -4.93290019534991     IErMin= 5 ErrMin= 3.98D-05
 ErrMax= 4.48D-05  0.00D+00 EMaxC= 1.00D-01 BMatC= 1.60D-07 BMatP= 8.17D-08
 IDIUse=1 WtCom= 1.00D+00 WtEn= 0.00D+00
 Coeff-Com:  0.576D+00-0.148D+01 0.946D+00 0.749D-01-0.119D+01 0.874D+00
 Coeff-Com:  0.120D+01
 Coeff:      0.576D+00-0.148D+01 0.946D+00 0.749D-01-0.119D+01 0.874D+00
 Coeff:      0.120D+01
 Gap=     0.422 Goal=   None    Shift=    0.000
 Gap=     0.406 Goal=   None    Shift=    0.000
 RMSDP=1.09D-03 MaxDP=4.88D-03 DE=-2.24D-06 OVMax= 0.00D+00

 Cycle  15  Pass 1  IDiag  1:
 Density matrix breaks symmetry, PCut= 1.00D-07
 Density matrix has no symmetry -- integrals replicated.
 E= -4.93290001001828     Delta-E=       -0.000001322945 Rises=F Damp=F
 DIIS: error= 2.10D-05 at cycle  15 NSaved=   8.
 NSaved= 8 IEnMin= 5 EnMin= -4.93290019534991     IErMin= 8 ErrMin= 2.10D-05
 ErrMax= 2.10D-05  0.00D+00 EMaxC= 1.00D-01 BMatC= 4.82D-08 BMatP= 8.17D-08
 IDIUse=1 WtCom= 1.00D+00 WtEn= 0.00D+00
 Coeff-Com: -0.118D+01 0.179D+01-0.796D+00-0.153D-01 0.923D+00-0.140D+00
 Coeff-Com: -0.227D+01 0.270D+01
 Coeff:     -0.118D+01 0.179D+01-0.796D+00-0.153D-01 0.923D+00-0.140D+00
 Coeff:     -0.227D+01 0.270D+01
 Gap=     0.422 Goal=   None    Shift=    0.000
 Gap=     0.406 Goal=   None    Shift=    0.000
 RMSDP=1.33D-04 MaxDP=7.30D-04 DE=-1.32D-06 OVMax= 0.00D+00

 Cycle  16  Pass 1  IDiag  1:
 Density matrix breaks symmetry, PCut= 1.00D-07
 Density matrix has no symmetry -- integrals replicated.
 E= -4.93290000701690     Delta-E=        0.000000003001 Rises=F Damp=F
 DIIS: error= 1.81D-05 at cycle  16 NSaved=   9.
 NSaved= 9 IEnMin= 5 EnMin= -4.93290019534991     IErMin= 9 ErrMin= 1.81D-05
 ErrMax= 1.81D-05  0.00D+00 EMaxC= 1.00D-01 BMatC= 3.18D-08 BMatP= 4.82D-08
 IDIUse=1 WtCom= 1.00D+00 WtEn= 0.00D+00
 Coeff-Com:  0.253D+00-0.584D+00 0.431D+00-0.579D-01-0.375D+00 0.424D+00
 Coeff-Com:  0.425D+00-0.108D+01 0.156D+01
 Coeff:      0.253D+00-0.584D+00 0.431D+00-0.579D-01-0.375D+00 0.424D+00
 Coeff:      0.425D+00-0.108D+01 0.156D+01
 Gap=     0.422 Goal=   None    Shift=    0.000
 Gap=     0.406 Goal=   None    Shift=    0.000
 RMSDP=1.20D-03 MaxDP=5.32D-03 DE= 3.00D-09 OVMax= 0.00D+00

 Cycle  17  Pass 1  IDiag  1:
 Density matrix breaks symmetry, PCut= 1.00D-07
 Density matrix has no symmetry -- integrals replicated.
 E= -4.93290051387032     Delta-E=       -0.000000506853 Rises=F Damp=F
 DIIS: error= 2.05D-06 at cycle  17 NSaved=  10.
 NSaved=10 IEnMin=10 EnMin= -4.93290051387032     IErMin=10 ErrMin= 2.05D-06
 ErrMax= 2.05D-06  0.00D+00 EMaxC= 1.00D-01 BMatC= 5.83D-10 BMatP= 3.18D-08
 IDIUse=1 WtCom= 1.00D+00 WtEn= 0.00D+00
 Coeff-Com: -0.262D+00 0.407D+00-0.215D+00 0.120D-01 0.229D+00-0.192D+00
 Coeff-Com: -0.275D+00 0.627D+00-0.114D+01 0.180D+01
 Coeff:     -0.262D+00 0.407D+00-0.215D+00 0.120D-01 0.229D+00-0.192D+00
 Coeff:     -0.275D+00 0.627D+00-0.114D+01 0.180D+01
 Gap=     0.422 Goal=   None    Shift=    0.000
 Gap=     0.406 Goal=   None    Shift=    0.000
 RMSDP=3.38D-04 MaxDP=1.50D-03 DE=-5.07D-07 OVMax= 0.00D+00

 Cycle  18  Pass 1  IDiag  1:
 Density matrix breaks symmetry, PCut= 1.00D-07
 Density matrix has no symmetry -- integrals replicated.
 E= -4.93290046142687     Delta-E=        0.000000052443 Rises=F Damp=F
 DIIS: error= 6.40D-06 at cycle  18 NSaved=  11.
 NSaved=11 IEnMin=10 EnMin= -4.93290051387032     IErMin=10 ErrMin= 2.05D-06
 ErrMax= 6.40D-06  0.00D+00 EMaxC= 1.00D-01 BMatC= 3.39D-09 BMatP= 5.83D-10
 IDIUse=1 WtCom= 1.00D+00 WtEn= 0.00D+00
 Coeff-Com:  0.244D-01-0.958D-01 0.102D+00-0.232D-01-0.815D-01 0.184D+00
 Coeff-Com: -0.127D+00-0.181D-01 0.246D+00-0.111D+01 0.190D+01
 Coeff:      0.244D-01-0.958D-01 0.102D+00-0.232D-01-0.815D-01 0.184D+00
 Coeff:     -0.127D+00-0.181D-01 0.246D+00-0.111D+01 0.190D+01
 Gap=     0.422 Goal=   None    Shift=    0.000
 Gap=     0.405 Goal=   None    Shift=    0.000
 RMSDP=4.00D-04 MaxDP=1.76D-03 DE= 5.24D-08 OVMax= 0.00D+00

 Cycle  19  Pass 1  IDiag  1:
 Density matrix breaks symmetry, PCut= 1.00D-07
 Density matrix has no symmetry -- integrals replicated.
 E= -4.93290051778551     Delta-E=       -0.000000056359 Rises=F Damp=F
 DIIS: error= 7.86D-07 at cycle  19 NSaved=  12.
 NSaved=12 IEnMin=12 EnMin= -4.93290051778551     IErMin=12 ErrMin= 7.86D-07
 ErrMax= 7.86D-07  0.00D+00 EMaxC= 1.00D-01 BMatC= 5.25D-11 BMatP= 5.83D-10
 IDIUse=1 WtCom= 1.00D+00 WtEn= 0.00D+00
 Coeff-Com:  0.115D-01-0.281D-01 0.210D-01 0.999D-03-0.237D-01 0.257D-01
 Coeff-Com:  0.544D-01-0.156D+00 0.369D+00-0.315D+00-0.774D+00 0.182D+01
 Coeff:      0.115D-01-0.281D-01 0.210D-01 0.999D-03-0.237D-01 0.257D-01
 Coeff:      0.544D-01-0.156D+00 0.369D+00-0.315D+00-0.774D+00 0.182D+01
 Gap=     0.422 Goal=   None    Shift=    0.000
 Gap=     0.405 Goal=   None    Shift=    0.000
 RMSDP=4.70D-05 MaxDP=2.03D-04 DE=-5.64D-08 OVMax= 0.00D+00

 Cycle  20  Pass 1  IDiag  1:
 Density matrix breaks symmetry, PCut= 1.00D-07
 Density matrix has no symmetry -- integrals replicated.
 E= -4.93290051825992     Delta-E=       -0.000000000474 Rises=F Damp=F
 DIIS: error= 1.24D-07 at cycle  20 NSaved=  13.
 NSaved=13 IEnMin=13 EnMin= -4.93290051825992     IErMin=13 ErrMin= 1.24D-07
 ErrMax= 1.24D-07  0.00D+00 EMaxC= 1.00D-01 BMatC= 1.40D-12 BMatP= 5.25D-11
 IDIUse=1 WtCom= 1.00D+00 WtEn= 0.00D+00
 Coeff-Com:  0.970D-02-0.186D-01 0.125D-01-0.470D-02-0.711D-02 0.570D-02
 Coeff-Com: -0.975D-02 0.467D-01-0.159D+00 0.109D+00 0.593D+00-0.157D+01
 Coeff-Com:  0.199D+01
 Coeff:      0.970D-02-0.186D-01 0.125D-01-0.470D-02-0.711D-02 0.570D-02
 Coeff:     -0.975D-02 0.467D-01-0.159D+00 0.109D+00 0.593D+00-0.157D+01
 Coeff:      0.199D+01
 Gap=     0.422 Goal=   None    Shift=    0.000
 Gap=     0.405 Goal=   None    Shift=    0.000
 RMSDP=1.71D-05 MaxDP=7.72D-05 DE=-4.74D-10 OVMax= 0.00D+00

 Cycle  21  Pass 1  IDiag  1:
 Density matrix breaks symmetry, PCut= 1.00D-07
 Density matrix has no symmetry -- integrals replicated.
 E= -4.93290051827571     Delta-E=       -0.000000000016 Rises=F Damp=F
 DIIS: error= 9.54D-08 at cycle  21 NSaved=  14.
 NSaved=14 IEnMin=14 EnMin= -4.93290051827571     IErMin=14 ErrMin= 9.54D-08
 ErrMax= 9.54D-08  0.00D+00 EMaxC= 1.00D-01 BMatC= 7.16D-13 BMatP= 1.40D-12
 IDIUse=1 WtCom= 1.00D+00 WtEn= 0.00D+00
 Coeff-Com: -0.743D-02 0.131D-01-0.785D-02 0.224D-02 0.520D-02-0.267D-02
 Coeff-Com: -0.191D-02-0.124D-01 0.584D-01-0.416D-01-0.250D+00 0.699D+00
 Coeff-Com: -0.983D+00 0.153D+01
 Coeff:     -0.743D-02 0.131D-01-0.785D-02 0.224D-02 0.520D-02-0.267D-02
 Coeff:     -0.191D-02-0.124D-01 0.584D-01-0.416D-01-0.250D+00 0.699D+00
 Coeff:     -0.983D+00 0.153D+01
 Gap=     0.422 Goal=   None    Shift=    0.000
 Gap=     0.405 Goal=   None    Shift=    0.000
 RMSDP=6.46D-06 MaxDP=2.85D-05 DE=-1.58D-11 OVMax= 0.00D+00

 Cycle  22  Pass 1  IDiag  1:
 Density matrix breaks symmetry, PCut= 1.00D-07
 Density matrix has no symmetry -- integrals replicated.
 E= -4.93290051828891     Delta-E=       -0.000000000013 Rises=F Damp=F
 DIIS: error= 4.81D-09 at cycle  22 NSaved=  15.
 NSaved=15 IEnMin=15 EnMin= -4.93290051828891     IErMin=15 ErrMin= 4.81D-09
 ErrMax= 4.81D-09  0.00D+00 EMaxC= 1.00D-01 BMatC= 1.94D-15 BMatP= 7.16D-13
 IDIUse=1 WtCom= 1.00D+00 WtEn= 0.00D+00
 Coeff-Com:  0.832D-03-0.148D-02 0.871D-03-0.278D-03-0.488D-03 0.788D-04
 Coeff-Com:  0.123D-03 0.257D-02-0.902D-02 0.733D-02 0.335D-01-0.106D+00
 Coeff-Com:  0.147D+00-0.291D+00 0.122D+01
 Coeff:      0.832D-03-0.148D-02 0.871D-03-0.278D-03-0.488D-03 0.788D-04
 Coeff:      0.123D-03 0.257D-02-0.902D-02 0.733D-02 0.335D-01-0.106D+00
 Coeff:      0.147D+00-0.291D+00 0.122D+01
 Gap=     0.422 Goal=   None    Shift=    0.000
 Gap=     0.405 Goal=   None    Shift=    0.000
 RMSDP=3.40D-08 MaxDP=2.02D-07 DE=-1.32D-11 OVMax= 0.00D+00

 Cycle  23  Pass 1  IDiag  1:
 Density matrix breaks symmetry, PCut= 1.00D-07
 Density matrix has no symmetry -- integrals replicated.
 E= -4.93290051828891     Delta-E=        0.000000000000 Rises=F Damp=F
 DIIS: error= 4.54D-09 at cycle  23 NSaved=  16.
 NSaved=16 IEnMin=15 EnMin= -4.93290051828891     IErMin=16 ErrMin= 4.54D-09
 ErrMax= 4.54D-09  0.00D+00 EMaxC= 1.00D-01 BMatC= 1.89D-15 BMatP= 1.94D-15
 IDIUse=1 WtCom= 1.00D+00 WtEn= 0.00D+00
 Large coefficients: NSaved= 16 BigCof=    0.00 CofMax=   10.00 Det=-5.24D-17
 Inversion failed.  Reducing to 15 matrices.
 Coeff-Com:  0.817D-05-0.198D-05-0.122D-04 0.159D-05 0.424D-05-0.500D-04
 Coeff-Com:  0.546D-05-0.540D-03 0.656D-03 0.774D-03 0.834D-03 0.195D-02
 Coeff-Com:  0.933D-02-0.422D+00 0.141D+01
 Coeff:      0.817D-05-0.198D-05-0.122D-04 0.159D-05 0.424D-05-0.500D-04
 Coeff:      0.546D-05-0.540D-03 0.656D-03 0.774D-03 0.834D-03 0.195D-02
 Coeff:      0.933D-02-0.422D+00 0.141D+01
 Gap=     0.422 Goal=   None    Shift=    0.000
 Gap=     0.405 Goal=   None    Shift=    0.000
 RMSDP=3.63D-07 MaxDP=1.61D-06 DE= 3.55D-15 OVMax= 0.00D+00

 Cycle  24  Pass 1  IDiag  1:
 Density matrix breaks symmetry, PCut= 1.00D-07
 Density matrix has no symmetry -- integrals replicated.
 E= -4.93290051828895     Delta-E=       -0.000000000000 Rises=F Damp=F
 DIIS: error= 2.65D-10 at cycle  24 NSaved=  16.
 NSaved=16 IEnMin=16 EnMin= -4.93290051828895     IErMin=16 ErrMin= 2.65D-10
 ErrMax= 2.65D-10  0.00D+00 EMaxC= 1.00D-01 BMatC= 7.28D-18 BMatP= 1.89D-15
 IDIUse=1 WtCom= 1.00D+00 WtEn= 0.00D+00
 Large coefficients: NSaved= 16 BigCof=    0.00 CofMax=   10.00 Det=-1.72D-18
 Inversion failed.  Reducing to 15 matrices.
 Coeff-Com: -0.149D-05 0.600D-05 0.675D-06-0.219D-05 0.177D-04-0.543D-05
 Coeff-Com:  0.240D-03-0.315D-03-0.282D-03 0.315D-04-0.159D-02 0.925D-03
 Coeff-Com:  0.150D+00-0.673D+00 0.152D+01
 Coeff:     -0.149D-05 0.600D-05 0.675D-06-0.219D-05 0.177D-04-0.543D-05
 Coeff:      0.240D-03-0.315D-03-0.282D-03 0.315D-04-0.159D-02 0.925D-03
 Coeff:      0.150D+00-0.673D+00 0.152D+01
 Gap=     0.422 Goal=   None    Shift=    0.000
 Gap=     0.405 Goal=   None    Shift=    0.000
 RMSDP=6.12D-09 MaxDP=2.61D-08 DE=-3.55D-14 OVMax= 0.00D+00

 Density matrix breaks symmetry, PCut= 1.00D-07
 Density matrix has no symmetry -- integrals replicated.
 SCF Done:  E(UHF) =  -4.93290051829     A.U. after   24 cycles
            NFock= 24  Conv=0.61D-08     -V/T= 1.8866
 <Sx>= 0.0000 <Sy>= 0.0000 <Sz>= 0.0000 <S**2>= 1.2420 S= 0.7215
 <L.S>= 0.000000000000E+00
 KE= 5.564115798368D+00 PE=-3.382596599091D+01 EE= 1.130581686638D+01
 Annihilation of the first spin contaminant:
 S**2 before annihilation     1.2420,   after     1.7017
 Leave Link  502 at Fri Feb 24 16:26:14 2017, MaxMem=   134217728 cpu:         0.1
 (Enter /projects/guscus/apps/gau/g09-e1/g09/l601.exe)
 Copying SCF densities to generalized density rwf, IOpCl= 1 IROHF=0.

 **********************************************************************

            Population analysis using the SCF density.

 **********************************************************************

 Orbital symmetries:
 Alpha Orbitals:
       Occupied  (BG) (BG) (BG) (BG) (BG)
       Virtual   (BG) (BG) (BG) (BG) (BG)
 Beta  Orbitals:
       Occupied  (BG) (BG) (BG) (BG) (BG)
       Virtual   (BG) (BG) (BG) (BG) (BG)
 Unable to determine electronic state:  partially filled degenerate orbitals.
 Alpha  occ. eigenvalues --   -0.79307  -0.71109  -0.58943  -0.42653  -0.30487
 Alpha virt. eigenvalues --    0.11675   0.23649   0.25390   0.40847   0.60808
  Beta  occ. eigenvalues --   -0.79125  -0.71670  -0.58780  -0.43787  -0.29163
  Beta virt. eigenvalues --    0.11383   0.23046   0.23488   0.43348   0.60193
          Condensed to atoms (all electrons):
               1          2          3          4          5          6
     1  H    1.015263  -0.178158  -0.112701   0.446410   0.013225  -0.158143
     2  H   -0.178158   1.286735  -0.024781  -0.014610   0.000399   0.010803
     3  H   -0.112701  -0.024781   0.975826  -0.082209  -0.163553   0.491974
     4  H    0.446410  -0.014610  -0.082209   0.658353  -0.003783  -0.101099
     5  H    0.013225   0.000399  -0.163553  -0.003783   0.993065  -0.157563
     6  H   -0.158143   0.010803   0.491974  -0.101099  -0.157563   1.077797
     7  H    0.000232  -0.000075   0.006723   0.000520  -0.138226  -0.003741
     8  H    0.007336   0.001031  -0.131907   0.002885   0.602638  -0.154152
     9  H   -0.000048   0.000006  -0.000484  -0.000002   0.002905   0.001586
    10  H   -0.000398  -0.000041   0.010964   0.000068  -0.141691   0.009080
               7          8          9         10
     1  H    0.000232   0.007336  -0.000048  -0.000398
     2  H   -0.000075   0.001031   0.000006  -0.000041
     3  H    0.006723  -0.131907  -0.000484   0.010964
     4  H    0.000520   0.002885  -0.000002   0.000068
     5  H   -0.138226   0.602638   0.002905  -0.141691
     6  H   -0.003741  -0.154152   0.001586   0.009080
     7  H    0.705192  -0.093267  -0.098748   0.537420
     8  H   -0.093267   0.908185  -0.001563  -0.184718
     9  H   -0.098748  -0.001563   1.336625  -0.156217
    10  H    0.537420  -0.184718  -0.156217   0.954305
          Atomic-Atomic Spin Densities.
               1          2          3          4          5          6
     1  H    0.608289  -0.246089   0.047378   0.030772   0.011664  -0.103490
     2  H   -0.246089   1.205231   0.004598  -0.110479  -0.000988   0.022278
     3  H    0.047378   0.004598  -0.626568   0.100465   0.028669  -0.021683
     4  H    0.030772  -0.110479   0.100465  -0.277489  -0.003254   0.009675
     5  H    0.011664  -0.000988   0.028669  -0.003254   0.257093  -0.122519
     6  H   -0.103490   0.022278  -0.021683   0.009675  -0.122519   0.687221
     7  H    0.000179  -0.000002  -0.007080   0.000348   0.025127   0.000201
     8  H    0.001218  -0.000708   0.070912  -0.008072  -0.008407  -0.047801
     9  H   -0.000043  -0.000002   0.001199   0.000002  -0.022837   0.000749
    10  H   -0.000232   0.000052  -0.006540   0.000353   0.010094   0.007996
               7          8          9         10
     1  H    0.000179   0.001218  -0.000043  -0.000232
     2  H   -0.000002  -0.000708  -0.000002   0.000052
     3  H   -0.007080   0.070912   0.001199  -0.006540
     4  H    0.000348  -0.008072   0.000002   0.000353
     5  H    0.025127  -0.008407  -0.022837   0.010094
     6  H    0.000201  -0.047801   0.000749   0.007996
     7  H   -0.069384   0.039305   0.162353  -0.114896
     8  H    0.039305  -0.287116  -0.014295   0.052990
     9  H    0.162353  -0.014295  -1.270532   0.238042
    10  H   -0.114896   0.052990   0.238042  -0.281154
 Mulliken charges and spin densities:
               1          2
     1  H   -0.033018   0.349646
     2  H   -0.081308   0.873891
     3  H    0.030149  -0.408649
     4  H    0.093466  -0.257678
     5  H   -0.007416   0.174642
     6  H   -0.016541   0.432625
     7  H    0.083969   0.036153
     8  H    0.043533  -0.201973
     9  H   -0.084061  -0.905363
    10  H   -0.028772  -0.093294
 Sum of Mulliken charges =  -0.00000   0.00000
 Mulliken charges and spin densities with hydrogens summed into heavy atoms:
               1          2
 Electronic spatial extent (au):  <R**2>=            190.3812
 Charge=             -0.0000 electrons
 Dipole moment (field-independent basis, Debye):
    X=             -0.0276    Y=             -0.0325    Z=             -0.0000  Tot=              0.0427
 Quadrupole moment (field-independent basis, Debye-Ang):
   XX=            -15.1834   YY=            -21.8877   ZZ=            -12.5954
   XY=              6.5751   XZ=              0.0000   YZ=             -0.0000
 Traceless Quadrupole moment (field-independent basis, Debye-Ang):
   XX=              1.3721   YY=             -5.3322   ZZ=              3.9601
   XY=              6.5751   XZ=              0.0000   YZ=             -0.0000
 Octapole moment (field-independent basis, Debye-Ang**2):
  XXX=             -0.1716  YYY=             -0.9174  ZZZ=             -0.0000  XYY=              1.3256
  XXY=             -0.7388  XXZ=             -0.0000  XZZ=             -0.0311  YZZ=              0.0550
  YYZ=             -0.0000  XYZ=              0.0000
 Hexadecapole moment (field-independent basis, Debye-Ang**3):
 XXXX=           -133.2487 YYYY=           -365.8506 ZZZZ=            -15.0035 XXXY=             95.1050
 XXXZ=              0.0000 YYYX=            141.6978 YYYZ=             -0.0000 ZZZX=              0.0000
 ZZZY=             -0.0000 XXYY=           -100.1136 XXZZ=            -23.5649 YYZZ=            -45.1166
 XXYZ=             -0.0000 YYXZ=              0.0000 ZZXY=             25.5364
 N-N= 1.202313280787D+01 E-N=-3.382596599227D+01  KE= 5.564115798368D+00
 Symmetry AG   KE= 2.395388309127D+00
 Symmetry BG   KE= 0.000000000000D+00
 Symmetry AU   KE= 0.000000000000D+00
 Symmetry BU   KE= 3.168727489241D+00
                          Isotropic Fermi Contact Couplings
        Atom                 a.u.       MegaHertz       Gauss      10(-4) cm-1
     1  H(1)               0.16542     369.71126     131.92217     123.32240
     2  H(1)               0.34004     759.97322     271.17733     253.49978
     3  H(1)              -0.17277    -386.13338    -137.78199    -128.80023
     4  H(1)              -0.07922    -177.05712     -63.17838     -59.05990
     5  H(1)               0.07023     156.96593      56.00934      52.35820
     6  H(1)               0.18496     413.37854     147.50374     137.88824
     7  H(1)              -0.01851     -41.37811     -14.76474     -13.80225
     8  H(1)              -0.08075    -180.46753     -64.39530     -60.19749
     9  H(1)              -0.35657    -796.90516    -284.35557    -265.81895
    10  H(1)              -0.07597    -169.77974     -60.58163     -56.63242
 --------------------------------------------------------
       Center         ----  Spin Dipole Couplings  ----
                      3XX-RR        3YY-RR        3ZZ-RR
 --------------------------------------------------------
     1   Atom       -0.045165      0.036053      0.009113
     2   Atom       -0.004811     -0.008820      0.013630
     3   Atom        0.079856     -0.006795     -0.073060
     4   Atom        0.085750     -0.008060     -0.077690
     5   Atom       -0.059329      0.027286      0.032042
     6   Atom       -0.074337      0.018233      0.056104
     7   Atom       -0.024090     -0.019575      0.043665
     8   Atom        0.021078     -0.001885     -0.019194
     9   Atom       -0.002861      0.016702     -0.013842
    10   Atom        0.013557     -0.044925      0.031368
 --------------------------------------------------------
                        XY            XZ            YZ
 --------------------------------------------------------
     1   Atom       -0.014713      0.000000     -0.000000
     2   Atom        0.025037     -0.000000      0.000000
     3   Atom        0.007849      0.000000      0.000000
     4   Atom       -0.016883      0.000000     -0.000000
     5   Atom        0.009450      0.000000      0.000000
     6   Atom       -0.027451     -0.000000     -0.000000
     7   Atom       -0.006037     -0.000000     -0.000000
     8   Atom        0.019461     -0.000000     -0.000000
     9   Atom       -0.010948     -0.000000      0.000000
    10   Atom        0.001145     -0.000000      0.000000
 --------------------------------------------------------


 ---------------------------------------------------------------------------------
              Anisotropic Spin Dipole Couplings in Principal Axis System
 ---------------------------------------------------------------------------------

       Atom             a.u.   MegaHertz   Gauss  10(-4) cm-1        Axes

              Baa    -0.0477   -25.476    -9.091    -8.498  0.9849  0.1729  0.0000
     1 H(1)   Bbb     0.0091     4.862     1.735     1.622  0.0000  0.0000  1.0000
              Bcc     0.0386    20.614     7.356     6.876 -0.1729  0.9849  0.0000
 
              Baa    -0.0319   -17.037    -6.079    -5.683 -0.6783  0.7348  0.0000
     2 H(1)   Bbb     0.0136     7.273     2.595     2.426  0.0000  0.0000  1.0000
              Bcc     0.0183     9.765     3.484     3.257  0.7348  0.6783  0.0000
 
              Baa    -0.0731   -38.982   -13.910   -13.003  0.0000  0.0000  1.0000
     3 H(1)   Bbb    -0.0075    -4.002    -1.428    -1.335 -0.0895  0.9960 -0.0000
              Bcc     0.0806    42.984    15.338    14.338  0.9960  0.0895  0.0000
 
              Baa    -0.0777   -41.452   -14.791   -13.827  0.0000  0.0000  1.0000
     4 H(1)   Bbb    -0.0110    -5.872    -2.095    -1.959  0.1719  0.9851  0.0000
              Bcc     0.0887    47.324    16.886    15.786  0.9851 -0.1719  0.0000
 
              Baa    -0.0603   -32.199   -11.489   -10.740  0.9942 -0.1072  0.0000
     5 H(1)   Bbb     0.0283    15.102     5.389     5.038  0.1072  0.9942 -0.0000
              Bcc     0.0320    17.096     6.100     5.703  0.0000  0.0000  1.0000
 
              Baa    -0.0819   -43.679   -15.586   -14.570  0.9644  0.2645  0.0000
     6 H(1)   Bbb     0.0258    13.745     4.905     4.585 -0.2645  0.9644 -0.0000
              Bcc     0.0561    29.934    10.681     9.985  0.0000  0.0000  1.0000
 
              Baa    -0.0283   -15.088    -5.384    -5.033  0.8217  0.5700  0.0000
     7 H(1)   Bbb    -0.0154    -8.210    -2.929    -2.738 -0.5700  0.8217 -0.0000
              Bcc     0.0437    23.298     8.313     7.771  0.0000  0.0000  1.0000
 
              Baa    -0.0192   -10.241    -3.654    -3.416  0.0000  0.0000  1.0000
     8 H(1)   Bbb    -0.0130    -6.936    -2.475    -2.313 -0.4959  0.8684  0.0000
              Bcc     0.0322    17.176     6.129     5.729  0.8684  0.4959  0.0000
 
              Baa    -0.0138    -7.385    -2.635    -2.463  0.0000  0.0000  1.0000
     9 H(1)   Bbb    -0.0078    -4.141    -1.477    -1.381  0.9128  0.4085  0.0000
              Bcc     0.0216    11.526     4.113     3.845 -0.4085  0.9128  0.0000
 
              Baa    -0.0449   -23.982    -8.557    -7.999 -0.0196  0.9998  0.0000
    10 H(1)   Bbb     0.0136     7.245     2.585     2.417  0.9998  0.0196  0.0000
              Bcc     0.0314    16.737     5.972     5.583  0.0000  0.0000  1.0000
 

 ---------------------------------------------------------------------------------

 No NMR shielding tensors so no spin-rotation constants.
 Leave Link  601 at Fri Feb 24 16:26:14 2017, MaxMem=   134217728 cpu:         0.1
 (Enter /projects/guscus/apps/gau/g09-e1/g09/l801.exe)
 Range of M.O.s used for correlation:     1    10
 NBasis=    10 NAE=     5 NBE=     5 NFC=     0 NFV=     0
 NROrb=     10 NOA=     5 NOB=     5 NVA=     5 NVB=     5
 Leave Link  801 at Fri Feb 24 16:26:15 2017, MaxMem=   134217728 cpu:         0.0
 (Enter /projects/guscus/apps/gau/g09-e1/g09/l914.exe)
 UHF ground state
 Doing stability rather than CIS.
 MDV=   134217728 DFT=F DoStab=T Mixed=F DoRPA=F DoScal=F NonHer=F
 Keep R1 and R2 ints in memory in symmetry-blocked form, NReq=802982.
 FoFCou: FMM=F IPFlag=           0 FMFlag=           0 FMFlg1=           0
         NFxFlg=           0 DoJE=F BraDBF=F KetDBF=F FulRan=T
         wScrn=  0.000000 ICntrl=     600 IOpCl=  0 I1Cent=           0 NGrid=           0
         NMat0=    1 NMatS0=     55 NMatT0=    0 NMatD0=    1 NMtDS0=    0 NMtDT0=    0
 Petite list used in FoFCou.
 Making orbital integer symmetry assigments:
 Orbital symmetries:
 Alpha Orbitals:
       Occupied  (BG) (BG) (BG) (BG) (BG)
       Virtual   (BG) (BG) (BG) (BG) (BG)
 Beta  Orbitals:
       Occupied  (BG) (BG) (BG) (BG) (BG)
       Virtual   (BG) (BG) (BG) (BG) (BG)
    12 initial guesses have been made.
 Convergence on wavefunction:    0.001000000000000
 Davidson Disk Diagonalization:  ConvIn= 1.00D-03 SkipCon=T Conv= 1.00D-03.
 Max sub-space:   200 roots to seek:    12 dimension of matrix:           50
 Iteration     1 Dimension    12 NMult     0 NNew     12
 CISAX will form    12 AO SS matrices at one time.
 NMat=    12 NSing=    12 JSym2X= 2.
 Excitation Energies [eV] at current iteration:
 Root      1 :     2.068923741662670
 Root      2 :     4.079587564321599
 Root      3 :     5.722228436340655
 Root      4 :     7.076164359981292
 Root      5 :     9.375989733401816
 Root      6 :     9.601601928248975
 Root      7 :    10.573632670901200
 Root      8 :    10.988866367482770
 Root      9 :    11.276434855153140
 Root     10 :    11.989297582537860
 Root     11 :    13.438305895048160
 Root     12 :    13.519492952034050
 Iteration     2 Dimension    24 NMult    12 NNew     12
 CISAX will form    12 AO SS matrices at one time.
 NMat=    12 NSing=    12 JSym2X= 2.
 Root      1 not converged, maximum delta is    0.124220934334029
 Excitation Energies [eV] at current iteration:
 Root      1 :     0.306207835538267   Change is   -1.762715906124403
 Root      2 :     2.727550846615222   Change is   -1.352036717706377
 Root      3 :     4.657391339850472   Change is   -1.064837096490183
 Root      4 :     4.993886981379885   Change is   -2.082277378601408
 Root      5 :     8.280561635970544   Change is   -1.095428097431272
 Root      6 :     8.359692913205979   Change is   -2.213939757695218
 Root      7 :     8.892236540738139   Change is   -0.709365387510836
 Root      8 :     9.164029107894168   Change is   -2.112405747258977
 Root      9 :     9.833286203821618   Change is   -1.155580163661155
 Root     10 :    10.170620050437950   Change is   -1.818677532099908
 Root     11 :    12.123869813823220   Change is   -1.314436081224946
 Root     12 :    12.729499987318480   Change is   -0.789992964715571
 Iteration     3 Dimension    27 NMult    24 NNew      3
 CISAX will form     3 AO SS matrices at one time.
 NMat=     3 NSing=     3 JSym2X= 2.
 Root      1 not converged, maximum delta is    0.016459995620641
 Excitation Energies [eV] at current iteration:
 Root      1 :     0.281483571578336   Change is   -0.024724263959931
 Root      2 :     2.628090515955884   Change is   -0.099460330659338
 Root      3 :     3.944008632995861   Change is   -0.713382706854611
 Iteration     4 Dimension    30 NMult    27 NNew      3
 CISAX will form     3 AO SS matrices at one time.
 NMat=     3 NSing=     3 JSym2X= 2.
 Root      1 not converged, maximum delta is    0.001855643260773
 Excitation Energies [eV] at current iteration:
 Root      1 :     0.281122269818618   Change is   -0.000361301759718
 Root      2 :     2.609363043081103   Change is   -0.018727472874780
 Root      3 :     3.910328922022567   Change is   -0.033679710973294
 Iteration     5 Dimension    33 NMult    30 NNew      3
 CISAX will form     3 AO SS matrices at one time.
 NMat=     3 NSing=     3 JSym2X= 2.
 Root      1 has converged.
 Excitation Energies [eV] at current iteration:
 Root      1 :     0.281115331423056   Change is   -0.000006938395562
 Root      2 :     2.608571621582877   Change is   -0.000791421498227
 Root      3 :     3.909411186501355   Change is   -0.000917735521213
 Convergence achieved on expansion vectors.
 ***********************************************************************
 Stability analysis using <AA,BB:AA,BB> singles matrix:
 ***********************************************************************

 Eigenvectors of the stability matrix:
 
 Eigenvector   1:  3.280-AG   Eigenvalue= 0.0103308  <S**2>=2.440
      3A ->  7A       -0.12072
      4A ->  6A        0.36891
      4A ->  7A       -0.10916
      4A ->  8A        0.10332
      5A ->  6A       -0.38730
      3B ->  6B       -0.18516
      3B ->  7B        0.12831
      4B ->  6B       -0.17276
      5B ->  6B        0.64920
      5B ->  7B       -0.25175
 SavETr:  write IOETrn=   770 NScale= 10 NData=  16 NLR=1 NState=    1 LETran=      28.
 The wavefunction is stable under the perturbations considered.
 Leave Link  914 at Fri Feb 24 16:26:15 2017, MaxMem=   134217728 cpu:         0.1
 (Enter /projects/guscus/apps/gau/g09-e1/g09/l508.exe)
 The wavefunction is already stable.
 Leave Link  508 at Fri Feb 24 16:26:15 2017, MaxMem=   134217728 cpu:         0.0
 (Enter /projects/guscus/apps/gau/g09-e1/g09/l601.exe)
 Copying SCF densities to generalized density rwf, IOpCl= 1 IROHF=0.

 **********************************************************************

            Population analysis using the SCF density.

 **********************************************************************

 Orbital symmetries:
 Alpha Orbitals:
       Occupied  (BG) (BG) (BG) (BG) (BG)
       Virtual   (BG) (BG) (BG) (BG) (BG)
 Beta  Orbitals:
       Occupied  (BG) (BG) (BG) (BG) (BG)
       Virtual   (BG) (BG) (BG) (BG) (BG)
 Unable to determine electronic state:  partially filled degenerate orbitals.
 Alpha  occ. eigenvalues --   -0.79307  -0.71109  -0.58943  -0.42653  -0.30487
 Alpha virt. eigenvalues --    0.11675   0.23649   0.25390   0.40847   0.60808
  Beta  occ. eigenvalues --   -0.79125  -0.71670  -0.58780  -0.43787  -0.29163
  Beta virt. eigenvalues --    0.11383   0.23046   0.23488   0.43348   0.60193
          Condensed to atoms (all electrons):
               1          2          3          4          5          6
     1  H    1.015263  -0.178158  -0.112701   0.446410   0.013225  -0.158143
     2  H   -0.178158   1.286735  -0.024781  -0.014610   0.000399   0.010803
     3  H   -0.112701  -0.024781   0.975826  -0.082209  -0.163553   0.491974
     4  H    0.446410  -0.014610  -0.082209   0.658353  -0.003783  -0.101099
     5  H    0.013225   0.000399  -0.163553  -0.003783   0.993065  -0.157563
     6  H   -0.158143   0.010803   0.491974  -0.101099  -0.157563   1.077797
     7  H    0.000232  -0.000075   0.006723   0.000520  -0.138226  -0.003741
     8  H    0.007336   0.001031  -0.131907   0.002885   0.602638  -0.154152
     9  H   -0.000048   0.000006  -0.000484  -0.000002   0.002905   0.001586
    10  H   -0.000398  -0.000041   0.010964   0.000068  -0.141691   0.009080
               7          8          9         10
     1  H    0.000232   0.007336  -0.000048  -0.000398
     2  H   -0.000075   0.001031   0.000006  -0.000041
     3  H    0.006723  -0.131907  -0.000484   0.010964
     4  H    0.000520   0.002885  -0.000002   0.000068
     5  H   -0.138226   0.602638   0.002905  -0.141691
     6  H   -0.003741  -0.154152   0.001586   0.009080
     7  H    0.705192  -0.093267  -0.098748   0.537420
     8  H   -0.093267   0.908185  -0.001563  -0.184718
     9  H   -0.098748  -0.001563   1.336625  -0.156217
    10  H    0.537420  -0.184718  -0.156217   0.954305
          Atomic-Atomic Spin Densities.
               1          2          3          4          5          6
     1  H    0.608289  -0.246089   0.047378   0.030772   0.011664  -0.103490
     2  H   -0.246089   1.205231   0.004598  -0.110479  -0.000988   0.022278
     3  H    0.047378   0.004598  -0.626568   0.100465   0.028669  -0.021683
     4  H    0.030772  -0.110479   0.100465  -0.277489  -0.003254   0.009675
     5  H    0.011664  -0.000988   0.028669  -0.003254   0.257093  -0.122519
     6  H   -0.103490   0.022278  -0.021683   0.009675  -0.122519   0.687221
     7  H    0.000179  -0.000002  -0.007080   0.000348   0.025127   0.000201
     8  H    0.001218  -0.000708   0.070912  -0.008072  -0.008407  -0.047801
     9  H   -0.000043  -0.000002   0.001199   0.000002  -0.022837   0.000749
    10  H   -0.000232   0.000052  -0.006540   0.000353   0.010094   0.007996
               7          8          9         10
     1  H    0.000179   0.001218  -0.000043  -0.000232
     2  H   -0.000002  -0.000708  -0.000002   0.000052
     3  H   -0.007080   0.070912   0.001199  -0.006540
     4  H    0.000348  -0.008072   0.000002   0.000353
     5  H    0.025127  -0.008407  -0.022837   0.010094
     6  H    0.000201  -0.047801   0.000749   0.007996
     7  H   -0.069384   0.039305   0.162353  -0.114896
     8  H    0.039305  -0.287116  -0.014295   0.052990
     9  H    0.162353  -0.014295  -1.270532   0.238042
    10  H   -0.114896   0.052990   0.238042  -0.281154
 Mulliken charges and spin densities:
               1          2
     1  H   -0.033018   0.349646
     2  H   -0.081308   0.873891
     3  H    0.030149  -0.408649
     4  H    0.093466  -0.257678
     5  H   -0.007416   0.174642
     6  H   -0.016541   0.432625
     7  H    0.083969   0.036153
     8  H    0.043533  -0.201973
     9  H   -0.084061  -0.905363
    10  H   -0.028772  -0.093294
 Sum of Mulliken charges =  -0.00000   0.00000
 Mulliken charges and spin densities with hydrogens summed into heavy atoms:
               1          2
 Electronic spatial extent (au):  <R**2>=            190.3812
 Charge=             -0.0000 electrons
 Dipole moment (field-independent basis, Debye):
    X=             -0.0276    Y=             -0.0325    Z=             -0.0000  Tot=              0.0427
 Quadrupole moment (field-independent basis, Debye-Ang):
   XX=            -15.1834   YY=            -21.8877   ZZ=            -12.5954
   XY=              6.5751   XZ=              0.0000   YZ=             -0.0000
 Traceless Quadrupole moment (field-independent basis, Debye-Ang):
   XX=              1.3721   YY=             -5.3322   ZZ=              3.9601
   XY=              6.5751   XZ=              0.0000   YZ=             -0.0000
 Octapole moment (field-independent basis, Debye-Ang**2):
  XXX=             -0.1716  YYY=             -0.9174  ZZZ=             -0.0000  XYY=              1.3256
  XXY=             -0.7388  XXZ=             -0.0000  XZZ=             -0.0311  YZZ=              0.0550
  YYZ=             -0.0000  XYZ=              0.0000
 Hexadecapole moment (field-independent basis, Debye-Ang**3):
 XXXX=           -133.2487 YYYY=           -365.8506 ZZZZ=            -15.0035 XXXY=             95.1050
 XXXZ=              0.0000 YYYX=            141.6978 YYYZ=             -0.0000 ZZZX=              0.0000
 ZZZY=             -0.0000 XXYY=           -100.1136 XXZZ=            -23.5649 YYZZ=            -45.1166
 XXYZ=             -0.0000 YYXZ=              0.0000 ZZXY=             25.5364
 N-N= 1.202313280787D+01 E-N=-3.382596599227D+01  KE= 5.564115798368D+00
 Symmetry AG   KE= 2.395388309127D+00
 Symmetry BG   KE= 0.000000000000D+00
 Symmetry AU   KE= 0.000000000000D+00
 Symmetry BU   KE= 3.168727489241D+00
                          Isotropic Fermi Contact Couplings
        Atom                 a.u.       MegaHertz       Gauss      10(-4) cm-1
     1  H(1)               0.16542     369.71126     131.92217     123.32240
     2  H(1)               0.34004     759.97322     271.17733     253.49978
     3  H(1)              -0.17277    -386.13338    -137.78199    -128.80023
     4  H(1)              -0.07922    -177.05712     -63.17838     -59.05990
     5  H(1)               0.07023     156.96593      56.00934      52.35820
     6  H(1)               0.18496     413.37854     147.50374     137.88824
     7  H(1)              -0.01851     -41.37811     -14.76474     -13.80225
     8  H(1)              -0.08075    -180.46753     -64.39530     -60.19749
     9  H(1)              -0.35657    -796.90516    -284.35557    -265.81895
    10  H(1)              -0.07597    -169.77974     -60.58163     -56.63242
 --------------------------------------------------------
       Center         ----  Spin Dipole Couplings  ----
                      3XX-RR        3YY-RR        3ZZ-RR
 --------------------------------------------------------
     1   Atom       -0.045165      0.036053      0.009113
     2   Atom       -0.004811     -0.008820      0.013630
     3   Atom        0.079856     -0.006795     -0.073060
     4   Atom        0.085750     -0.008060     -0.077690
     5   Atom       -0.059329      0.027286      0.032042
     6   Atom       -0.074337      0.018233      0.056104
     7   Atom       -0.024090     -0.019575      0.043665
     8   Atom        0.021078     -0.001885     -0.019194
     9   Atom       -0.002861      0.016702     -0.013842
    10   Atom        0.013557     -0.044925      0.031368
 --------------------------------------------------------
                        XY            XZ            YZ
 --------------------------------------------------------
     1   Atom       -0.014713      0.000000     -0.000000
     2   Atom        0.025037     -0.000000      0.000000
     3   Atom        0.007849      0.000000      0.000000
     4   Atom       -0.016883      0.000000     -0.000000
     5   Atom        0.009450      0.000000      0.000000
     6   Atom       -0.027451     -0.000000     -0.000000
     7   Atom       -0.006037     -0.000000     -0.000000
     8   Atom        0.019461     -0.000000     -0.000000
     9   Atom       -0.010948     -0.000000      0.000000
    10   Atom        0.001145     -0.000000      0.000000
 --------------------------------------------------------


 ---------------------------------------------------------------------------------
              Anisotropic Spin Dipole Couplings in Principal Axis System
 ---------------------------------------------------------------------------------

       Atom             a.u.   MegaHertz   Gauss  10(-4) cm-1        Axes

              Baa    -0.0477   -25.476    -9.091    -8.498  0.9849  0.1729  0.0000
     1 H(1)   Bbb     0.0091     4.862     1.735     1.622  0.0000  0.0000  1.0000
              Bcc     0.0386    20.614     7.356     6.876 -0.1729  0.9849  0.0000
 
              Baa    -0.0319   -17.037    -6.079    -5.683 -0.6783  0.7348  0.0000
     2 H(1)   Bbb     0.0136     7.273     2.595     2.426  0.0000  0.0000  1.0000
              Bcc     0.0183     9.765     3.484     3.257  0.7348  0.6783  0.0000
 
              Baa    -0.0731   -38.982   -13.910   -13.003  0.0000  0.0000  1.0000
     3 H(1)   Bbb    -0.0075    -4.002    -1.428    -1.335 -0.0895  0.9960 -0.0000
              Bcc     0.0806    42.984    15.338    14.338  0.9960  0.0895  0.0000
 
              Baa    -0.0777   -41.452   -14.791   -13.827  0.0000  0.0000  1.0000
     4 H(1)   Bbb    -0.0110    -5.872    -2.095    -1.959  0.1719  0.9851  0.0000
              Bcc     0.0887    47.324    16.886    15.786  0.9851 -0.1719  0.0000
 
              Baa    -0.0603   -32.199   -11.489   -10.740  0.9942 -0.1072  0.0000
     5 H(1)   Bbb     0.0283    15.102     5.389     5.038  0.1072  0.9942 -0.0000
              Bcc     0.0320    17.096     6.100     5.703  0.0000  0.0000  1.0000
 
              Baa    -0.0819   -43.679   -15.586   -14.570  0.9644  0.2645  0.0000
     6 H(1)   Bbb     0.0258    13.745     4.905     4.585 -0.2645  0.9644 -0.0000
              Bcc     0.0561    29.934    10.681     9.985  0.0000  0.0000  1.0000
 
              Baa    -0.0283   -15.088    -5.384    -5.033  0.8217  0.5700  0.0000
     7 H(1)   Bbb    -0.0154    -8.210    -2.929    -2.738 -0.5700  0.8217 -0.0000
              Bcc     0.0437    23.298     8.313     7.771  0.0000  0.0000  1.0000
 
              Baa    -0.0192   -10.241    -3.654    -3.416  0.0000  0.0000  1.0000
     8 H(1)   Bbb    -0.0130    -6.936    -2.475    -2.313 -0.4959  0.8684  0.0000
              Bcc     0.0322    17.176     6.129     5.729  0.8684  0.4959  0.0000
 
              Baa    -0.0138    -7.385    -2.635    -2.463  0.0000  0.0000  1.0000
     9 H(1)   Bbb    -0.0078    -4.141    -1.477    -1.381  0.9128  0.4085  0.0000
              Bcc     0.0216    11.526     4.113     3.845 -0.4085  0.9128  0.0000
 
              Baa    -0.0449   -23.982    -8.557    -7.999 -0.0196  0.9998  0.0000
    10 H(1)   Bbb     0.0136     7.245     2.585     2.417  0.9998  0.0196  0.0000
              Bcc     0.0314    16.737     5.972     5.583  0.0000  0.0000  1.0000
 

 ---------------------------------------------------------------------------------

 No NMR shielding tensors so no spin-rotation constants.
 Leave Link  601 at Fri Feb 24 16:26:15 2017, MaxMem=   134217728 cpu:         0.1
 (Enter /projects/guscus/apps/gau/g09-e1/g09/l9999.exe)

 Test job not archived.
 1\1\GINC-SULU\Stability\UHF\Gen\H10\LCJ1\24-Feb-2017\0\\#p uhf/gen scf
 (tight,novaracc,noincfock,fulldiag ) stable=opt guess=(read) geom=nocr
 owd test\\hf stability analysis of h10 triangular lattice, y= 0.440794
 55312397198 alpha= 18.600000000000001\\0,1\H\H,1,1.3819773508\H,1,1.38
 19773508,2,142.8\H,2,1.3819773508,1,37.2,3,0.,0\H,3,1.3819773508,1,180
 .,2,0.,0\H,4,1.3819773508,2,180.,1,0.,0\H,5,1.3819773508,3,180.,2,0.,0
 \H,6,1.3819773508,4,180.,1,0.,0\H,7,1.3819773508,5,180.,2,0.,0\H,8,1.3
 819773508,6,180.,1,0.,0\\Version=ES64L-G09RevE.01\HF=-4.9329005\S2=1.2
 41999\S2-1=0.\S2A=1.70169\RMSD=6.123e-09\Dipole=0.0108548,0.,0.0127988
 \Quadrupole=1.0201038,2.9442727,-3.9643765,0.,4.8883908,0.\PG=C02H [SG
 H(H10)]\\@


 BE LIKE A POSTAGE STAMP.  STICK TO ONE THING UNTIL
 YOU GET THERE -- JOSH BILLINGS
 Job cpu time:       0 days  0 hours  0 minutes  0.9 seconds.
 File lengths (MBytes):  RWF=     82 Int=      0 D2E=      0 Chk=      2 Scr=      2
 Normal termination of Gaussian 09 at Fri Feb 24 16:26:15 2017.
