 Entering Gaussian System, Link 0=g09
 AtFile(1): H.gbs
            H     0
            S   10   1.00
               1000.000000000000            0.000068713567
                316.227766000000            0.000169141320
                100.000000000000            0.000823394812
                 31.622776600000            0.003425569236
                 10.000000000000            0.013951996000
                  3.162277660000            0.056909313560
                  1.000000000000            0.198286399900
                  0.316227766000            0.496922426700
                  0.100000000000            0.369846276400
                  0.031622776600            0.003752720039
            ****
 Initial command:
 /projects/guscus/apps/gau/g09-e1/g09/l1.exe "/users/lcj1/gaussian/h10/2rows_uhf/ag2bu3/singlet/follow20/test/Gau-30299.inp" -scrdir="/users/lcj1/gaussian/h10/2rows_uhf/ag2bu3/singlet/follow20/test/"
 Entering Link 1 = /projects/guscus/apps/gau/g09-e1/g09/l1.exe PID=     30300.
  
 Copyright (c) 1988,1990,1992,1993,1995,1998,2003,2009,2015,
            Gaussian, Inc.  All Rights Reserved.
  
 This is part of the Gaussian(R) 09 program.  It is based on
 the Gaussian(R) 03 system (copyright 2003, Gaussian, Inc.),
 the Gaussian(R) 98 system (copyright 1998, Gaussian, Inc.),
 the Gaussian(R) 94 system (copyright 1995, Gaussian, Inc.),
 the Gaussian 92(TM) system (copyright 1992, Gaussian, Inc.),
 the Gaussian 90(TM) system (copyright 1990, Gaussian, Inc.),
 the Gaussian 88(TM) system (copyright 1988, Gaussian, Inc.),
 the Gaussian 86(TM) system (copyright 1986, Carnegie Mellon
 University), and the Gaussian 82(TM) system (copyright 1983,
 Carnegie Mellon University). Gaussian is a federally registered
 trademark of Gaussian, Inc.
  
 This software contains proprietary and confidential information,
 including trade secrets, belonging to Gaussian, Inc.
  
 This software is provided under written license and may be
 used, copied, transmitted, or stored only in accord with that
 written license.
  
 The following legend is applicable only to US Government
 contracts under FAR:
  
                    RESTRICTED RIGHTS LEGEND
  
 Use, reproduction and disclosure by the US Government is
 subject to restrictions as set forth in subparagraphs (a)
 and (c) of the Commercial Computer Software - Restricted
 Rights clause in FAR 52.227-19.
  
 Gaussian, Inc.
 340 Quinnipiac St., Bldg. 40, Wallingford CT 06492
  
  
 ---------------------------------------------------------------
 Warning -- This program may not be used in any manner that
 competes with the business of Gaussian, Inc. or will provide
 assistance to any competitor of Gaussian, Inc.  The licensee
 of this program is prohibited from giving any competitor of
 Gaussian, Inc. access to this program.  By using this program,
 the user acknowledges that Gaussian, Inc. is engaged in the
 business of creating and licensing software in the field of
 computational chemistry and represents and warrants to the
 licensee that it is not a competitor of Gaussian, Inc. and that
 it will not use this program in any manner prohibited above.
 ---------------------------------------------------------------
  

 Cite this work as:
 Gaussian 09, Revision E.01,
 M. J. Frisch, G. W. Trucks, H. B. Schlegel, G. E. Scuseria, 
 M. A. Robb, J. R. Cheeseman, G. Scalmani, V. Barone, B. Mennucci, 
 G. A. Petersson, H. Nakatsuji, M. Caricato, X. Li, H. P. Hratchian, 
 A. F. Izmaylov, J. Bloino, G. Zheng, J. L. Sonnenberg, M. Hada, 
 M. Ehara, K. Toyota, R. Fukuda, J. Hasegawa, M. Ishida, T. Nakajima, 
 Y. Honda, O. Kitao, H. Nakai, T. Vreven, J. A. Montgomery, Jr., 
 J. E. Peralta, F. Ogliaro, M. Bearpark, J. J. Heyd, E. Brothers, 
 K. N. Kudin, V. N. Staroverov, T. Keith, R. Kobayashi, J. Normand, 
 K. Raghavachari, A. Rendell, J. C. Burant, S. S. Iyengar, J. Tomasi, 
 M. Cossi, N. Rega, J. M. Millam, M. Klene, J. E. Knox, J. B. Cross, 
 V. Bakken, C. Adamo, J. Jaramillo, R. Gomperts, R. E. Stratmann, 
 O. Yazyev, A. J. Austin, R. Cammi, C. Pomelli, J. W. Ochterski, 
 R. L. Martin, K. Morokuma, V. G. Zakrzewski, G. A. Voth, 
 P. Salvador, J. J. Dannenberg, S. Dapprich, A. D. Daniels, 
 O. Farkas, J. B. Foresman, J. V. Ortiz, J. Cioslowski, 
 and D. J. Fox, Gaussian, Inc., Wallingford CT, 2013.
 
 ******************************************
 Gaussian 09:  ES64L-G09RevE.01 30-Nov-2015
                24-Feb-2017 
 ******************************************
 %chk=h10.chk
 ----------------------------------------------------------------------
 #p uhf/gen scf(tight,novaracc,noincfock,fulldiag ) stable=opt guess=(r
 ead) geom=nocrowd test
 ----------------------------------------------------------------------
 1/38=1/1;
 2/12=1,17=6,18=5,40=1/2;
 3/5=7,11=2,16=1,25=1,30=1,116=2/1,2,3;
 4/5=1/1;
 5/5=100002,16=1,32=2,38=6/2;
 6/7=2,8=2,9=2,10=2,28=1/1;
 8/6=1,10=90,11=11/1;
 9/8=-3,42=1,46=1/14;
 5/5=100002,8=3,16=1,17=40,32=2,38=6/8(-2);
 6/7=2,8=2,9=2,10=2,28=1/1;
 99/5=1,9=1/99;
 Leave Link    1 at Fri Feb 24 16:28:49 2017, MaxMem=           0 cpu:         0.0
 (Enter /projects/guscus/apps/gau/g09-e1/g09/l101.exe)
 ----------------------------------------------------------------------
 hf stability analysis of h10 triangular lattice, y= 0.6076437394299428
 8 alpha= 32.600000000000001
 ----------------------------------------------------------------------
 Symbolic Z-matrix:
 Charge =  0 Multiplicity = 1
 H
 H                    1     1.12783 
 H                    1     1.12783  2     114.8 
 H                    2     1.12783  1     65.2     3     0.       0
 H                    3     1.12783  1     180.     2     0.       0
 H                    4     1.12783  2     180.     1     0.       0
 H                    5     1.12783  3     180.     2     0.       0
 H                    6     1.12783  4     180.     1     0.       0
 H                    7     1.12783  5     180.     2     0.       0
 H                    8     1.12783  6     180.     1     0.       0
 
 NAtoms=     10 NQM=       10 NQMF=       0 NMMI=      0 NMMIF=      0
                NMic=       0 NMicF=      0.
                    Isotopes and Nuclear Properties:
 (Nuclear quadrupole moments (NQMom) in fm**2, nuclear magnetic moments (NMagM)
  in nuclear magnetons)

  Atom         1           2           3           4           5           6           7           8           9          10
 IAtWgt=           1           1           1           1           1           1           1           1           1           1
 AtmWgt=   1.0078250   1.0078250   1.0078250   1.0078250   1.0078250   1.0078250   1.0078250   1.0078250   1.0078250   1.0078250
 NucSpn=           1           1           1           1           1           1           1           1           1           1
 AtZEff=   0.0000000   0.0000000   0.0000000   0.0000000   0.0000000   0.0000000   0.0000000   0.0000000   0.0000000   0.0000000
 NQMom=    0.0000000   0.0000000   0.0000000   0.0000000   0.0000000   0.0000000   0.0000000   0.0000000   0.0000000   0.0000000
 NMagM=    2.7928460   2.7928460   2.7928460   2.7928460   2.7928460   2.7928460   2.7928460   2.7928460   2.7928460   2.7928460
 AtZNuc=   1.0000000   1.0000000   1.0000000   1.0000000   1.0000000   1.0000000   1.0000000   1.0000000   1.0000000   1.0000000
 Leave Link  101 at Fri Feb 24 16:28:49 2017, MaxMem=   134217728 cpu:         0.0
 (Enter /projects/guscus/apps/gau/g09-e1/g09/l202.exe)
                          Input orientation:                          
 ---------------------------------------------------------------------
 Center     Atomic      Atomic             Coordinates (Angstroms)
 Number     Number       Type             X           Y           Z
 ---------------------------------------------------------------------
      1          1           0        0.000000    0.000000    0.000000
      2          1           0        0.000000    0.000000    1.127833
      3          1           0        1.023822    0.000000   -0.473072
      4          1           0        1.023822    0.000000    0.654761
      5          1           0        2.047644    0.000000   -0.946144
      6          1           0        2.047644    0.000000    0.181689
      7          1           0        3.071465    0.000000   -1.419216
      8          1           0        3.071465    0.000000   -0.291383
      9          1           0        4.095287    0.000000   -1.892288
     10          1           0        4.095287    0.000000   -0.764455
 ---------------------------------------------------------------------
                    Distance matrix (angstroms):
                    1          2          3          4          5
     1  H    0.000000
     2  H    1.127833   0.000000
     3  H    1.127833   1.900292   0.000000
     4  H    1.215287   1.127833   1.127833   0.000000
     5  H    2.255667   2.914486   1.127833   1.900292   0.000000
     6  H    2.055689   2.255667   1.215287   1.127833   1.127833
     7  H    3.383500   3.990158   2.255667   2.914486   1.127833
     8  H    3.085256   3.383500   2.055689   2.255667   1.215287
     9  H    4.511334   5.088469   3.383500   3.990158   2.255667
    10  H    4.166026   4.511334   3.085256   3.383500   2.055689
                    6          7          8          9         10
     6  H    0.000000
     7  H    1.900292   0.000000
     8  H    1.127833   1.127833   0.000000
     9  H    2.914486   1.127833   1.900292   0.000000
    10  H    2.255667   1.215287   1.127833   1.127833   0.000000
 Stoichiometry    H10
 Framework group  C2H[SGH(H10)]
 Deg. of freedom     9
 Full point group                 C2H     NOp   4
 Largest Abelian subgroup         C2H     NOp   4
 Largest concise Abelian subgroup C2      NOp   2
                         Standard orientation:                         
 ---------------------------------------------------------------------
 Center     Atomic      Atomic             Coordinates (Angstroms)
 Number     Number       Type             X           Y           Z
 ---------------------------------------------------------------------
      1          1           0        2.047644   -0.382227    0.000000
      2          1           0        2.047644   -1.510061    0.000000
      3          1           0        1.023822    0.090845    0.000000
      4          1           0        1.023822   -1.036989    0.000000
      5          1           0        0.000000    0.563917   -0.000000
      6          1           0       -0.000000   -0.563917   -0.000000
      7          1           0       -1.023822    1.036989    0.000000
      8          1           0       -1.023822   -0.090845    0.000000
      9          1           0       -2.047644    1.510061    0.000000
     10          1           0       -2.047644    0.382227    0.000000
 ---------------------------------------------------------------------
 Rotational constants (GHZ):    196.0353908     19.2407012     17.5210277
 Leave Link  202 at Fri Feb 24 16:28:49 2017, MaxMem=   134217728 cpu:         0.0
 (Enter /projects/guscus/apps/gau/g09-e1/g09/l301.exe)
 General basis read from cards:  (5D, 7F)
 Centers:       1      2      3      4      5      6      7      8      9     10
 S 10 1.00
     Exponent=  1.0000000000D+03 Coefficients=  6.8713567000D-05
     Exponent=  3.1622776600D+02 Coefficients=  1.6914132000D-04
     Exponent=  1.0000000000D+02 Coefficients=  8.2339481200D-04
     Exponent=  3.1622776600D+01 Coefficients=  3.4255692360D-03
     Exponent=  1.0000000000D+01 Coefficients=  1.3951996000D-02
     Exponent=  3.1622776600D+00 Coefficients=  5.6909313560D-02
     Exponent=  1.0000000000D+00 Coefficients=  1.9828639990D-01
     Exponent=  3.1622776600D-01 Coefficients=  4.9692242670D-01
     Exponent=  1.0000000000D-01 Coefficients=  3.6984627640D-01
     Exponent=  3.1622776600D-02 Coefficients=  3.7527200390D-03
 ****
 Ernie: Thresh=  0.10000D-02 Tol=  0.10000D-05 Strict=F.
 There are     5 symmetry adapted cartesian basis functions of AG  symmetry.
 There are     0 symmetry adapted cartesian basis functions of BG  symmetry.
 There are     0 symmetry adapted cartesian basis functions of AU  symmetry.
 There are     5 symmetry adapted cartesian basis functions of BU  symmetry.
 There are     5 symmetry adapted basis functions of AG  symmetry.
 There are     0 symmetry adapted basis functions of BG  symmetry.
 There are     0 symmetry adapted basis functions of AU  symmetry.
 There are     5 symmetry adapted basis functions of BU  symmetry.
    10 basis functions,   100 primitive gaussians,    10 cartesian basis functions
     5 alpha electrons        5 beta electrons
       nuclear repulsion energy        13.3792469240 Hartrees.
 IExCor=    0 DFT=F Ex=HF Corr=None ExCW=0 ScaHFX=  1.000000
 ScaDFX=  1.000000  1.000000  1.000000  1.000000 ScalE2=  1.000000  1.000000
 IRadAn=      0 IRanWt=     -1 IRanGd=            0 ICorTp=0 IEmpDi=  4
 NAtoms=   10 NActive=   10 NUniq=    5 SFac= 4.00D+00 NAtFMM=   60 NAOKFM=F Big=F
 Integral buffers will be    131072 words long.
 Raffenetti 2 integral format.
 Two-electron integral symmetry is turned on.
 Leave Link  301 at Fri Feb 24 16:28:49 2017, MaxMem=   134217728 cpu:         0.0
 (Enter /projects/guscus/apps/gau/g09-e1/g09/l302.exe)
 NPDir=0 NMtPBC=     1 NCelOv=     1 NCel=       1 NClECP=     1 NCelD=      1
         NCelK=      1 NCelE2=     1 NClLst=     1 CellRange=     0.0.
 One-electron integrals computed using PRISM.
 One-electron integral symmetry used in STVInt
 NBasis=    10 RedAO= T EigKep=  1.68D-01  NBF=     5     0     0     5
 NBsUse=    10 1.00D-06 EigRej= -1.00D+00 NBFU=     5     0     0     5
 Leave Link  302 at Fri Feb 24 16:28:49 2017, MaxMem=   134217728 cpu:         0.0
 (Enter /projects/guscus/apps/gau/g09-e1/g09/l303.exe)
 DipDrv:  MaxL=1.
 Leave Link  303 at Fri Feb 24 16:28:49 2017, MaxMem=   134217728 cpu:         0.0
 (Enter /projects/guscus/apps/gau/g09-e1/g09/l401.exe)
 Initial guess from the checkpoint file:  "h10.chk"
 B after Tr=     0.000000   -0.000000   -0.000000
         Rot=    0.999995   -0.000000   -0.000000   -0.003103 Ang=  -0.36 deg.
 Guess basis will be translated and rotated to current coordinates.
 JPrj=2 DoOrth=T DoCkMO=T.
 Initial guess orbital symmetries:
 Alpha Orbitals:
       Occupied  (BG) (BG) (BG) (BG) (BG)
       Virtual   (BG) (BG) (BG) (BG) (BG)
 Beta  Orbitals:
       Occupied  (BG) (BG) (BG) (BG) (BG)
       Virtual   (BG) (BG) (BG) (BG) (BG)
 Initial guess <Sx>= 0.0000 <Sy>= 0.0000 <Sz>= 0.0000 <S**2>= 1.2469 S= 0.7235
 Leave Link  401 at Fri Feb 24 16:28:50 2017, MaxMem=   134217728 cpu:         0.0
 (Enter /projects/guscus/apps/gau/g09-e1/g09/l502.exe)
 UHF open shell SCF:
 Using DIIS extrapolation, IDIIS=  1040.
 Integral symmetry usage will be decided dynamically.
 Keep R1 and R2 ints in memory in symmetry-blocked form, NReq=879481.
 IVT=       20217 IEndB=       20217 NGot=   134217728 MDV=   134195632
 LenX=   134195632 LenY=   134194750
 Requested convergence on RMS density matrix=1.00D-08 within 128 cycles.
 Requested convergence on MAX density matrix=1.00D-06.
 Requested convergence on             energy=1.00D-06.
 No special actions if energy rises.
 FoFCou: FMM=F IPFlag=           0 FMFlag=           0 FMFlg1=           0
         NFxFlg=           0 DoJE=F BraDBF=F KetDBF=F FulRan=T
         wScrn=  0.000000 ICntrl=     600 IOpCl=  0 I1Cent=           0 NGrid=           0
         NMat0=    1 NMatS0=     55 NMatT0=    0 NMatD0=    1 NMtDS0=    0 NMtDT0=    0
 Petite list used in FoFCou.
 An orbital has undefined symmetry, so N**3 symmetry is turned off.

 Cycle   1  Pass 1  IDiag  1:
 Density matrix breaks symmetry, PCut= 1.00D-04
 Density matrix has no symmetry -- integrals replicated.
 E= -4.91359334523291    
 DIIS: error= 3.49D-04 at cycle   1 NSaved=   1.
 NSaved= 1 IEnMin= 1 EnMin= -4.91359334523291     IErMin= 1 ErrMin= 3.49D-04
 ErrMax= 3.49D-04  0.00D+00 EMaxC= 1.00D-01 BMatC= 1.43D-05 BMatP= 1.43D-05
 IDIUse=3 WtCom= 9.97D-01 WtEn= 3.49D-03
 Coeff-Com:  0.100D+01
 Coeff-En:   0.100D+01
 Coeff:      0.100D+01
 Gap=     0.404 Goal=   None    Shift=    0.000
 Gap=     0.404 Goal=   None    Shift=    0.000
 RMSDP=9.17D-04 MaxDP=2.30D-03              OVMax= 0.00D+00

 Cycle   2  Pass 1  IDiag  1:
 Density matrix breaks symmetry, PCut= 1.00D-07
 Density matrix has no symmetry -- integrals replicated.
 E= -4.91360978440385     Delta-E=       -0.000016439171 Rises=F Damp=F
 DIIS: error= 2.17D-04 at cycle   2 NSaved=   2.
 NSaved= 2 IEnMin= 2 EnMin= -4.91360978440385     IErMin= 2 ErrMin= 2.17D-04
 ErrMax= 2.17D-04  0.00D+00 EMaxC= 1.00D-01 BMatC= 4.26D-06 BMatP= 1.43D-05
 IDIUse=3 WtCom= 9.98D-01 WtEn= 2.17D-03
 Coeff-Com: -0.573D+00 0.157D+01
 Coeff-En:   0.000D+00 0.100D+01
 Coeff:     -0.572D+00 0.157D+01
 Gap=     0.404 Goal=   None    Shift=    0.000
 Gap=     0.404 Goal=   None    Shift=    0.000
 RMSDP=8.33D-04 MaxDP=2.03D-03 DE=-1.64D-05 OVMax= 0.00D+00

 Cycle   3  Pass 1  IDiag  1:
 Density matrix breaks symmetry, PCut= 1.00D-07
 Density matrix has no symmetry -- integrals replicated.
 E= -4.91361817538605     Delta-E=       -0.000008390982 Rises=F Damp=F
 DIIS: error= 1.42D-04 at cycle   3 NSaved=   3.
 NSaved= 3 IEnMin= 3 EnMin= -4.91361817538605     IErMin= 3 ErrMin= 1.42D-04
 ErrMax= 1.42D-04  0.00D+00 EMaxC= 1.00D-01 BMatC= 1.51D-06 BMatP= 4.26D-06
 IDIUse=3 WtCom= 9.99D-01 WtEn= 1.42D-03
 Coeff-Com:  0.787D+00-0.255D+01 0.276D+01
 Coeff-En:   0.000D+00 0.000D+00 0.100D+01
 Coeff:      0.786D+00-0.255D+01 0.276D+01
 Gap=     0.404 Goal=   None    Shift=    0.000
 Gap=     0.404 Goal=   None    Shift=    0.000
 RMSDP=8.58D-04 MaxDP=2.36D-03 DE=-8.39D-06 OVMax= 0.00D+00

 Cycle   4  Pass 1  IDiag  1:
 Density matrix breaks symmetry, PCut= 1.00D-07
 Density matrix has no symmetry -- integrals replicated.
 E= -4.91362244630275     Delta-E=       -0.000004270917 Rises=F Damp=F
 DIIS: error= 5.19D-05 at cycle   4 NSaved=   4.
 NSaved= 4 IEnMin= 4 EnMin= -4.91362244630275     IErMin= 4 ErrMin= 5.19D-05
 ErrMax= 5.19D-05  0.00D+00 EMaxC= 1.00D-01 BMatC= 2.13D-07 BMatP= 1.51D-06
 IDIUse=1 WtCom= 1.00D+00 WtEn= 0.00D+00
 Coeff-Com: -0.459D+00 0.162D+01-0.211D+01 0.195D+01
 Coeff:     -0.459D+00 0.162D+01-0.211D+01 0.195D+01
 Gap=     0.405 Goal=   None    Shift=    0.000
 Gap=     0.405 Goal=   None    Shift=    0.000
 RMSDP=2.84D-04 MaxDP=1.11D-03 DE=-4.27D-06 OVMax= 0.00D+00

 Cycle   5  Pass 1  IDiag  1:
 Density matrix breaks symmetry, PCut= 1.00D-07
 Density matrix has no symmetry -- integrals replicated.
 E= -4.91362294103352     Delta-E=       -0.000000494731 Rises=F Damp=F
 DIIS: error= 1.40D-05 at cycle   5 NSaved=   5.
 NSaved= 5 IEnMin= 5 EnMin= -4.91362294103352     IErMin= 5 ErrMin= 1.40D-05
 ErrMax= 1.40D-05  0.00D+00 EMaxC= 1.00D-01 BMatC= 1.66D-08 BMatP= 2.13D-07
 IDIUse=1 WtCom= 1.00D+00 WtEn= 0.00D+00
 Coeff-Com:  0.468D-02-0.376D-01 0.947D-01-0.334D+00 0.127D+01
 Coeff:      0.468D-02-0.376D-01 0.947D-01-0.334D+00 0.127D+01
 Gap=     0.405 Goal=   None    Shift=    0.000
 Gap=     0.405 Goal=   None    Shift=    0.000
 RMSDP=5.90D-05 MaxDP=2.50D-04 DE=-4.95D-07 OVMax= 0.00D+00

 Cycle   6  Pass 1  IDiag  1:
 Density matrix breaks symmetry, PCut= 1.00D-07
 Density matrix has no symmetry -- integrals replicated.
 E= -4.91362297918145     Delta-E=       -0.000000038148 Rises=F Damp=F
 DIIS: error= 7.87D-06 at cycle   6 NSaved=   6.
 NSaved= 6 IEnMin= 6 EnMin= -4.91362297918145     IErMin= 6 ErrMin= 7.87D-06
 ErrMax= 7.87D-06  0.00D+00 EMaxC= 1.00D-01 BMatC= 4.14D-09 BMatP= 1.66D-08
 IDIUse=1 WtCom= 1.00D+00 WtEn= 0.00D+00
 Coeff-Com:  0.428D-01-0.140D+00 0.152D+00-0.881D-02-0.851D+00 0.180D+01
 Coeff:      0.428D-01-0.140D+00 0.152D+00-0.881D-02-0.851D+00 0.180D+01
 Gap=     0.405 Goal=   None    Shift=    0.000
 Gap=     0.405 Goal=   None    Shift=    0.000
 RMSDP=3.61D-05 MaxDP=1.50D-04 DE=-3.81D-08 OVMax= 0.00D+00

 Cycle   7  Pass 1  IDiag  1:
 Density matrix breaks symmetry, PCut= 1.00D-07
 Density matrix has no symmetry -- integrals replicated.
 E= -4.91362299223152     Delta-E=       -0.000000013050 Rises=F Damp=F
 DIIS: error= 3.71D-06 at cycle   7 NSaved=   7.
 NSaved= 7 IEnMin= 7 EnMin= -4.91362299223152     IErMin= 7 ErrMin= 3.71D-06
 ErrMax= 3.71D-06  0.00D+00 EMaxC= 1.00D-01 BMatC= 1.03D-09 BMatP= 4.14D-09
 IDIUse=1 WtCom= 1.00D+00 WtEn= 0.00D+00
 Coeff-Com: -0.554D-01 0.190D+00-0.226D+00 0.128D+00 0.610D+00-0.192D+01
 Coeff-Com:  0.227D+01
 Coeff:     -0.554D-01 0.190D+00-0.226D+00 0.128D+00 0.610D+00-0.192D+01
 Coeff:      0.227D+01
 Gap=     0.405 Goal=   None    Shift=    0.000
 Gap=     0.405 Goal=   None    Shift=    0.000
 RMSDP=2.35D-05 MaxDP=6.20D-05 DE=-1.31D-08 OVMax= 0.00D+00

 Cycle   8  Pass 1  IDiag  1:
 Density matrix breaks symmetry, PCut= 1.00D-07
 Density matrix has no symmetry -- integrals replicated.
 E= -4.91362299624843     Delta-E=       -0.000000004017 Rises=F Damp=F
 DIIS: error= 1.65D-06 at cycle   8 NSaved=   8.
 NSaved= 8 IEnMin= 8 EnMin= -4.91362299624843     IErMin= 8 ErrMin= 1.65D-06
 ErrMax= 1.65D-06  0.00D+00 EMaxC= 1.00D-01 BMatC= 2.04D-10 BMatP= 1.03D-09
 IDIUse=1 WtCom= 1.00D+00 WtEn= 0.00D+00
 Coeff-Com:  0.663D-01-0.227D+00 0.271D+00-0.164D+00-0.650D+00 0.220D+01
 Coeff-Com: -0.303D+01 0.254D+01
 Coeff:      0.663D-01-0.227D+00 0.271D+00-0.164D+00-0.650D+00 0.220D+01
 Coeff:     -0.303D+01 0.254D+01
 Gap=     0.405 Goal=   None    Shift=    0.000
 Gap=     0.405 Goal=   None    Shift=    0.000
 RMSDP=1.26D-05 MaxDP=3.29D-05 DE=-4.02D-09 OVMax= 0.00D+00

 Cycle   9  Pass 1  IDiag  1:
 Density matrix breaks symmetry, PCut= 1.00D-07
 Density matrix has no symmetry -- integrals replicated.
 E= -4.91362299701656     Delta-E=       -0.000000000768 Rises=F Damp=F
 DIIS: error= 3.50D-07 at cycle   9 NSaved=   9.
 NSaved= 9 IEnMin= 9 EnMin= -4.91362299701656     IErMin= 9 ErrMin= 3.50D-07
 ErrMax= 3.50D-07  0.00D+00 EMaxC= 1.00D-01 BMatC= 1.39D-11 BMatP= 2.04D-10
 IDIUse=1 WtCom= 1.00D+00 WtEn= 0.00D+00
 Coeff-Com: -0.353D-01 0.121D+00-0.145D+00 0.907D-01 0.333D+00-0.116D+01
 Coeff-Com:  0.166D+01-0.163D+01 0.176D+01
 Coeff:     -0.353D-01 0.121D+00-0.145D+00 0.907D-01 0.333D+00-0.116D+01
 Coeff:      0.166D+01-0.163D+01 0.176D+01
 Gap=     0.405 Goal=   None    Shift=    0.000
 Gap=     0.405 Goal=   None    Shift=    0.000
 RMSDP=2.71D-06 MaxDP=7.80D-06 DE=-7.68D-10 OVMax= 0.00D+00

 Cycle  10  Pass 1  IDiag  1:
 Density matrix breaks symmetry, PCut= 1.00D-07
 Density matrix has no symmetry -- integrals replicated.
 E= -4.91362299705460     Delta-E=       -0.000000000038 Rises=F Damp=F
 DIIS: error= 1.05D-07 at cycle  10 NSaved=  10.
 NSaved=10 IEnMin=10 EnMin= -4.91362299705460     IErMin=10 ErrMin= 1.05D-07
 ErrMax= 1.05D-07  0.00D+00 EMaxC= 1.00D-01 BMatC= 1.06D-12 BMatP= 1.39D-11
 IDIUse=1 WtCom= 1.00D+00 WtEn= 0.00D+00
 Coeff-Com:  0.289D-01-0.992D-01 0.119D+00-0.733D-01-0.277D+00 0.958D+00
 Coeff-Com: -0.137D+01 0.136D+01-0.166D+01 0.201D+01
 Coeff:      0.289D-01-0.992D-01 0.119D+00-0.733D-01-0.277D+00 0.958D+00
 Coeff:     -0.137D+01 0.136D+01-0.166D+01 0.201D+01
 Gap=     0.405 Goal=   None    Shift=    0.000
 Gap=     0.405 Goal=   None    Shift=    0.000
 RMSDP=4.74D-07 MaxDP=1.68D-06 DE=-3.80D-11 OVMax= 0.00D+00

 Cycle  11  Pass 1  IDiag  1:
 Density matrix breaks symmetry, PCut= 1.00D-07
 Density matrix has no symmetry -- integrals replicated.
 E= -4.91362299705650     Delta-E=       -0.000000000002 Rises=F Damp=F
 DIIS: error= 2.33D-08 at cycle  11 NSaved=  11.
 NSaved=11 IEnMin=11 EnMin= -4.91362299705650     IErMin=11 ErrMin= 2.33D-08
 ErrMax= 2.33D-08  0.00D+00 EMaxC= 1.00D-01 BMatC= 5.16D-14 BMatP= 1.06D-12
 IDIUse=1 WtCom= 1.00D+00 WtEn= 0.00D+00
 Coeff-Com: -0.121D-01 0.415D-01-0.496D-01 0.304D-01 0.119D+00-0.409D+00
 Coeff-Com:  0.581D+00-0.583D+00 0.737D+00-0.103D+01 0.158D+01
 Coeff:     -0.121D-01 0.415D-01-0.496D-01 0.304D-01 0.119D+00-0.409D+00
 Coeff:      0.581D+00-0.583D+00 0.737D+00-0.103D+01 0.158D+01
 Gap=     0.405 Goal=   None    Shift=    0.000
 Gap=     0.405 Goal=   None    Shift=    0.000
 RMSDP=8.90D-08 MaxDP=3.50D-07 DE=-1.91D-12 OVMax= 0.00D+00

 Cycle  12  Pass 1  IDiag  1:
 Density matrix breaks symmetry, PCut= 1.00D-07
 Density matrix has no symmetry -- integrals replicated.
 E= -4.91362299705657     Delta-E=       -0.000000000000 Rises=F Damp=F
 DIIS: error= 6.34D-09 at cycle  12 NSaved=  12.
 NSaved=12 IEnMin=12 EnMin= -4.91362299705657     IErMin=12 ErrMin= 6.34D-09
 ErrMax= 6.34D-09  0.00D+00 EMaxC= 1.00D-01 BMatC= 2.31D-15 BMatP= 5.16D-14
 IDIUse=1 WtCom= 1.00D+00 WtEn= 0.00D+00
 Coeff-Com:  0.366D-02-0.126D-01 0.150D-01-0.911D-02-0.373D-01 0.126D+00
 Coeff-Com: -0.178D+00 0.179D+00-0.231D+00 0.323D+00-0.611D+00 0.143D+01
 Coeff:      0.366D-02-0.126D-01 0.150D-01-0.911D-02-0.373D-01 0.126D+00
 Coeff:     -0.178D+00 0.179D+00-0.231D+00 0.323D+00-0.611D+00 0.143D+01
 Gap=     0.405 Goal=   None    Shift=    0.000
 Gap=     0.405 Goal=   None    Shift=    0.000
 RMSDP=2.29D-08 MaxDP=8.33D-08 DE=-7.11D-14 OVMax= 0.00D+00

 Cycle  13  Pass 1  IDiag  1:
 Density matrix breaks symmetry, PCut= 1.00D-07
 Density matrix has no symmetry -- integrals replicated.
 E= -4.91362299705658     Delta-E=       -0.000000000000 Rises=F Damp=F
 DIIS: error= 2.54D-09 at cycle  13 NSaved=  13.
 NSaved=13 IEnMin=13 EnMin= -4.91362299705658     IErMin=13 ErrMin= 2.54D-09
 ErrMax= 2.54D-09  0.00D+00 EMaxC= 1.00D-01 BMatC= 2.89D-16 BMatP= 2.31D-15
 IDIUse=1 WtCom= 1.00D+00 WtEn= 0.00D+00
 Coeff-Com: -0.225D-03 0.774D-03-0.919D-03 0.517D-03 0.306D-02-0.953D-02
 Coeff-Com:  0.128D-01-0.132D-01 0.201D-01-0.282D-01 0.110D+00-0.648D+00
 Coeff-Com:  0.155D+01
 Coeff:     -0.225D-03 0.774D-03-0.919D-03 0.517D-03 0.306D-02-0.953D-02
 Coeff:      0.128D-01-0.132D-01 0.201D-01-0.282D-01 0.110D+00-0.648D+00
 Coeff:      0.155D+01
 Gap=     0.405 Goal=   None    Shift=    0.000
 Gap=     0.405 Goal=   None    Shift=    0.000
 RMSDP=9.03D-09 MaxDP=2.56D-08 DE=-3.55D-15 OVMax= 0.00D+00

 Density matrix breaks symmetry, PCut= 1.00D-07
 Density matrix has no symmetry -- integrals replicated.
 SCF Done:  E(UHF) =  -4.91362299706     A.U. after   13 cycles
            NFock= 13  Conv=0.90D-08     -V/T= 1.9382
 <Sx>= 0.0000 <Sy>= 0.0000 <Sz>= 0.0000 <S**2>= 1.2566 S= 0.7274
 <L.S>= 0.000000000000E+00
 KE= 5.237504973050D+00 PE=-3.599647262703D+01 EE= 1.246609773293D+01
 Annihilation of the first spin contaminant:
 S**2 before annihilation     1.2566,   after     2.2171
 Leave Link  502 at Fri Feb 24 16:28:50 2017, MaxMem=   134217728 cpu:         0.1
 (Enter /projects/guscus/apps/gau/g09-e1/g09/l601.exe)
 Copying SCF densities to generalized density rwf, IOpCl= 1 IROHF=0.

 **********************************************************************

            Population analysis using the SCF density.

 **********************************************************************

 Orbital symmetries:
 Alpha Orbitals:
       Occupied  (BG) (BG) (BG) (BG) (BG)
       Virtual   (BG) (BG) (BG) (BG) (BG)
 Beta  Orbitals:
       Occupied  (BG) (BG) (BG) (BG) (BG)
       Virtual   (BG) (BG) (BG) (BG) (BG)
 Unable to determine electronic state:  partially filled degenerate orbitals.
 Alpha  occ. eigenvalues --   -0.85513  -0.74244  -0.56242  -0.39379  -0.35961
 Alpha virt. eigenvalues --    0.04518   0.21940   0.29497   0.55269   0.67228
  Beta  occ. eigenvalues --   -0.85513  -0.74244  -0.56242  -0.39379  -0.35961
  Beta virt. eigenvalues --    0.04518   0.21940   0.29497   0.55269   0.67228
          Condensed to atoms (all electrons):
               1          2          3          4          5          6
     1  H    0.944468   0.155935   0.154238  -0.147133  -0.001255  -0.119307
     2  H    0.155935   0.890352  -0.135255   0.084954  -0.008193  -0.025396
     3  H    0.154238  -0.135255   1.126353  -0.039201   0.174631  -0.099235
     4  H   -0.147133   0.084954  -0.039201   0.920183  -0.107465   0.274458
     5  H   -0.001255  -0.008193   0.174631  -0.107465   0.973834  -0.043155
     6  H   -0.119307  -0.025396  -0.099235   0.274458  -0.043155   0.973834
     7  H    0.003556   0.002990  -0.017981  -0.017835   0.274458  -0.107465
     8  H    0.002022   0.007304  -0.113611  -0.017981  -0.099235   0.174631
     9  H   -0.000531  -0.000240   0.007304   0.002990  -0.025396  -0.008193
    10  H    0.001379  -0.000531   0.002022   0.003556  -0.119307  -0.001255
               7          8          9         10
     1  H    0.003556   0.002022  -0.000531   0.001379
     2  H    0.002990   0.007304  -0.000240  -0.000531
     3  H   -0.017981  -0.113611   0.007304   0.002022
     4  H   -0.017835  -0.017981   0.002990   0.003556
     5  H    0.274458  -0.099235  -0.025396  -0.119307
     6  H   -0.107465   0.174631  -0.008193  -0.001255
     7  H    0.920183  -0.039201   0.084954  -0.147133
     8  H   -0.039201   1.126353  -0.135255   0.154238
     9  H    0.084954  -0.135255   0.890352   0.155935
    10  H   -0.147133   0.154238   0.155935   0.944468
          Atomic-Atomic Spin Densities.
               1          2          3          4          5          6
     1  H    0.680052   0.114149  -0.105826  -0.187494   0.009151  -0.043423
     2  H    0.114149  -0.676201   0.104052  -0.095512  -0.009449  -0.005785
     3  H   -0.105826   0.104052  -0.667711  -0.044489   0.191800   0.088056
     4  H   -0.187494  -0.095512  -0.044489   0.699496  -0.064308   0.169444
     5  H    0.009151  -0.009449   0.191800  -0.064308   0.308376  -0.000000
     6  H   -0.043423  -0.005785   0.088056   0.169444  -0.000000  -0.308376
     7  H    0.001912  -0.002928   0.031967   0.000000  -0.169444   0.064308
     8  H    0.015981   0.001791   0.000000  -0.031967  -0.088056  -0.191800
     9  H   -0.001294  -0.000000  -0.001791   0.002928   0.005785   0.009449
    10  H    0.000000   0.001294  -0.015981  -0.001912   0.043423  -0.009151
               7          8          9         10
     1  H    0.001912   0.015981  -0.001294   0.000000
     2  H   -0.002928   0.001791  -0.000000   0.001294
     3  H    0.031967   0.000000  -0.001791  -0.015981
     4  H    0.000000  -0.031967   0.002928  -0.001912
     5  H   -0.169444  -0.088056   0.005785   0.043423
     6  H    0.064308  -0.191800   0.009449  -0.009151
     7  H   -0.699496   0.044489   0.095512   0.187494
     8  H    0.044489   0.667711  -0.104052   0.105826
     9  H    0.095512  -0.104052   0.676201  -0.114149
    10  H    0.187494   0.105826  -0.114149  -0.680052
 Mulliken charges and spin densities:
               1          2
     1  H    0.006629   0.483208
     2  H    0.028080  -0.568590
     3  H   -0.059266  -0.419923
     4  H    0.043475   0.446186
     5  H   -0.018918   0.227276
     6  H   -0.018918  -0.227276
     7  H    0.043475  -0.446186
     8  H   -0.059266   0.419923
     9  H    0.028080   0.568590
    10  H    0.006629  -0.483208
 Sum of Mulliken charges =  -0.00000   0.00000
 Mulliken charges and spin densities with hydrogens summed into heavy atoms:
               1          2
 Electronic spatial extent (au):  <R**2>=            132.5957
 Charge=             -0.0000 electrons
 Dipole moment (field-independent basis, Debye):
    X=             -0.0000    Y=              0.0000    Z=              0.0000  Tot=              0.0000
 Quadrupole moment (field-independent basis, Debye-Ang):
   XX=            -14.0827   YY=            -13.9185   ZZ=            -12.8760
   XY=             -1.6758   XZ=             -0.0000   YZ=             -0.0000
 Traceless Quadrupole moment (field-independent basis, Debye-Ang):
   XX=             -0.4569   YY=             -0.2927   ZZ=              0.7497
   XY=             -1.6758   XZ=             -0.0000   YZ=             -0.0000
 Octapole moment (field-independent basis, Debye-Ang**2):
  XXX=             -0.0000  YYY=              0.0000  ZZZ=             -0.0000  XYY=             -0.0000
  XXY=              0.0000  XXZ=             -0.0000  XZZ=             -0.0000  YZZ=              0.0000
  YYZ=             -0.0000  XYZ=             -0.0000
 Hexadecapole moment (field-independent basis, Debye-Ang**3):
 XXXX=           -198.1819 YYYY=            -79.9540 ZZZZ=            -15.5080 XXXY=             37.2399
 XXXZ=             -0.0000 YYYX=             36.3750 YYYZ=              0.0000 ZZZX=             -0.0000
 ZZZY=              0.0000 XXYY=            -43.3673 XXZZ=            -33.4861 YYZZ=            -15.8784
 XXYZ=              0.0000 YYXZ=             -0.0000 ZZXY=             12.3722
 N-N= 1.337924692399D+01 E-N=-3.599647264159D+01  KE= 5.237504973050D+00
 Symmetry AG   KE= 2.236791032235D+00
 Symmetry BG   KE= 0.000000000000D+00
 Symmetry AU   KE= 0.000000000000D+00
 Symmetry BU   KE= 3.000713940815D+00
                          Isotropic Fermi Contact Couplings
        Atom                 a.u.       MegaHertz       Gauss      10(-4) cm-1
     1  H(1)               0.18701     417.95561     149.13695     139.41499
     2  H(1)              -0.19962    -446.14843    -159.19685    -148.81910
     3  H(1)              -0.18206    -406.88860    -145.18797    -135.72343
     4  H(1)               0.19154     428.07042     152.74616     142.78892
     5  H(1)               0.08562     191.35620      68.28065      63.82956
     6  H(1)              -0.08562    -191.35620     -68.28065     -63.82956
     7  H(1)              -0.19154    -428.07042    -152.74616    -142.78892
     8  H(1)               0.18206     406.88860     145.18797     135.72343
     9  H(1)               0.19962     446.14843     159.19685     148.81910
    10  H(1)              -0.18701    -417.95561    -149.13695    -139.41499
 --------------------------------------------------------
       Center         ----  Spin Dipole Couplings  ----
                      3XX-RR        3YY-RR        3ZZ-RR
 --------------------------------------------------------
     1   Atom       -0.002623     -0.052572      0.055195
     2   Atom        0.005922      0.051207     -0.057129
     3   Atom        0.040011      0.029462     -0.069473
     4   Atom        0.000103     -0.058009      0.057906
     5   Atom       -0.040154     -0.009152      0.049307
     6   Atom        0.040154      0.009152     -0.049307
     7   Atom       -0.000103      0.058009     -0.057906
     8   Atom       -0.040011     -0.029462      0.069473
     9   Atom       -0.005922     -0.051207      0.057129
    10   Atom        0.002623      0.052572     -0.055195
 --------------------------------------------------------
                        XY            XZ            YZ
 --------------------------------------------------------
     1   Atom        0.066842     -0.000000      0.000000
     2   Atom       -0.004412      0.000000     -0.000000
     3   Atom       -0.040904     -0.000000     -0.000000
     4   Atom        0.068800     -0.000000      0.000000
     5   Atom        0.073717      0.000000     -0.000000
     6   Atom       -0.073717      0.000000     -0.000000
     7   Atom       -0.068800      0.000000      0.000000
     8   Atom        0.040904      0.000000     -0.000000
     9   Atom        0.004412      0.000000     -0.000000
    10   Atom       -0.066842     -0.000000      0.000000
 --------------------------------------------------------


 ---------------------------------------------------------------------------------
              Anisotropic Spin Dipole Couplings in Principal Axis System
 ---------------------------------------------------------------------------------

       Atom             a.u.   MegaHertz   Gauss  10(-4) cm-1        Axes

              Baa    -0.0990   -52.797   -18.839   -17.611 -0.5701  0.8216  0.0000
     1 H(1)   Bbb     0.0438    23.347     8.331     7.788  0.8216  0.5701  0.0000
              Bcc     0.0552    29.449    10.508     9.823  0.0000  0.0000  1.0000
 
              Baa    -0.0571   -30.482   -10.877   -10.168  0.0000  0.0000  1.0000
     2 H(1)   Bbb     0.0055     2.933     1.046     0.978  0.9954  0.0961  0.0000
              Bcc     0.0516    27.549     9.830     9.189 -0.0961  0.9954  0.0000
 
              Baa    -0.0695   -37.068   -13.227   -12.364  0.0000  0.0000  1.0000
     3 H(1)   Bbb    -0.0065    -3.471    -1.239    -1.158  0.6603  0.7510  0.0000
              Bcc     0.0760    40.539    14.465    13.522  0.7510 -0.6603  0.0000
 
              Baa    -0.1036   -55.296   -19.731   -18.445 -0.5527  0.8334  0.0000
     4 H(1)   Bbb     0.0457    24.400     8.707     8.139  0.8334  0.5527  0.0000
              Bcc     0.0579    30.896    11.024    10.306  0.0000  0.0000  1.0000
 
              Baa    -0.1000   -53.346   -19.035   -17.794  0.7765 -0.6302  0.0000
     5 H(1)   Bbb     0.0493    26.308     9.387     8.775  0.0000  0.0000  1.0000
              Bcc     0.0507    27.038     9.648     9.019  0.6302  0.7765  0.0000
 
              Baa    -0.0507   -27.038    -9.648    -9.019  0.6302  0.7765  0.0000
     6 H(1)   Bbb    -0.0493   -26.308    -9.387    -8.775  0.0000  0.0000  1.0000
              Bcc     0.1000    53.346    19.035    17.794  0.7765 -0.6302  0.0000
 
              Baa    -0.0579   -30.896   -11.024   -10.306  0.0000  0.0000  1.0000
     7 H(1)   Bbb    -0.0457   -24.400    -8.707    -8.139  0.8334  0.5527 -0.0000
              Bcc     0.1036    55.296    19.731    18.445 -0.5527  0.8334  0.0000
 
              Baa    -0.0760   -40.539   -14.465   -13.522  0.7510 -0.6603  0.0000
     8 H(1)   Bbb     0.0065     3.471     1.239     1.158  0.6603  0.7510  0.0000
              Bcc     0.0695    37.068    13.227    12.364  0.0000  0.0000  1.0000
 
              Baa    -0.0516   -27.549    -9.830    -9.189 -0.0961  0.9954  0.0000
     9 H(1)   Bbb    -0.0055    -2.933    -1.046    -0.978  0.9954  0.0961  0.0000
              Bcc     0.0571    30.482    10.877    10.168  0.0000  0.0000  1.0000
 
              Baa    -0.0552   -29.449   -10.508    -9.823  0.0000  0.0000  1.0000
    10 H(1)   Bbb    -0.0438   -23.347    -8.331    -7.788  0.8216  0.5701  0.0000
              Bcc     0.0990    52.797    18.839    17.611 -0.5701  0.8216  0.0000
 

 ---------------------------------------------------------------------------------

 No NMR shielding tensors so no spin-rotation constants.
 Leave Link  601 at Fri Feb 24 16:28:50 2017, MaxMem=   134217728 cpu:         0.1
 (Enter /projects/guscus/apps/gau/g09-e1/g09/l801.exe)
 Range of M.O.s used for correlation:     1    10
 NBasis=    10 NAE=     5 NBE=     5 NFC=     0 NFV=     0
 NROrb=     10 NOA=     5 NOB=     5 NVA=     5 NVB=     5
 Leave Link  801 at Fri Feb 24 16:28:50 2017, MaxMem=   134217728 cpu:         0.0
 (Enter /projects/guscus/apps/gau/g09-e1/g09/l914.exe)
 UHF ground state
 Doing stability rather than CIS.
 MDV=   134217728 DFT=F DoStab=T Mixed=F DoRPA=F DoScal=F NonHer=F
 Keep R1 and R2 ints in memory in symmetry-blocked form, NReq=802982.
 FoFCou: FMM=F IPFlag=           0 FMFlag=           0 FMFlg1=           0
         NFxFlg=           0 DoJE=F BraDBF=F KetDBF=F FulRan=T
         wScrn=  0.000000 ICntrl=     600 IOpCl=  0 I1Cent=           0 NGrid=           0
         NMat0=    1 NMatS0=     55 NMatT0=    0 NMatD0=    1 NMtDS0=    0 NMtDT0=    0
 Petite list used in FoFCou.
 Making orbital integer symmetry assigments:
 Orbital symmetries:
 Alpha Orbitals:
       Occupied  (BG) (BG) (BG) (BG) (BG)
       Virtual   (BG) (BG) (BG) (BG) (BG)
 Beta  Orbitals:
       Occupied  (BG) (BG) (BG) (BG) (BG)
       Virtual   (BG) (BG) (BG) (BG) (BG)
    12 initial guesses have been made.
 Convergence on wavefunction:    0.001000000000000
 Davidson Disk Diagonalization:  ConvIn= 1.00D-03 SkipCon=T Conv= 1.00D-03.
 Max sub-space:   200 roots to seek:    12 dimension of matrix:           50
 Iteration     1 Dimension    12 NMult     0 NNew     12
 CISAX will form    12 AO SS matrices at one time.
 NMat=    12 NSing=    12 JSym2X= 2.
 New state      1 was old state      4
 Excitation Energies [eV] at current iteration:
 Root      1 :     2.848232037493528
 Root      2 :     2.880523177613738
 Root      3 :     4.196194142790851
 Root      4 :     5.303685964836976
 Root      5 :     6.759853024152329
 Root      6 :     8.236194902076544
 Root      7 :     8.548786851222959
 Root      8 :     8.847535477263902
 Root      9 :    10.611846714136820
 Root     10 :    11.342865974176720
 Root     11 :    11.777919391712800
 Root     12 :    14.677254314718300
 Iteration     2 Dimension    24 NMult    12 NNew     12
 CISAX will form    12 AO SS matrices at one time.
 NMat=    12 NSing=    12 JSym2X= 2.
 New state      1 was old state      2
 Root      1 not converged, maximum delta is    0.113103150274853
 Excitation Energies [eV] at current iteration:
 Root      1 :     1.877532760567811   Change is   -1.002990417045927
 Root      2 :     2.495191488034502   Change is   -0.353040549459026
 Root      3 :     3.455064383689009   Change is   -0.741129759101843
 Root      4 :     4.706308278038335   Change is   -0.597377686798642
 Root      5 :     5.569985679632064   Change is   -1.189867344520264
 Root      6 :     7.079077187864448   Change is   -1.469709663358510
 Root      7 :     7.211410917335856   Change is   -1.024783984740689
 Root      8 :     7.691591343695462   Change is   -1.155944133568440
 Root      9 :     8.897539799640846   Change is   -1.714306914495973
 Root     10 :    10.454476244837490   Change is   -0.888389729339232
 Root     11 :    11.165961230569660   Change is   -0.611958161143143
 Root     12 :    12.409527549714780   Change is   -2.267726765003513
 Iteration     3 Dimension    27 NMult    24 NNew      3
 CISAX will form     3 AO SS matrices at one time.
 NMat=     3 NSing=     3 JSym2X= 2.
 Root      1 not converged, maximum delta is    0.010909552174097
 Excitation Energies [eV] at current iteration:
 Root      1 :     1.864365575832530   Change is   -0.013167184735281
 Root      2 :     2.486128350059822   Change is   -0.009063137974680
 Root      3 :     3.390625274400710   Change is   -0.064439109288299
 Iteration     4 Dimension    30 NMult    27 NNew      3
 CISAX will form     3 AO SS matrices at one time.
 NMat=     3 NSing=     3 JSym2X= 2.
 Root      1 has converged.
 Excitation Energies [eV] at current iteration:
 Root      1 :     1.864242415668945   Change is   -0.000123160163585
 Root      2 :     2.485979414367190   Change is   -0.000148935692632
 Root      3 :     3.387725965724830   Change is   -0.002899308675880
 Convergence achieved on expansion vectors.
 ***********************************************************************
 Stability analysis using <AA,BB:AA,BB> singles matrix:
 ***********************************************************************

 Eigenvectors of the stability matrix:
 
 Eigenvector   1:  2.117-AG   Eigenvalue= 0.0685097  <S**2>=0.871
      3A ->  8A       -0.10725
      4A ->  7A        0.19644
      5A ->  6A        0.63921
      3B ->  8B        0.10725
      4B ->  7B       -0.19644
      5B ->  6B       -0.63921
 SavETr:  write IOETrn=   770 NScale= 10 NData=  16 NLR=1 NState=    1 LETran=      28.
 The wavefunction is stable under the perturbations considered.
 Leave Link  914 at Fri Feb 24 16:28:50 2017, MaxMem=   134217728 cpu:         0.1
 (Enter /projects/guscus/apps/gau/g09-e1/g09/l508.exe)
 The wavefunction is already stable.
 Leave Link  508 at Fri Feb 24 16:28:50 2017, MaxMem=   134217728 cpu:         0.0
 (Enter /projects/guscus/apps/gau/g09-e1/g09/l601.exe)
 Copying SCF densities to generalized density rwf, IOpCl= 1 IROHF=0.

 **********************************************************************

            Population analysis using the SCF density.

 **********************************************************************

 Orbital symmetries:
 Alpha Orbitals:
       Occupied  (BG) (BG) (BG) (BG) (BG)
       Virtual   (BG) (BG) (BG) (BG) (BG)
 Beta  Orbitals:
       Occupied  (BG) (BG) (BG) (BG) (BG)
       Virtual   (BG) (BG) (BG) (BG) (BG)
 Unable to determine electronic state:  partially filled degenerate orbitals.
 Alpha  occ. eigenvalues --   -0.85513  -0.74244  -0.56242  -0.39379  -0.35961
 Alpha virt. eigenvalues --    0.04518   0.21940   0.29497   0.55269   0.67228
  Beta  occ. eigenvalues --   -0.85513  -0.74244  -0.56242  -0.39379  -0.35961
  Beta virt. eigenvalues --    0.04518   0.21940   0.29497   0.55269   0.67228
          Condensed to atoms (all electrons):
               1          2          3          4          5          6
     1  H    0.944468   0.155935   0.154238  -0.147133  -0.001255  -0.119307
     2  H    0.155935   0.890352  -0.135255   0.084954  -0.008193  -0.025396
     3  H    0.154238  -0.135255   1.126353  -0.039201   0.174631  -0.099235
     4  H   -0.147133   0.084954  -0.039201   0.920183  -0.107465   0.274458
     5  H   -0.001255  -0.008193   0.174631  -0.107465   0.973834  -0.043155
     6  H   -0.119307  -0.025396  -0.099235   0.274458  -0.043155   0.973834
     7  H    0.003556   0.002990  -0.017981  -0.017835   0.274458  -0.107465
     8  H    0.002022   0.007304  -0.113611  -0.017981  -0.099235   0.174631
     9  H   -0.000531  -0.000240   0.007304   0.002990  -0.025396  -0.008193
    10  H    0.001379  -0.000531   0.002022   0.003556  -0.119307  -0.001255
               7          8          9         10
     1  H    0.003556   0.002022  -0.000531   0.001379
     2  H    0.002990   0.007304  -0.000240  -0.000531
     3  H   -0.017981  -0.113611   0.007304   0.002022
     4  H   -0.017835  -0.017981   0.002990   0.003556
     5  H    0.274458  -0.099235  -0.025396  -0.119307
     6  H   -0.107465   0.174631  -0.008193  -0.001255
     7  H    0.920183  -0.039201   0.084954  -0.147133
     8  H   -0.039201   1.126353  -0.135255   0.154238
     9  H    0.084954  -0.135255   0.890352   0.155935
    10  H   -0.147133   0.154238   0.155935   0.944468
          Atomic-Atomic Spin Densities.
               1          2          3          4          5          6
     1  H    0.680052   0.114149  -0.105826  -0.187494   0.009151  -0.043423
     2  H    0.114149  -0.676201   0.104052  -0.095512  -0.009449  -0.005785
     3  H   -0.105826   0.104052  -0.667711  -0.044489   0.191800   0.088056
     4  H   -0.187494  -0.095512  -0.044489   0.699496  -0.064308   0.169444
     5  H    0.009151  -0.009449   0.191800  -0.064308   0.308376  -0.000000
     6  H   -0.043423  -0.005785   0.088056   0.169444  -0.000000  -0.308376
     7  H    0.001912  -0.002928   0.031967   0.000000  -0.169444   0.064308
     8  H    0.015981   0.001791   0.000000  -0.031967  -0.088056  -0.191800
     9  H   -0.001294  -0.000000  -0.001791   0.002928   0.005785   0.009449
    10  H    0.000000   0.001294  -0.015981  -0.001912   0.043423  -0.009151
               7          8          9         10
     1  H    0.001912   0.015981  -0.001294   0.000000
     2  H   -0.002928   0.001791  -0.000000   0.001294
     3  H    0.031967   0.000000  -0.001791  -0.015981
     4  H    0.000000  -0.031967   0.002928  -0.001912
     5  H   -0.169444  -0.088056   0.005785   0.043423
     6  H    0.064308  -0.191800   0.009449  -0.009151
     7  H   -0.699496   0.044489   0.095512   0.187494
     8  H    0.044489   0.667711  -0.104052   0.105826
     9  H    0.095512  -0.104052   0.676201  -0.114149
    10  H    0.187494   0.105826  -0.114149  -0.680052
 Mulliken charges and spin densities:
               1          2
     1  H    0.006629   0.483208
     2  H    0.028080  -0.568590
     3  H   -0.059266  -0.419923
     4  H    0.043475   0.446186
     5  H   -0.018918   0.227276
     6  H   -0.018918  -0.227276
     7  H    0.043475  -0.446186
     8  H   -0.059266   0.419923
     9  H    0.028080   0.568590
    10  H    0.006629  -0.483208
 Sum of Mulliken charges =  -0.00000   0.00000
 Mulliken charges and spin densities with hydrogens summed into heavy atoms:
               1          2
 Electronic spatial extent (au):  <R**2>=            132.5957
 Charge=             -0.0000 electrons
 Dipole moment (field-independent basis, Debye):
    X=             -0.0000    Y=              0.0000    Z=              0.0000  Tot=              0.0000
 Quadrupole moment (field-independent basis, Debye-Ang):
   XX=            -14.0827   YY=            -13.9185   ZZ=            -12.8760
   XY=             -1.6758   XZ=             -0.0000   YZ=             -0.0000
 Traceless Quadrupole moment (field-independent basis, Debye-Ang):
   XX=             -0.4569   YY=             -0.2927   ZZ=              0.7497
   XY=             -1.6758   XZ=             -0.0000   YZ=             -0.0000
 Octapole moment (field-independent basis, Debye-Ang**2):
  XXX=             -0.0000  YYY=              0.0000  ZZZ=             -0.0000  XYY=             -0.0000
  XXY=              0.0000  XXZ=             -0.0000  XZZ=             -0.0000  YZZ=              0.0000
  YYZ=             -0.0000  XYZ=             -0.0000
 Hexadecapole moment (field-independent basis, Debye-Ang**3):
 XXXX=           -198.1819 YYYY=            -79.9540 ZZZZ=            -15.5080 XXXY=             37.2399
 XXXZ=             -0.0000 YYYX=             36.3750 YYYZ=              0.0000 ZZZX=             -0.0000
 ZZZY=              0.0000 XXYY=            -43.3673 XXZZ=            -33.4861 YYZZ=            -15.8784
 XXYZ=              0.0000 YYXZ=             -0.0000 ZZXY=             12.3722
 N-N= 1.337924692399D+01 E-N=-3.599647264159D+01  KE= 5.237504973050D+00
 Symmetry AG   KE= 2.236791032235D+00
 Symmetry BG   KE= 0.000000000000D+00
 Symmetry AU   KE= 0.000000000000D+00
 Symmetry BU   KE= 3.000713940815D+00
                          Isotropic Fermi Contact Couplings
        Atom                 a.u.       MegaHertz       Gauss      10(-4) cm-1
     1  H(1)               0.18701     417.95561     149.13695     139.41499
     2  H(1)              -0.19962    -446.14843    -159.19685    -148.81910
     3  H(1)              -0.18206    -406.88860    -145.18797    -135.72343
     4  H(1)               0.19154     428.07042     152.74616     142.78892
     5  H(1)               0.08562     191.35620      68.28065      63.82956
     6  H(1)              -0.08562    -191.35620     -68.28065     -63.82956
     7  H(1)              -0.19154    -428.07042    -152.74616    -142.78892
     8  H(1)               0.18206     406.88860     145.18797     135.72343
     9  H(1)               0.19962     446.14843     159.19685     148.81910
    10  H(1)              -0.18701    -417.95561    -149.13695    -139.41499
 --------------------------------------------------------
       Center         ----  Spin Dipole Couplings  ----
                      3XX-RR        3YY-RR        3ZZ-RR
 --------------------------------------------------------
     1   Atom       -0.002623     -0.052572      0.055195
     2   Atom        0.005922      0.051207     -0.057129
     3   Atom        0.040011      0.029462     -0.069473
     4   Atom        0.000103     -0.058009      0.057906
     5   Atom       -0.040154     -0.009152      0.049307
     6   Atom        0.040154      0.009152     -0.049307
     7   Atom       -0.000103      0.058009     -0.057906
     8   Atom       -0.040011     -0.029462      0.069473
     9   Atom       -0.005922     -0.051207      0.057129
    10   Atom        0.002623      0.052572     -0.055195
 --------------------------------------------------------
                        XY            XZ            YZ
 --------------------------------------------------------
     1   Atom        0.066842     -0.000000      0.000000
     2   Atom       -0.004412      0.000000     -0.000000
     3   Atom       -0.040904     -0.000000     -0.000000
     4   Atom        0.068800     -0.000000      0.000000
     5   Atom        0.073717      0.000000     -0.000000
     6   Atom       -0.073717      0.000000     -0.000000
     7   Atom       -0.068800      0.000000      0.000000
     8   Atom        0.040904      0.000000     -0.000000
     9   Atom        0.004412      0.000000     -0.000000
    10   Atom       -0.066842     -0.000000      0.000000
 --------------------------------------------------------


 ---------------------------------------------------------------------------------
              Anisotropic Spin Dipole Couplings in Principal Axis System
 ---------------------------------------------------------------------------------

       Atom             a.u.   MegaHertz   Gauss  10(-4) cm-1        Axes

              Baa    -0.0990   -52.797   -18.839   -17.611 -0.5701  0.8216  0.0000
     1 H(1)   Bbb     0.0438    23.347     8.331     7.788  0.8216  0.5701  0.0000
              Bcc     0.0552    29.449    10.508     9.823  0.0000  0.0000  1.0000
 
              Baa    -0.0571   -30.482   -10.877   -10.168  0.0000  0.0000  1.0000
     2 H(1)   Bbb     0.0055     2.933     1.046     0.978  0.9954  0.0961  0.0000
              Bcc     0.0516    27.549     9.830     9.189 -0.0961  0.9954  0.0000
 
              Baa    -0.0695   -37.068   -13.227   -12.364  0.0000  0.0000  1.0000
     3 H(1)   Bbb    -0.0065    -3.471    -1.239    -1.158  0.6603  0.7510  0.0000
              Bcc     0.0760    40.539    14.465    13.522  0.7510 -0.6603  0.0000
 
              Baa    -0.1036   -55.296   -19.731   -18.445 -0.5527  0.8334  0.0000
     4 H(1)   Bbb     0.0457    24.400     8.707     8.139  0.8334  0.5527  0.0000
              Bcc     0.0579    30.896    11.024    10.306  0.0000  0.0000  1.0000
 
              Baa    -0.1000   -53.346   -19.035   -17.794  0.7765 -0.6302  0.0000
     5 H(1)   Bbb     0.0493    26.308     9.387     8.775  0.0000  0.0000  1.0000
              Bcc     0.0507    27.038     9.648     9.019  0.6302  0.7765  0.0000
 
              Baa    -0.0507   -27.038    -9.648    -9.019  0.6302  0.7765  0.0000
     6 H(1)   Bbb    -0.0493   -26.308    -9.387    -8.775  0.0000  0.0000  1.0000
              Bcc     0.1000    53.346    19.035    17.794  0.7765 -0.6302  0.0000
 
              Baa    -0.0579   -30.896   -11.024   -10.306  0.0000  0.0000  1.0000
     7 H(1)   Bbb    -0.0457   -24.400    -8.707    -8.139  0.8334  0.5527 -0.0000
              Bcc     0.1036    55.296    19.731    18.445 -0.5527  0.8334  0.0000
 
              Baa    -0.0760   -40.539   -14.465   -13.522  0.7510 -0.6603  0.0000
     8 H(1)   Bbb     0.0065     3.471     1.239     1.158  0.6603  0.7510  0.0000
              Bcc     0.0695    37.068    13.227    12.364  0.0000  0.0000  1.0000
 
              Baa    -0.0516   -27.549    -9.830    -9.189 -0.0961  0.9954  0.0000
     9 H(1)   Bbb    -0.0055    -2.933    -1.046    -0.978  0.9954  0.0961  0.0000
              Bcc     0.0571    30.482    10.877    10.168  0.0000  0.0000  1.0000
 
              Baa    -0.0552   -29.449   -10.508    -9.823  0.0000  0.0000  1.0000
    10 H(1)   Bbb    -0.0438   -23.347    -8.331    -7.788  0.8216  0.5701  0.0000
              Bcc     0.0990    52.797    18.839    17.611 -0.5701  0.8216  0.0000
 

 ---------------------------------------------------------------------------------

 No NMR shielding tensors so no spin-rotation constants.
 Leave Link  601 at Fri Feb 24 16:28:50 2017, MaxMem=   134217728 cpu:         0.1
 (Enter /projects/guscus/apps/gau/g09-e1/g09/l9999.exe)

 Test job not archived.
 1\1\GINC-SULU\Stability\UHF\Gen\H10\LCJ1\24-Feb-2017\0\\#p uhf/gen scf
 (tight,novaracc,noincfock,fulldiag ) stable=opt guess=(read) geom=nocr
 owd test\\hf stability analysis of h10 triangular lattice, y= 0.607643
 73942994288 alpha= 32.600000000000001\\0,1\H\H,1,1.1278334707\H,1,1.12
 78334707,2,114.8\H,2,1.1278334707,1,65.2,3,0.,0\H,3,1.1278334707,1,180
 .,2,0.,0\H,4,1.1278334707,2,180.,1,0.,0\H,5,1.1278334707,3,180.,2,0.,0
 \H,6,1.1278334707,4,180.,1,0.,0\H,7,1.1278334707,5,180.,2,0.,0\H,8,1.1
 278334707,6,180.,1,0.,0\\Version=ES64L-G09RevE.01\HF=-4.913623\S2=1.25
 662\S2-1=0.\S2A=2.217131\RMSD=9.027e-09\Dipole=0.,0.,0.\Quadrupole=-0.
 3397224,0.5573729,-0.2176505,0.,-1.245882,0.\PG=C02H [SGH(H10)]\\@


 WISDOM IS KNOWING WHAT TO DO,
 SKILL IS KNOWING HOW TO DO IT,
 AND VIRTUE IS NOT DOING IT.
 Job cpu time:       0 days  0 hours  0 minutes  0.9 seconds.
 File lengths (MBytes):  RWF=     82 Int=      0 D2E=      0 Chk=      2 Scr=      2
 Normal termination of Gaussian 09 at Fri Feb 24 16:28:51 2017.
