 Entering Gaussian System, Link 0=g09
 AtFile(1): H.gbs
            H     0
            S   10   1.00
               1000.000000000000            0.000068713567
                316.227766000000            0.000169141320
                100.000000000000            0.000823394812
                 31.622776600000            0.003425569236
                 10.000000000000            0.013951996000
                  3.162277660000            0.056909313560
                  1.000000000000            0.198286399900
                  0.316227766000            0.496922426700
                  0.100000000000            0.369846276400
                  0.031622776600            0.003752720039
            ****
 Initial command:
 /projects/guscus/apps/gau/g09-e1/g09/l1.exe "/users/lcj1/gaussian/h10/2rows_uhf/ag2bu3/singlet/follow20/test/Gau-29167.inp" -scrdir="/users/lcj1/gaussian/h10/2rows_uhf/ag2bu3/singlet/follow20/test/"
 Entering Link 1 = /projects/guscus/apps/gau/g09-e1/g09/l1.exe PID=     29168.
  
 Copyright (c) 1988,1990,1992,1993,1995,1998,2003,2009,2015,
            Gaussian, Inc.  All Rights Reserved.
  
 This is part of the Gaussian(R) 09 program.  It is based on
 the Gaussian(R) 03 system (copyright 2003, Gaussian, Inc.),
 the Gaussian(R) 98 system (copyright 1998, Gaussian, Inc.),
 the Gaussian(R) 94 system (copyright 1995, Gaussian, Inc.),
 the Gaussian 92(TM) system (copyright 1992, Gaussian, Inc.),
 the Gaussian 90(TM) system (copyright 1990, Gaussian, Inc.),
 the Gaussian 88(TM) system (copyright 1988, Gaussian, Inc.),
 the Gaussian 86(TM) system (copyright 1986, Carnegie Mellon
 University), and the Gaussian 82(TM) system (copyright 1983,
 Carnegie Mellon University). Gaussian is a federally registered
 trademark of Gaussian, Inc.
  
 This software contains proprietary and confidential information,
 including trade secrets, belonging to Gaussian, Inc.
  
 This software is provided under written license and may be
 used, copied, transmitted, or stored only in accord with that
 written license.
  
 The following legend is applicable only to US Government
 contracts under FAR:
  
                    RESTRICTED RIGHTS LEGEND
  
 Use, reproduction and disclosure by the US Government is
 subject to restrictions as set forth in subparagraphs (a)
 and (c) of the Commercial Computer Software - Restricted
 Rights clause in FAR 52.227-19.
  
 Gaussian, Inc.
 340 Quinnipiac St., Bldg. 40, Wallingford CT 06492
  
  
 ---------------------------------------------------------------
 Warning -- This program may not be used in any manner that
 competes with the business of Gaussian, Inc. or will provide
 assistance to any competitor of Gaussian, Inc.  The licensee
 of this program is prohibited from giving any competitor of
 Gaussian, Inc. access to this program.  By using this program,
 the user acknowledges that Gaussian, Inc. is engaged in the
 business of creating and licensing software in the field of
 computational chemistry and represents and warrants to the
 licensee that it is not a competitor of Gaussian, Inc. and that
 it will not use this program in any manner prohibited above.
 ---------------------------------------------------------------
  

 Cite this work as:
 Gaussian 09, Revision E.01,
 M. J. Frisch, G. W. Trucks, H. B. Schlegel, G. E. Scuseria, 
 M. A. Robb, J. R. Cheeseman, G. Scalmani, V. Barone, B. Mennucci, 
 G. A. Petersson, H. Nakatsuji, M. Caricato, X. Li, H. P. Hratchian, 
 A. F. Izmaylov, J. Bloino, G. Zheng, J. L. Sonnenberg, M. Hada, 
 M. Ehara, K. Toyota, R. Fukuda, J. Hasegawa, M. Ishida, T. Nakajima, 
 Y. Honda, O. Kitao, H. Nakai, T. Vreven, J. A. Montgomery, Jr., 
 J. E. Peralta, F. Ogliaro, M. Bearpark, J. J. Heyd, E. Brothers, 
 K. N. Kudin, V. N. Staroverov, T. Keith, R. Kobayashi, J. Normand, 
 K. Raghavachari, A. Rendell, J. C. Burant, S. S. Iyengar, J. Tomasi, 
 M. Cossi, N. Rega, J. M. Millam, M. Klene, J. E. Knox, J. B. Cross, 
 V. Bakken, C. Adamo, J. Jaramillo, R. Gomperts, R. E. Stratmann, 
 O. Yazyev, A. J. Austin, R. Cammi, C. Pomelli, J. W. Ochterski, 
 R. L. Martin, K. Morokuma, V. G. Zakrzewski, G. A. Voth, 
 P. Salvador, J. J. Dannenberg, S. Dapprich, A. D. Daniels, 
 O. Farkas, J. B. Foresman, J. V. Ortiz, J. Cioslowski, 
 and D. J. Fox, Gaussian, Inc., Wallingford CT, 2013.
 
 ******************************************
 Gaussian 09:  ES64L-G09RevE.01 30-Nov-2015
                24-Feb-2017 
 ******************************************
 %chk=h10.chk
 ----------------------------------------------------------------------
 #p uhf/gen scf(tight,novaracc,noincfock,fulldiag ) stable=opt guess=(r
 ead) geom=nocrowd test
 ----------------------------------------------------------------------
 1/38=1/1;
 2/12=1,17=6,18=5,40=1/2;
 3/5=7,11=2,16=1,25=1,30=1,116=2/1,2,3;
 4/5=1/1;
 5/5=100002,16=1,32=2,38=6/2;
 6/7=2,8=2,9=2,10=2,28=1/1;
 8/6=1,10=90,11=11/1;
 9/8=-3,42=1,46=1/14;
 5/5=100002,8=3,16=1,17=40,32=2,38=6/8(-2);
 6/7=2,8=2,9=2,10=2,28=1/1;
 99/5=1,9=1/99;
 Leave Link    1 at Fri Feb 24 16:26:22 2017, MaxMem=           0 cpu:         0.0
 (Enter /projects/guscus/apps/gau/g09-e1/g09/l101.exe)
 ----------------------------------------------------------------------
 hf stability analysis of h10 triangular lattice, y= 0.4509070092210429
 3 alpha= 19.399999999999999
 ----------------------------------------------------------------------
 Symbolic Z-matrix:
 Charge =  0 Multiplicity = 1
 H
 H                    1     1.35749 
 H                    1     1.35749  2     141.2 
 H                    2     1.35749  1     38.8     3     0.       0
 H                    3     1.35749  1     180.     2     0.       0
 H                    4     1.35749  2     180.     1     0.       0
 H                    5     1.35749  3     180.     2     0.       0
 H                    6     1.35749  4     180.     1     0.       0
 H                    7     1.35749  5     180.     2     0.       0
 H                    8     1.35749  6     180.     1     0.       0
 
 NAtoms=     10 NQM=       10 NQMF=       0 NMMI=      0 NMMIF=      0
                NMic=       0 NMicF=      0.
                    Isotopes and Nuclear Properties:
 (Nuclear quadrupole moments (NQMom) in fm**2, nuclear magnetic moments (NMagM)
  in nuclear magnetons)

  Atom         1           2           3           4           5           6           7           8           9          10
 IAtWgt=           1           1           1           1           1           1           1           1           1           1
 AtmWgt=   1.0078250   1.0078250   1.0078250   1.0078250   1.0078250   1.0078250   1.0078250   1.0078250   1.0078250   1.0078250
 NucSpn=           1           1           1           1           1           1           1           1           1           1
 AtZEff=   0.0000000   0.0000000   0.0000000   0.0000000   0.0000000   0.0000000   0.0000000   0.0000000   0.0000000   0.0000000
 NQMom=    0.0000000   0.0000000   0.0000000   0.0000000   0.0000000   0.0000000   0.0000000   0.0000000   0.0000000   0.0000000
 NMagM=    2.7928460   2.7928460   2.7928460   2.7928460   2.7928460   2.7928460   2.7928460   2.7928460   2.7928460   2.7928460
 AtZNuc=   1.0000000   1.0000000   1.0000000   1.0000000   1.0000000   1.0000000   1.0000000   1.0000000   1.0000000   1.0000000
 Leave Link  101 at Fri Feb 24 16:26:22 2017, MaxMem=   134217728 cpu:         0.0
 (Enter /projects/guscus/apps/gau/g09-e1/g09/l202.exe)
                          Input orientation:                          
 ---------------------------------------------------------------------
 Center     Atomic      Atomic             Coordinates (Angstroms)
 Number     Number       Type             X           Y           Z
 ---------------------------------------------------------------------
      1          1           0        0.000000    0.000000    0.000000
      2          1           0        0.000000    0.000000    1.357495
      3          1           0        0.850611    0.000000   -1.057947
      4          1           0        0.850611    0.000000    0.299548
      5          1           0        1.701223    0.000000   -2.115894
      6          1           0        1.701223    0.000000   -0.758400
      7          1           0        2.551834    0.000000   -3.173842
      8          1           0        2.551834    0.000000   -1.816347
      9          1           0        3.402446    0.000000   -4.231789
     10          1           0        3.402446    0.000000   -2.874294
 ---------------------------------------------------------------------
                    Distance matrix (angstroms):
                    1          2          3          4          5
     1  H    0.000000
     2  H    1.357495   0.000000
     3  H    1.357495   2.560840   0.000000
     4  H    0.901814   1.357495   1.357495   0.000000
     5  H    2.714990   3.867634   1.357495   2.560840   0.000000
     6  H    1.862613   2.714990   0.901814   1.357495   1.357495
     7  H    4.072484   5.200468   2.714990   3.867634   1.357495
     8  H    3.132247   4.072484   1.862613   2.714990   0.901814
     9  H    5.429979   6.543449   4.072484   5.200468   2.714990
    10  H    4.454010   5.429979   3.132247   4.072484   1.862613
                    6          7          8          9         10
     6  H    0.000000
     7  H    2.560840   0.000000
     8  H    1.357495   1.357495   0.000000
     9  H    3.867634   1.357495   2.560840   0.000000
    10  H    2.714990   0.901814   1.357495   1.357495   0.000000
 Stoichiometry    H10
 Framework group  C2H[SGH(H10)]
 Deg. of freedom     9
 Full point group                 C2H     NOp   4
 Largest Abelian subgroup         C2H     NOp   4
 Largest concise Abelian subgroup C2      NOp   2
                         Standard orientation:                         
 ---------------------------------------------------------------------
 Center     Atomic      Atomic             Coordinates (Angstroms)
 Number     Number       Type             X           Y           Z
 ---------------------------------------------------------------------
      1          1           0        1.701223   -1.437147   -0.000000
      2          1           0        1.701223   -2.794642   -0.000000
      3          1           0        0.850611   -0.379200   -0.000000
      4          1           0        0.850611   -1.736695   -0.000000
      5          1           0        0.000000    0.678747    0.000000
      6          1           0       -0.000000   -0.678747    0.000000
      7          1           0       -0.850611    1.736695   -0.000000
      8          1           0       -0.850611    0.379200   -0.000000
      9          1           0       -1.701223    2.794642   -0.000000
     10          1           0       -1.701223    1.437147   -0.000000
 ---------------------------------------------------------------------
 Rotational constants (GHZ):    299.2727441     12.6034145     12.0940904
 Leave Link  202 at Fri Feb 24 16:26:22 2017, MaxMem=   134217728 cpu:         0.0
 (Enter /projects/guscus/apps/gau/g09-e1/g09/l301.exe)
 General basis read from cards:  (5D, 7F)
 Centers:       1      2      3      4      5      6      7      8      9     10
 S 10 1.00
     Exponent=  1.0000000000D+03 Coefficients=  6.8713567000D-05
     Exponent=  3.1622776600D+02 Coefficients=  1.6914132000D-04
     Exponent=  1.0000000000D+02 Coefficients=  8.2339481200D-04
     Exponent=  3.1622776600D+01 Coefficients=  3.4255692360D-03
     Exponent=  1.0000000000D+01 Coefficients=  1.3951996000D-02
     Exponent=  3.1622776600D+00 Coefficients=  5.6909313560D-02
     Exponent=  1.0000000000D+00 Coefficients=  1.9828639990D-01
     Exponent=  3.1622776600D-01 Coefficients=  4.9692242670D-01
     Exponent=  1.0000000000D-01 Coefficients=  3.6984627640D-01
     Exponent=  3.1622776600D-02 Coefficients=  3.7527200390D-03
 ****
 Ernie: Thresh=  0.10000D-02 Tol=  0.10000D-05 Strict=F.
 There are     5 symmetry adapted cartesian basis functions of AG  symmetry.
 There are     0 symmetry adapted cartesian basis functions of BG  symmetry.
 There are     0 symmetry adapted cartesian basis functions of AU  symmetry.
 There are     5 symmetry adapted cartesian basis functions of BU  symmetry.
 There are     5 symmetry adapted basis functions of AG  symmetry.
 There are     0 symmetry adapted basis functions of BG  symmetry.
 There are     0 symmetry adapted basis functions of AU  symmetry.
 There are     5 symmetry adapted basis functions of BU  symmetry.
    10 basis functions,   100 primitive gaussians,    10 cartesian basis functions
     5 alpha electrons        5 beta electrons
       nuclear repulsion energy        12.1293693074 Hartrees.
 IExCor=    0 DFT=F Ex=HF Corr=None ExCW=0 ScaHFX=  1.000000
 ScaDFX=  1.000000  1.000000  1.000000  1.000000 ScalE2=  1.000000  1.000000
 IRadAn=      0 IRanWt=     -1 IRanGd=            0 ICorTp=0 IEmpDi=  4
 NAtoms=   10 NActive=   10 NUniq=    5 SFac= 4.00D+00 NAtFMM=   60 NAOKFM=F Big=F
 Integral buffers will be    131072 words long.
 Raffenetti 2 integral format.
 Two-electron integral symmetry is turned on.
 Leave Link  301 at Fri Feb 24 16:26:22 2017, MaxMem=   134217728 cpu:         0.0
 (Enter /projects/guscus/apps/gau/g09-e1/g09/l302.exe)
 NPDir=0 NMtPBC=     1 NCelOv=     1 NCel=       1 NClECP=     1 NCelD=      1
         NCelK=      1 NCelE2=     1 NClLst=     1 CellRange=     0.0.
 One-electron integrals computed using PRISM.
 One-electron integral symmetry used in STVInt
 NBasis=    10 RedAO= T EigKep=  1.84D-01  NBF=     5     0     0     5
 NBsUse=    10 1.00D-06 EigRej= -1.00D+00 NBFU=     5     0     0     5
 Leave Link  302 at Fri Feb 24 16:26:22 2017, MaxMem=   134217728 cpu:         0.0
 (Enter /projects/guscus/apps/gau/g09-e1/g09/l303.exe)
 DipDrv:  MaxL=1.
 Leave Link  303 at Fri Feb 24 16:26:23 2017, MaxMem=   134217728 cpu:         0.0
 (Enter /projects/guscus/apps/gau/g09-e1/g09/l401.exe)
 Initial guess from the checkpoint file:  "h10.chk"
 B after Tr=    -0.000000   -0.000000   -0.000000
         Rot=    0.999995    0.000000    0.000000   -0.003103 Ang=  -0.36 deg.
 Guess basis will be translated and rotated to current coordinates.
 JPrj=2 DoOrth=T DoCkMO=T.
 Initial guess orbital symmetries:
 Alpha Orbitals:
       Occupied  (BG) (BG) (BG) (BG) (BG)
       Virtual   (BG) (BG) (BG) (BG) (BG)
 Beta  Orbitals:
       Occupied  (BG) (BG) (BG) (BG) (BG)
       Virtual   (BG) (BG) (BG) (BG) (BG)
 Initial guess <Sx>= 0.0000 <Sy>= 0.0000 <Sz>= 0.0000 <S**2>= 1.4952 S= 0.8211
 Leave Link  401 at Fri Feb 24 16:26:23 2017, MaxMem=   134217728 cpu:         0.1
 (Enter /projects/guscus/apps/gau/g09-e1/g09/l502.exe)
 UHF open shell SCF:
 Using DIIS extrapolation, IDIIS=  1040.
 Integral symmetry usage will be decided dynamically.
 Keep R1 and R2 ints in memory in symmetry-blocked form, NReq=876919.
 IVT=       20217 IEndB=       20217 NGot=   134217728 MDV=   134195632
 LenX=   134195632 LenY=   134194750
 Requested convergence on RMS density matrix=1.00D-08 within 128 cycles.
 Requested convergence on MAX density matrix=1.00D-06.
 Requested convergence on             energy=1.00D-06.
 No special actions if energy rises.
 FoFCou: FMM=F IPFlag=           0 FMFlag=           0 FMFlg1=           0
         NFxFlg=           0 DoJE=F BraDBF=F KetDBF=F FulRan=T
         wScrn=  0.000000 ICntrl=     600 IOpCl=  0 I1Cent=           0 NGrid=           0
         NMat0=    1 NMatS0=     55 NMatT0=    0 NMatD0=    1 NMtDS0=    0 NMtDT0=    0
 Petite list used in FoFCou.
 An orbital has undefined symmetry, so N**3 symmetry is turned off.

 Cycle   1  Pass 1  IDiag  1:
 Density matrix breaks symmetry, PCut= 1.00D-04
 Density matrix has no symmetry -- integrals replicated.
 E= -4.89705896523432    
 DIIS: error= 1.53D-03 at cycle   1 NSaved=   1.
 NSaved= 1 IEnMin= 1 EnMin= -4.89705896523432     IErMin= 1 ErrMin= 1.53D-03
 ErrMax= 1.53D-03  0.00D+00 EMaxC= 1.00D-01 BMatC= 6.45D-05 BMatP= 6.45D-05
 IDIUse=3 WtCom= 9.85D-01 WtEn= 1.53D-02
 Coeff-Com:  0.100D+01
 Coeff-En:   0.100D+01
 Coeff:      0.100D+01
 Gap=     0.419 Goal=   None    Shift=    0.000
 Gap=     0.386 Goal=   None    Shift=    0.000
 GapD=    0.386 DampG=1.000 DampE=1.000 DampFc=1.0000 IDamp=-1.
 RMSDP=2.22D-03 MaxDP=6.09D-03              OVMax= 0.00D+00

 Cycle   2  Pass 1  IDiag  1:
 Density matrix breaks symmetry, PCut= 1.00D-07
 Density matrix has no symmetry -- integrals replicated.
 E= -4.89714923182923     Delta-E=       -0.000090266595 Rises=F Damp=F
 DIIS: error= 1.03D-03 at cycle   2 NSaved=   2.
 NSaved= 2 IEnMin= 2 EnMin= -4.89714923182923     IErMin= 2 ErrMin= 1.03D-03
 ErrMax= 1.03D-03  0.00D+00 EMaxC= 1.00D-01 BMatC= 2.55D-05 BMatP= 6.45D-05
 IDIUse=3 WtCom= 9.90D-01 WtEn= 1.03D-02
 Coeff-Com: -0.913D+00 0.191D+01
 Coeff-En:   0.000D+00 0.100D+01
 Coeff:     -0.903D+00 0.190D+01
 Gap=     0.419 Goal=   None    Shift=    0.000
 Gap=     0.385 Goal=   None    Shift=    0.000
 RMSDP=2.74D-03 MaxDP=8.37D-03 DE=-9.03D-05 OVMax= 0.00D+00

 Cycle   3  Pass 1  IDiag  1:
 Density matrix breaks symmetry, PCut= 1.00D-07
 Density matrix has no symmetry -- integrals replicated.
 E= -4.89721496865040     Delta-E=       -0.000065736821 Rises=F Damp=F
 DIIS: error= 4.60D-04 at cycle   3 NSaved=   3.
 NSaved= 3 IEnMin= 3 EnMin= -4.89721496865040     IErMin= 3 ErrMin= 4.60D-04
 ErrMax= 4.60D-04  0.00D+00 EMaxC= 1.00D-01 BMatC= 8.84D-06 BMatP= 2.55D-05
 IDIUse=3 WtCom= 9.95D-01 WtEn= 4.60D-03
 Coeff-Com:  0.146D+01-0.336D+01 0.290D+01
 Coeff-En:   0.000D+00 0.000D+00 0.100D+01
 Coeff:      0.146D+01-0.335D+01 0.289D+01
 Gap=     0.420 Goal=   None    Shift=    0.000
 Gap=     0.387 Goal=   None    Shift=    0.000
 RMSDP=2.52D-03 MaxDP=7.93D-03 DE=-6.57D-05 OVMax= 0.00D+00

 Cycle   4  Pass 1  IDiag  1:
 Density matrix breaks symmetry, PCut= 1.00D-07
 Density matrix has no symmetry -- integrals replicated.
 E= -4.89724922275131     Delta-E=       -0.000034254101 Rises=F Damp=F
 DIIS: error= 2.16D-04 at cycle   4 NSaved=   4.
 NSaved= 4 IEnMin= 4 EnMin= -4.89724922275131     IErMin= 4 ErrMin= 2.16D-04
 ErrMax= 2.16D-04  0.00D+00 EMaxC= 1.00D-01 BMatC= 3.06D-06 BMatP= 8.84D-06
 IDIUse=3 WtCom= 9.98D-01 WtEn= 2.16D-03
 Coeff-Com: -0.146D+01 0.344D+01-0.329D+01 0.231D+01
 Coeff-En:   0.000D+00 0.000D+00 0.000D+00 0.100D+01
 Coeff:     -0.146D+01 0.343D+01-0.328D+01 0.231D+01
 Gap=     0.421 Goal=   None    Shift=    0.000
 Gap=     0.387 Goal=   None    Shift=    0.000
 RMSDP=1.28D-03 MaxDP=5.55D-03 DE=-3.43D-05 OVMax= 0.00D+00

 Cycle   5  Pass 1  IDiag  1:
 Density matrix breaks symmetry, PCut= 1.00D-07
 Density matrix has no symmetry -- integrals replicated.
 E= -4.89726132656967     Delta-E=       -0.000012103818 Rises=F Damp=F
 DIIS: error= 1.83D-04 at cycle   5 NSaved=   5.
 NSaved= 5 IEnMin= 5 EnMin= -4.89726132656967     IErMin= 5 ErrMin= 1.83D-04
 ErrMax= 1.83D-04  0.00D+00 EMaxC= 1.00D-01 BMatC= 1.84D-06 BMatP= 3.06D-06
 IDIUse=3 WtCom= 9.98D-01 WtEn= 1.83D-03
 Coeff-Com:  0.105D+01-0.248D+01 0.255D+01-0.259D+01 0.247D+01
 Coeff-En:   0.000D+00 0.000D+00 0.000D+00 0.000D+00 0.100D+01
 Coeff:      0.104D+01-0.248D+01 0.254D+01-0.258D+01 0.247D+01
 Gap=     0.422 Goal=   None    Shift=    0.000
 Gap=     0.388 Goal=   None    Shift=    0.000
 RMSDP=1.24D-03 MaxDP=5.57D-03 DE=-1.21D-05 OVMax= 0.00D+00

 Cycle   6  Pass 1  IDiag  1:
 Density matrix breaks symmetry, PCut= 1.00D-07
 Density matrix has no symmetry -- integrals replicated.
 E= -4.89727098617542     Delta-E=       -0.000009659606 Rises=F Damp=F
 DIIS: error= 1.46D-04 at cycle   6 NSaved=   6.
 NSaved= 6 IEnMin= 6 EnMin= -4.89727098617542     IErMin= 6 ErrMin= 1.46D-04
 ErrMax= 1.46D-04  0.00D+00 EMaxC= 1.00D-01 BMatC= 1.37D-06 BMatP= 1.84D-06
 IDIUse=3 WtCom= 9.99D-01 WtEn= 1.46D-03
 Coeff-Com: -0.171D+01 0.405D+01-0.412D+01 0.414D+01-0.511D+01 0.376D+01
 Coeff-En:   0.000D+00 0.000D+00 0.000D+00 0.000D+00 0.000D+00 0.100D+01
 Coeff:     -0.171D+01 0.405D+01-0.412D+01 0.413D+01-0.511D+01 0.375D+01
 Gap=     0.422 Goal=   None    Shift=    0.000
 Gap=     0.388 Goal=   None    Shift=    0.000
 RMSDP=2.12D-03 MaxDP=1.06D-02 DE=-9.66D-06 OVMax= 0.00D+00

 Cycle   7  Pass 1  IDiag  1:
 Density matrix breaks symmetry, PCut= 1.00D-07
 Density matrix has no symmetry -- integrals replicated.
 E= -4.89728393988981     Delta-E=       -0.000012953714 Rises=F Damp=F
 DIIS: error= 9.97D-05 at cycle   7 NSaved=   7.
 NSaved= 7 IEnMin= 7 EnMin= -4.89728393988981     IErMin= 7 ErrMin= 9.97D-05
 ErrMax= 9.97D-05  0.00D+00 EMaxC= 1.00D-01 BMatC= 8.44D-07 BMatP= 1.37D-06
 IDIUse=1 WtCom= 1.00D+00 WtEn= 0.00D+00
 Coeff-Com:  0.152D+01-0.363D+01 0.385D+01-0.432D+01 0.714D+01-0.785D+01
 Coeff-Com:  0.427D+01
 Coeff:      0.152D+01-0.363D+01 0.385D+01-0.432D+01 0.714D+01-0.785D+01
 Coeff:      0.427D+01
 Gap=     0.423 Goal=   None    Shift=    0.000
 Gap=     0.389 Goal=   None    Shift=    0.000
 RMSDP=3.04D-03 MaxDP=1.71D-02 DE=-1.30D-05 OVMax= 0.00D+00

 Cycle   8  Pass 1  IDiag  1:
 Density matrix breaks symmetry, PCut= 1.00D-07
 Density matrix has no symmetry -- integrals replicated.
 E= -4.89729527680498     Delta-E=       -0.000011336915 Rises=F Damp=F
 DIIS: error= 5.08D-05 at cycle   8 NSaved=   8.
 NSaved= 8 IEnMin= 8 EnMin= -4.89729527680498     IErMin= 8 ErrMin= 5.08D-05
 ErrMax= 5.08D-05  0.00D+00 EMaxC= 1.00D-01 BMatC= 2.20D-07 BMatP= 8.44D-07
 IDIUse=1 WtCom= 1.00D+00 WtEn= 0.00D+00
 Coeff-Com: -0.583D+00 0.140D+01-0.157D+01 0.192D+01-0.411D+01 0.557D+01
 Coeff-Com: -0.397D+01 0.234D+01
 Coeff:     -0.583D+00 0.140D+01-0.157D+01 0.192D+01-0.411D+01 0.557D+01
 Coeff:     -0.397D+01 0.234D+01
 Gap=     0.423 Goal=   None    Shift=    0.000
 Gap=     0.389 Goal=   None    Shift=    0.000
 RMSDP=1.39D-03 MaxDP=8.33D-03 DE=-1.13D-05 OVMax= 0.00D+00

 Cycle   9  Pass 1  IDiag  1:
 Density matrix breaks symmetry, PCut= 1.00D-07
 Density matrix has no symmetry -- integrals replicated.
 E= -4.89729731873090     Delta-E=       -0.000002041926 Rises=F Damp=F
 DIIS: error= 2.30D-05 at cycle   9 NSaved=   9.
 NSaved= 9 IEnMin= 9 EnMin= -4.89729731873090     IErMin= 9 ErrMin= 2.30D-05
 ErrMax= 2.30D-05  0.00D+00 EMaxC= 1.00D-01 BMatC= 4.23D-08 BMatP= 2.20D-07
 IDIUse=1 WtCom= 1.00D+00 WtEn= 0.00D+00
 Coeff-Com: -0.105D+00 0.243D+00-0.217D+00 0.169D+00 0.187D+00-0.701D+00
 Coeff-Com:  0.838D+00-0.122D+01 0.180D+01
 Coeff:     -0.105D+00 0.243D+00-0.217D+00 0.169D+00 0.187D+00-0.701D+00
 Coeff:      0.838D+00-0.122D+01 0.180D+01
 Gap=     0.423 Goal=   None    Shift=    0.000
 Gap=     0.389 Goal=   None    Shift=    0.000
 RMSDP=3.67D-04 MaxDP=2.35D-03 DE=-2.04D-06 OVMax= 0.00D+00

 Cycle  10  Pass 1  IDiag  1:
 Density matrix breaks symmetry, PCut= 1.00D-07
 Density matrix has no symmetry -- integrals replicated.
 E= -4.89729751690320     Delta-E=       -0.000000198172 Rises=F Damp=F
 DIIS: error= 1.08D-05 at cycle  10 NSaved=  10.
 NSaved=10 IEnMin=10 EnMin= -4.89729751690320     IErMin=10 ErrMin= 1.08D-05
 ErrMax= 1.08D-05  0.00D+00 EMaxC= 1.00D-01 BMatC= 7.47D-09 BMatP= 4.23D-08
 IDIUse=1 WtCom= 1.00D+00 WtEn= 0.00D+00
 Coeff-Com:  0.227D+00-0.535D+00 0.540D+00-0.567D+00 0.650D+00-0.454D+00
 Coeff-Com:  0.223D-01 0.619D+00-0.155D+01 0.205D+01
 Coeff:      0.227D+00-0.535D+00 0.540D+00-0.567D+00 0.650D+00-0.454D+00
 Coeff:      0.223D-01 0.619D+00-0.155D+01 0.205D+01
 Gap=     0.423 Goal=   None    Shift=    0.000
 Gap=     0.389 Goal=   None    Shift=    0.000
 RMSDP=1.57D-04 MaxDP=9.22D-04 DE=-1.98D-07 OVMax= 0.00D+00

 Cycle  11  Pass 1  IDiag  1:
 Density matrix breaks symmetry, PCut= 1.00D-07
 Density matrix has no symmetry -- integrals replicated.
 E= -4.89729754435277     Delta-E=       -0.000000027450 Rises=F Damp=F
 DIIS: error= 4.53D-06 at cycle  11 NSaved=  11.
 NSaved=11 IEnMin=11 EnMin= -4.89729754435277     IErMin=11 ErrMin= 4.53D-06
 ErrMax= 4.53D-06  0.00D+00 EMaxC= 1.00D-01 BMatC= 1.06D-09 BMatP= 7.47D-09
 IDIUse=1 WtCom= 1.00D+00 WtEn= 0.00D+00
 Coeff-Com: -0.149D+00 0.353D+00-0.363D+00 0.399D+00-0.552D+00 0.526D+00
 Coeff-Com: -0.203D+00-0.232D+00 0.817D+00-0.151D+01 0.192D+01
 Coeff:     -0.149D+00 0.353D+00-0.363D+00 0.399D+00-0.552D+00 0.526D+00
 Coeff:     -0.203D+00-0.232D+00 0.817D+00-0.151D+01 0.192D+01
 Gap=     0.423 Goal=   None    Shift=    0.000
 Gap=     0.389 Goal=   None    Shift=    0.000
 RMSDP=3.43D-05 MaxDP=1.41D-04 DE=-2.74D-08 OVMax= 0.00D+00

 Cycle  12  Pass 1  IDiag  1:
 Density matrix breaks symmetry, PCut= 1.00D-07
 Density matrix has no symmetry -- integrals replicated.
 E= -4.89729754682703     Delta-E=       -0.000000002474 Rises=F Damp=F
 DIIS: error= 1.33D-06 at cycle  12 NSaved=  12.
 NSaved=12 IEnMin=12 EnMin= -4.89729754682703     IErMin=12 ErrMin= 1.33D-06
 ErrMax= 1.33D-06  0.00D+00 EMaxC= 1.00D-01 BMatC= 1.20D-10 BMatP= 1.06D-09
 IDIUse=1 WtCom= 1.00D+00 WtEn= 0.00D+00
 Coeff-Com:  0.391D-01-0.927D-01 0.959D-01-0.108D+00 0.172D+00-0.200D+00
 Coeff-Com:  0.106D+00 0.655D-02-0.140D+00 0.435D+00-0.960D+00 0.165D+01
 Coeff:      0.391D-01-0.927D-01 0.959D-01-0.108D+00 0.172D+00-0.200D+00
 Coeff:      0.106D+00 0.655D-02-0.140D+00 0.435D+00-0.960D+00 0.165D+01
 Gap=     0.423 Goal=   None    Shift=    0.000
 Gap=     0.389 Goal=   None    Shift=    0.000
 RMSDP=3.26D-05 MaxDP=1.82D-04 DE=-2.47D-09 OVMax= 0.00D+00

 Cycle  13  Pass 1  IDiag  1:
 Density matrix breaks symmetry, PCut= 1.00D-07
 Density matrix has no symmetry -- integrals replicated.
 E= -4.89729754739737     Delta-E=       -0.000000000570 Rises=F Damp=F
 DIIS: error= 3.54D-07 at cycle  13 NSaved=  13.
 NSaved=13 IEnMin=13 EnMin= -4.89729754739737     IErMin=13 ErrMin= 3.54D-07
 ErrMax= 3.54D-07  0.00D+00 EMaxC= 1.00D-01 BMatC= 1.31D-11 BMatP= 1.20D-10
 IDIUse=1 WtCom= 1.00D+00 WtEn= 0.00D+00
 Coeff-Com: -0.819D-02 0.196D-01-0.205D-01 0.243D-01-0.474D-01 0.677D-01
 Coeff-Com: -0.451D-01 0.295D-01-0.256D-01-0.618D-01 0.264D+00-0.730D+00
 Coeff-Com:  0.153D+01
 Coeff:     -0.819D-02 0.196D-01-0.205D-01 0.243D-01-0.474D-01 0.677D-01
 Coeff:     -0.451D-01 0.295D-01-0.256D-01-0.618D-01 0.264D+00-0.730D+00
 Coeff:      0.153D+01
 Gap=     0.423 Goal=   None    Shift=    0.000
 Gap=     0.389 Goal=   None    Shift=    0.000
 RMSDP=9.70D-06 MaxDP=4.91D-05 DE=-5.70D-10 OVMax= 0.00D+00

 Cycle  14  Pass 1  IDiag  1:
 Density matrix breaks symmetry, PCut= 1.00D-07
 Density matrix has no symmetry -- integrals replicated.
 E= -4.89729754742916     Delta-E=       -0.000000000032 Rises=F Damp=F
 DIIS: error= 1.50D-07 at cycle  14 NSaved=  14.
 NSaved=14 IEnMin=14 EnMin= -4.89729754742916     IErMin=14 ErrMin= 1.50D-07
 ErrMax= 1.50D-07  0.00D+00 EMaxC= 1.00D-01 BMatC= 2.62D-12 BMatP= 1.31D-11
 IDIUse=1 WtCom= 1.00D+00 WtEn= 0.00D+00
 Coeff-Com: -0.448D-02 0.105D-01-0.108D-01 0.110D-01-0.102D-01-0.107D-03
 Coeff-Com:  0.813D-02-0.256D-01 0.565D-01-0.581D-01 0.257D-01 0.159D+00
 Coeff-Com: -0.922D+00 0.176D+01
 Coeff:     -0.448D-02 0.105D-01-0.108D-01 0.110D-01-0.102D-01-0.107D-03
 Coeff:      0.813D-02-0.256D-01 0.565D-01-0.581D-01 0.257D-01 0.159D+00
 Coeff:     -0.922D+00 0.176D+01
 Gap=     0.423 Goal=   None    Shift=    0.000
 Gap=     0.389 Goal=   None    Shift=    0.000
 RMSDP=6.20D-06 MaxDP=3.32D-05 DE=-3.18D-11 OVMax= 0.00D+00

 Cycle  15  Pass 1  IDiag  1:
 Density matrix breaks symmetry, PCut= 1.00D-07
 Density matrix has no symmetry -- integrals replicated.
 E= -4.89729754743918     Delta-E=       -0.000000000010 Rises=F Damp=F
 DIIS: error= 1.02D-07 at cycle  15 NSaved=  15.
 NSaved=15 IEnMin=15 EnMin= -4.89729754743918     IErMin=15 ErrMin= 1.02D-07
 ErrMax= 1.02D-07  0.00D+00 EMaxC= 1.00D-01 BMatC= 4.45D-13 BMatP= 2.62D-12
 IDIUse=1 WtCom= 1.00D+00 WtEn= 0.00D+00
 Coeff-Com:  0.321D-02-0.761D-02 0.802D-02-0.817D-02 0.943D-02-0.354D-02
 Coeff-Com: -0.343D-02 0.174D-01-0.403D-01 0.479D-01-0.468D-01-0.373D-01
 Coeff-Com:  0.537D+00-0.156D+01 0.208D+01
 Coeff:      0.321D-02-0.761D-02 0.802D-02-0.817D-02 0.943D-02-0.354D-02
 Coeff:     -0.343D-02 0.174D-01-0.403D-01 0.479D-01-0.468D-01-0.373D-01
 Coeff:      0.537D+00-0.156D+01 0.208D+01
 Gap=     0.423 Goal=   None    Shift=    0.000
 Gap=     0.389 Goal=   None    Shift=    0.000
 RMSDP=3.31D-06 MaxDP=1.73D-05 DE=-1.00D-11 OVMax= 0.00D+00

 Cycle  16  Pass 1  IDiag  1:
 Density matrix breaks symmetry, PCut= 1.00D-07
 Density matrix has no symmetry -- integrals replicated.
 E= -4.89729754744189     Delta-E=       -0.000000000003 Rises=F Damp=F
 DIIS: error= 3.48D-08 at cycle  16 NSaved=  16.
 NSaved=16 IEnMin=16 EnMin= -4.89729754744189     IErMin=16 ErrMin= 3.48D-08
 ErrMax= 3.48D-08  0.00D+00 EMaxC= 1.00D-01 BMatC= 8.98D-14 BMatP= 4.45D-13
 IDIUse=1 WtCom= 1.00D+00 WtEn= 0.00D+00
 Large coefficients: NSaved= 16 BigCof=    0.00 CofMax=   10.00 Det=-6.48D-15
 Inversion failed.  Reducing to 15 matrices.
 Coeff-Com:  0.279D-04-0.105D-03 0.231D-03-0.138D-02 0.269D-02-0.197D-02
 Coeff-Com:  0.147D-02-0.158D-02-0.290D-02 0.152D-01-0.437D-01 0.109D+00
 Coeff-Com: -0.899D-01-0.877D-01 0.110D+01
 Coeff:      0.279D-04-0.105D-03 0.231D-03-0.138D-02 0.269D-02-0.197D-02
 Coeff:      0.147D-02-0.158D-02-0.290D-02 0.152D-01-0.437D-01 0.109D+00
 Coeff:     -0.899D-01-0.877D-01 0.110D+01
 Gap=     0.423 Goal=   None    Shift=    0.000
 Gap=     0.389 Goal=   None    Shift=    0.000
 RMSDP=1.02D-06 MaxDP=5.33D-06 DE=-2.71D-12 OVMax= 0.00D+00

 Cycle  17  Pass 1  IDiag  1:
 Density matrix breaks symmetry, PCut= 1.00D-07
 Density matrix has no symmetry -- integrals replicated.
 E= -4.89729754744265     Delta-E=       -0.000000000001 Rises=F Damp=F
 DIIS: error= 4.64D-09 at cycle  17 NSaved=  16.
 NSaved=16 IEnMin=16 EnMin= -4.89729754744265     IErMin=16 ErrMin= 4.64D-09
 ErrMax= 4.64D-09  0.00D+00 EMaxC= 1.00D-01 BMatC= 1.40D-15 BMatP= 8.98D-14
 IDIUse=1 WtCom= 1.00D+00 WtEn= 0.00D+00
 Large coefficients: NSaved= 16 BigCof=    0.00 CofMax=   10.00 Det=-1.24D-15
 Inversion failed.  Reducing to 15 matrices.
 Coeff-Com:  0.771D-05 0.211D-04-0.158D-04 0.849D-04-0.134D-03 0.281D-03
 Coeff-Com: -0.555D-03 0.604D-03-0.810D-03 0.675D-03 0.301D-03-0.132D-01
 Coeff-Com:  0.274D-01-0.335D+00 0.132D+01
 Coeff:      0.771D-05 0.211D-04-0.158D-04 0.849D-04-0.134D-03 0.281D-03
 Coeff:     -0.555D-03 0.604D-03-0.810D-03 0.675D-03 0.301D-03-0.132D-01
 Coeff:      0.274D-01-0.335D+00 0.132D+01
 Gap=     0.423 Goal=   None    Shift=    0.000
 Gap=     0.389 Goal=   None    Shift=    0.000
 RMSDP=1.52D-08 MaxDP=6.81D-08 DE=-7.57D-13 OVMax= 0.00D+00

 Cycle  18  Pass 1  IDiag  1:
 Density matrix breaks symmetry, PCut= 1.00D-07
 Density matrix has no symmetry -- integrals replicated.
 E= -4.89729754744265     Delta-E=        0.000000000000 Rises=F Damp=F
 DIIS: error= 1.66D-09 at cycle  18 NSaved=  16.
 NSaved=16 IEnMin=15 EnMin= -4.89729754744265     IErMin=16 ErrMin= 1.66D-09
 ErrMax= 1.66D-09  0.00D+00 EMaxC= 1.00D-01 BMatC= 2.13D-16 BMatP= 1.40D-15
 IDIUse=1 WtCom= 1.00D+00 WtEn= 0.00D+00
 Large coefficients: NSaved= 16 BigCof=    0.00 CofMax=   10.00 Det=-1.07D-16
 Inversion failed.  Reducing to 15 matrices.
 Coeff-Com:  0.317D-06-0.596D-04 0.159D-03-0.140D-03 0.198D-03-0.345D-03
 Coeff-Com:  0.158D-03 0.455D-03-0.258D-02 0.106D-01-0.204D-01 0.224D-01
 Coeff-Com:  0.747D-01-0.593D+00 0.151D+01
 Coeff:      0.317D-06-0.596D-04 0.159D-03-0.140D-03 0.198D-03-0.345D-03
 Coeff:      0.158D-03 0.455D-03-0.258D-02 0.106D-01-0.204D-01 0.224D-01
 Coeff:      0.747D-01-0.593D+00 0.151D+01
 Gap=     0.423 Goal=   None    Shift=    0.000
 Gap=     0.389 Goal=   None    Shift=    0.000
 RMSDP=2.48D-08 MaxDP=1.18D-07 DE= 3.55D-15 OVMax= 0.00D+00

 Cycle  19  Pass 1  IDiag  1:
 Density matrix breaks symmetry, PCut= 1.00D-07
 Density matrix has no symmetry -- integrals replicated.
 E= -4.89729754744266     Delta-E=       -0.000000000000 Rises=F Damp=F
 DIIS: error= 4.54D-10 at cycle  19 NSaved=  16.
 NSaved=16 IEnMin=16 EnMin= -4.89729754744266     IErMin=16 ErrMin= 4.54D-10
 ErrMax= 4.54D-10  0.00D+00 EMaxC= 1.00D-01 BMatC= 1.08D-17 BMatP= 2.13D-16
 IDIUse=1 WtCom= 1.00D+00 WtEn= 0.00D+00
 Large coefficients: NSaved= 16 BigCof=    0.00 CofMax=   10.00 Det=-4.58D-18
 Inversion failed.  Reducing to 15 matrices.
 Coeff-Com:  0.143D-04-0.324D-04 0.269D-04-0.358D-04 0.574D-04-0.321D-04
 Coeff-Com: -0.583D-04 0.366D-03-0.154D-02 0.296D-02-0.346D-02-0.204D-01
 Coeff-Com:  0.158D+00-0.522D+00 0.139D+01
 Coeff:      0.143D-04-0.324D-04 0.269D-04-0.358D-04 0.574D-04-0.321D-04
 Coeff:     -0.583D-04 0.366D-03-0.154D-02 0.296D-02-0.346D-02-0.204D-01
 Coeff:      0.158D+00-0.522D+00 0.139D+01
 Gap=     0.423 Goal=   None    Shift=    0.000
 Gap=     0.389 Goal=   None    Shift=    0.000
 RMSDP=1.17D-08 MaxDP=6.01D-08 DE=-1.42D-14 OVMax= 0.00D+00

 Cycle  20  Pass 1  IDiag  1:
 Density matrix breaks symmetry, PCut= 1.00D-07
 Density matrix has no symmetry -- integrals replicated.
 E= -4.89729754744265     Delta-E=        0.000000000000 Rises=F Damp=F
 DIIS: error= 2.83D-11 at cycle  20 NSaved=  16.
 NSaved=16 IEnMin=15 EnMin= -4.89729754744266     IErMin=16 ErrMin= 2.83D-11
 ErrMax= 2.83D-11  0.00D+00 EMaxC= 1.00D-01 BMatC= 7.10D-20 BMatP= 1.08D-17
 IDIUse=1 WtCom= 1.00D+00 WtEn= 0.00D+00
 Large coefficients: NSaved= 16 BigCof=    0.00 CofMax=   10.00 Det=-9.08D-20
 Inversion failed.  Reducing to 15 matrices.
 Coeff-Com: -0.704D-06 0.851D-06-0.107D-05 0.229D-05 0.183D-06-0.691D-05
 Coeff-Com:  0.285D-04-0.967D-04 0.161D-03-0.139D-03 0.897D-03-0.441D-02
 Coeff-Com:  0.271D-01-0.141D+00 0.112D+01
 Coeff:     -0.704D-06 0.851D-06-0.107D-05 0.229D-05 0.183D-06-0.691D-05
 Coeff:      0.285D-04-0.967D-04 0.161D-03-0.139D-03 0.897D-03-0.441D-02
 Coeff:      0.271D-01-0.141D+00 0.112D+01
 Gap=     0.423 Goal=   None    Shift=    0.000
 Gap=     0.389 Goal=   None    Shift=    0.000
 RMSDP=7.55D-10 MaxDP=4.20D-09 DE= 7.11D-15 OVMax= 0.00D+00

 Density matrix breaks symmetry, PCut= 1.00D-07
 Density matrix has no symmetry -- integrals replicated.
 SCF Done:  E(UHF) =  -4.89729754744     A.U. after   20 cycles
            NFock= 20  Conv=0.76D-09     -V/T= 1.8754
 <Sx>= 0.0000 <Sy>= 0.0000 <Sz>= 0.0000 <S**2>= 1.5602 S= 0.8454
 <L.S>= 0.000000000000E+00
 KE= 5.594255236949D+00 PE=-3.398248912787D+01 EE= 1.136156703607D+01
 Annihilation of the first spin contaminant:
 S**2 before annihilation     1.5602,   after     3.4757
 Leave Link  502 at Fri Feb 24 16:26:23 2017, MaxMem=   134217728 cpu:         0.1
 (Enter /projects/guscus/apps/gau/g09-e1/g09/l601.exe)
 Copying SCF densities to generalized density rwf, IOpCl= 1 IROHF=0.

 **********************************************************************

            Population analysis using the SCF density.

 **********************************************************************

 Orbital symmetries:
 Alpha Orbitals:
       Occupied  (BG) (BG) (BG) (BG) (BG)
       Virtual   (BG) (BG) (BG) (BG) (BG)
 Beta  Orbitals:
       Occupied  (BG) (BG) (BG) (BG) (BG)
       Virtual   (BG) (BG) (BG) (BG) (BG)
 Unable to determine electronic state:  partially filled degenerate orbitals.
 Alpha  occ. eigenvalues --   -0.80226  -0.71326  -0.58909  -0.42169  -0.30773
 Alpha virt. eigenvalues --    0.11574   0.22553   0.27260   0.39042   0.60631
  Beta  occ. eigenvalues --   -0.79966  -0.72304  -0.58783  -0.43899  -0.28154
  Beta virt. eigenvalues --    0.10774   0.20966   0.23892   0.43548   0.59780
          Condensed to atoms (all electrons):
               1          2          3          4          5          6
     1  H    1.043244  -0.185929  -0.061381   0.379218   0.013848  -0.164358
     2  H   -0.185929   1.268674  -0.037734   0.022030   0.000337   0.011560
     3  H   -0.061381  -0.037734   1.044301  -0.086389  -0.104750   0.353502
     4  H    0.379218   0.022030  -0.086389   0.654615  -0.012565  -0.059848
     5  H    0.013848   0.000337  -0.104750  -0.012565   1.029794  -0.173930
     6  H   -0.164358   0.011560   0.353502  -0.059848  -0.173930   1.148659
     7  H    0.000769  -0.000134   0.012140   0.000355  -0.110034  -0.014932
     8  H    0.003167   0.001955  -0.145733   0.003268   0.483453  -0.084131
     9  H   -0.000065   0.000005  -0.001031   0.000026  -0.003529   0.002667
    10  H   -0.000305  -0.000051   0.009052   0.000416  -0.130045   0.006504
               7          8          9         10
     1  H    0.000769   0.003167  -0.000065  -0.000305
     2  H   -0.000134   0.001955   0.000005  -0.000051
     3  H    0.012140  -0.145733  -0.001031   0.009052
     4  H    0.000355   0.003268   0.000026   0.000416
     5  H   -0.110034   0.483453  -0.003529  -0.130045
     6  H   -0.014932  -0.084131   0.002667   0.006504
     7  H    0.819441  -0.134501  -0.166296   0.534114
     8  H   -0.134501   1.007193   0.009707  -0.179802
     9  H   -0.166296   0.009707   1.365521  -0.127340
    10  H    0.534114  -0.179802  -0.127340   0.892003
          Atomic-Atomic Spin Densities.
               1          2          3          4          5          6
     1  H    0.710068  -0.253517   0.085795  -0.007944   0.017926  -0.125888
     2  H   -0.253517   1.170676  -0.000409  -0.093604  -0.000448   0.020884
     3  H    0.085795  -0.000409  -0.817678   0.134300   0.005331  -0.035640
     4  H   -0.007944  -0.093604   0.134300  -0.364671  -0.006195   0.035701
     5  H    0.017926  -0.000448   0.005331  -0.006195   0.657155  -0.201734
     6  H   -0.125888   0.020884  -0.035640   0.035701  -0.201734   0.890460
     7  H    0.000475   0.000003  -0.015554   0.000566   0.045277   0.000218
     8  H   -0.001472  -0.000549   0.116964  -0.012433  -0.016691  -0.046066
     9  H   -0.000020  -0.000005   0.001450   0.000013  -0.019625  -0.000098
    10  H   -0.000427   0.000038  -0.006819   0.000586  -0.042526   0.016709
               7          8          9         10
     1  H    0.000475  -0.001472  -0.000020  -0.000427
     2  H    0.000003  -0.000549  -0.000005   0.000038
     3  H   -0.015554   0.116964   0.001450  -0.006819
     4  H    0.000566  -0.012433   0.000013   0.000586
     5  H    0.045277  -0.016691  -0.019625  -0.042526
     6  H    0.000218  -0.046066  -0.000098   0.016709
     7  H   -0.370633   0.129523   0.212057  -0.153826
     8  H    0.129523  -0.699991  -0.020019   0.087784
     9  H    0.212057  -0.020019  -1.307234   0.218680
    10  H   -0.153826   0.087784   0.218680  -0.005695
 Mulliken charges and spin densities:
               1          2
     1  H   -0.028207   0.424997
     2  H   -0.080712   0.843068
     3  H    0.018024  -0.532260
     4  H    0.098874  -0.313680
     5  H    0.007421   0.438470
     6  H   -0.025693   0.554545
     7  H    0.059079  -0.151894
     8  H    0.035425  -0.462948
     9  H   -0.079665  -0.914800
    10  H   -0.004545   0.114503
 Sum of Mulliken charges =  -0.00000   0.00000
 Mulliken charges and spin densities with hydrogens summed into heavy atoms:
               1          2
 Electronic spatial extent (au):  <R**2>=            184.3896
 Charge=             -0.0000 electrons
 Dipole moment (field-independent basis, Debye):
    X=             -0.1104    Y=             -0.0149    Z=              0.0000  Tot=              0.1114
 Quadrupole moment (field-independent basis, Debye-Ang):
   XX=            -15.2429   YY=            -21.0068   ZZ=            -12.6062
   XY=              5.8145   XZ=             -0.0000   YZ=              0.0000
 Traceless Quadrupole moment (field-independent basis, Debye-Ang):
   XX=              1.0424   YY=             -4.7215   ZZ=              3.6792
   XY=              5.8145   XZ=             -0.0000   YZ=              0.0000
 Octapole moment (field-independent basis, Debye-Ang**2):
  XXX=             -0.6168  YYY=             -0.9540  ZZZ=              0.0000  XYY=              1.8949
  XXY=             -1.0256  XXZ=              0.0000  XZZ=             -0.0785  YZZ=              0.1292
  YYZ=              0.0000  XYZ=             -0.0000
 Hexadecapole moment (field-independent basis, Debye-Ang**3):
 XXXX=           -137.9430 YYYY=           -334.0826 ZZZZ=            -15.0334 XXXY=             92.6728
 XXXZ=              0.0000 YYYX=            133.2941 YYYZ=             -0.0000 ZZZX=              0.0000
 ZZZY=             -0.0000 XXYY=            -95.9835 XXZZ=            -24.3047 YYZZ=            -42.2628
 XXYZ=              0.0000 YYXZ=             -0.0000 ZZXY=             24.8106
 N-N= 1.212936930741D+01 E-N=-3.398248912818D+01  KE= 5.594255236949D+00
 Symmetry AG   KE= 2.408961612319D+00
 Symmetry BG   KE= 0.000000000000D+00
 Symmetry AU   KE= 0.000000000000D+00
 Symmetry BU   KE= 3.185293624630D+00
                          Isotropic Fermi Contact Couplings
        Atom                 a.u.       MegaHertz       Gauss      10(-4) cm-1
     1  H(1)               0.19192     428.93175     153.05351     143.07623
     2  H(1)               0.32911     735.54717     262.46151     245.35213
     3  H(1)              -0.22591    -504.88626    -180.15597    -168.41193
     4  H(1)              -0.10485    -234.32705     -83.61372     -78.16309
     5  H(1)               0.17970     401.61343     143.30565     133.96382
     6  H(1)               0.23874     533.56117     190.38789     177.97685
     7  H(1)              -0.10003    -223.55929     -79.77151     -74.57135
     8  H(1)              -0.19314    -431.65425    -154.02496    -143.98436
     9  H(1)              -0.36426    -814.10981    -290.49461    -271.55780
    10  H(1)               0.00131       2.91681       1.04079       0.97294
 --------------------------------------------------------
       Center         ----  Spin Dipole Couplings  ----
                      3XX-RR        3YY-RR        3ZZ-RR
 --------------------------------------------------------
     1   Atom       -0.054771      0.036563      0.018208
     2   Atom       -0.008969     -0.004430      0.013399
     3   Atom        0.093950      0.000858     -0.094808
     4   Atom        0.099655     -0.012993     -0.086662
     5   Atom       -0.106873      0.036457      0.070416
     6   Atom       -0.104442      0.030051      0.074391
     7   Atom        0.020865     -0.038511      0.017646
     8   Atom        0.070946     -0.015160     -0.055786
     9   Atom       -0.009967      0.024106     -0.014139
    10   Atom       -0.012994     -0.048703      0.061697
 --------------------------------------------------------
                        XY            XZ            YZ
 --------------------------------------------------------
     1   Atom       -0.019009     -0.000000      0.000000
     2   Atom        0.030189      0.000000     -0.000000
     3   Atom        0.003698     -0.000000     -0.000000
     4   Atom       -0.025093     -0.000000      0.000000
     5   Atom       -0.000756     -0.000000     -0.000000
     6   Atom       -0.020680      0.000000      0.000000
     7   Atom       -0.006738      0.000000      0.000000
     8   Atom        0.026908      0.000000     -0.000000
     9   Atom        0.000807      0.000000     -0.000000
    10   Atom       -0.011005      0.000000     -0.000000
 --------------------------------------------------------


 ---------------------------------------------------------------------------------
              Anisotropic Spin Dipole Couplings in Principal Axis System
 ---------------------------------------------------------------------------------

       Atom             a.u.   MegaHertz   Gauss  10(-4) cm-1        Axes

              Baa    -0.0586   -31.250   -11.151   -10.424  0.9806  0.1959  0.0000
     1 H(1)   Bbb     0.0182     9.715     3.466     3.240  0.0000  0.0000  1.0000
              Bcc     0.0404    21.535     7.684     7.183 -0.1959  0.9806  0.0000
 
              Baa    -0.0370   -19.728    -7.039    -6.580  0.7331 -0.6801  0.0000
     2 H(1)   Bbb     0.0134     7.149     2.551     2.385  0.0000  0.0000  1.0000
              Bcc     0.0236    12.579     4.488     4.196  0.6801  0.7331  0.0000
 
              Baa    -0.0948   -50.585   -18.050   -16.873  0.0000  0.0000  1.0000
     3 H(1)   Bbb     0.0007     0.380     0.135     0.127 -0.0396  0.9992 -0.0000
              Bcc     0.0941    50.205    17.915    16.747  0.9992  0.0396  0.0000
 
              Baa    -0.0867   -46.239   -16.499   -15.424  0.0000  0.0000  1.0000
     4 H(1)   Bbb    -0.0183    -9.780    -3.490    -3.262  0.2080  0.9781  0.0000
              Bcc     0.1050    56.019    19.989    18.686  0.9781 -0.2080  0.0000
 
              Baa    -0.1069   -57.024   -20.348   -19.021  1.0000  0.0053  0.0000
     5 H(1)   Bbb     0.0365    19.454     6.942     6.489 -0.0053  1.0000 -0.0000
              Bcc     0.0704    37.571    13.406    12.532  0.0000  0.0000  1.0000
 
              Baa    -0.1076   -57.384   -20.476   -19.141  0.9889  0.1486  0.0000
     6 H(1)   Bbb     0.0332    17.692     6.313     5.901 -0.1486  0.9889 -0.0000
              Bcc     0.0744    39.692    14.163    13.240  0.0000  0.0000  1.0000
 
              Baa    -0.0393   -20.950    -7.476    -6.988  0.1114  0.9938 -0.0000
     7 H(1)   Bbb     0.0176     9.415     3.360     3.141  0.0000  0.0000  1.0000
              Bcc     0.0216    11.535     4.116     3.848  0.9938 -0.1114  0.0000
 
              Baa    -0.0558   -29.765   -10.621    -9.928  0.0000  0.0000  1.0000
     8 H(1)   Bbb    -0.0229   -12.206    -4.355    -4.072 -0.2757  0.9612  0.0000
              Bcc     0.0787    41.971    14.976    14.000  0.9612  0.2757  0.0000
 
              Baa    -0.0141    -7.544    -2.692    -2.516  0.0000  0.0000  1.0000
     9 H(1)   Bbb    -0.0100    -5.328    -1.901    -1.777  0.9997 -0.0237  0.0000
              Bcc     0.0241    12.872     4.593     4.294  0.0237  0.9997  0.0000
 
              Baa    -0.0518   -27.650    -9.866    -9.223  0.2727  0.9621  0.0000
    10 H(1)   Bbb    -0.0099    -5.269    -1.880    -1.758  0.9621 -0.2727  0.0000
              Bcc     0.0617    32.919    11.746    10.981  0.0000  0.0000  1.0000
 

 ---------------------------------------------------------------------------------

 No NMR shielding tensors so no spin-rotation constants.
 Leave Link  601 at Fri Feb 24 16:26:23 2017, MaxMem=   134217728 cpu:         0.1
 (Enter /projects/guscus/apps/gau/g09-e1/g09/l801.exe)
 Range of M.O.s used for correlation:     1    10
 NBasis=    10 NAE=     5 NBE=     5 NFC=     0 NFV=     0
 NROrb=     10 NOA=     5 NOB=     5 NVA=     5 NVB=     5
 Leave Link  801 at Fri Feb 24 16:26:23 2017, MaxMem=   134217728 cpu:         0.0
 (Enter /projects/guscus/apps/gau/g09-e1/g09/l914.exe)
 UHF ground state
 Doing stability rather than CIS.
 MDV=   134217728 DFT=F DoStab=T Mixed=F DoRPA=F DoScal=F NonHer=F
 Keep R1 and R2 ints in memory in symmetry-blocked form, NReq=802982.
 FoFCou: FMM=F IPFlag=           0 FMFlag=           0 FMFlg1=           0
         NFxFlg=           0 DoJE=F BraDBF=F KetDBF=F FulRan=T
         wScrn=  0.000000 ICntrl=     600 IOpCl=  0 I1Cent=           0 NGrid=           0
         NMat0=    1 NMatS0=     55 NMatT0=    0 NMatD0=    1 NMtDS0=    0 NMtDT0=    0
 Petite list used in FoFCou.
 Making orbital integer symmetry assigments:
 Orbital symmetries:
 Alpha Orbitals:
       Occupied  (BG) (BG) (BG) (BG) (BG)
       Virtual   (BG) (BG) (BG) (BG) (BG)
 Beta  Orbitals:
       Occupied  (BG) (BG) (BG) (BG) (BG)
       Virtual   (BG) (BG) (BG) (BG) (BG)
    12 initial guesses have been made.
 Convergence on wavefunction:    0.001000000000000
 Davidson Disk Diagonalization:  ConvIn= 1.00D-03 SkipCon=T Conv= 1.00D-03.
 Max sub-space:   200 roots to seek:    12 dimension of matrix:           50
 Iteration     1 Dimension    12 NMult     0 NNew     12
 CISAX will form    12 AO SS matrices at one time.
 NMat=    12 NSing=    12 JSym2X= 2.
 Excitation Energies [eV] at current iteration:
 Root      1 :     2.281176459592645
 Root      2 :     4.197584475909195
 Root      3 :     5.832071027331278
 Root      4 :     6.342599207566364
 Root      5 :     8.759649251408256
 Root      6 :     9.401315601051046
 Root      7 :    10.277845008360740
 Root      8 :    10.482787770983230
 Root      9 :    10.841937253127750
 Root     10 :    11.976834095990210
 Root     11 :    13.069092702186460
 Root     12 :    13.731559040664160
 Iteration     2 Dimension    24 NMult    12 NNew     12
 CISAX will form    12 AO SS matrices at one time.
 NMat=    12 NSing=    12 JSym2X= 2.
 Root      1 not converged, maximum delta is    0.136742436750068
 Excitation Energies [eV] at current iteration:
 Root      1 :     0.762903516557071   Change is   -1.518272943035574
 Root      2 :     3.638388429288052   Change is   -0.559196046621143
 Root      3 :     4.336639309481787   Change is   -1.495431717849491
 Root      4 :     4.899715510303413   Change is   -1.442883697262951
 Root      5 :     7.577849039091809   Change is   -1.181800212316446
 Root      6 :     8.142644851675495   Change is   -2.340142919307740
 Root      7 :     8.446263158202884   Change is   -0.955052442848162
 Root      8 :     8.983162303108395   Change is   -1.294682705252348
 Root      9 :     9.824291511843079   Change is   -1.017645741284672
 Root     10 :    10.682151038687040   Change is   -1.294683057303172
 Root     11 :    11.641315638764040   Change is   -1.427777063422423
 Root     12 :    12.041424580802390   Change is   -1.690134459861774
 Iteration     3 Dimension    27 NMult    24 NNew      3
 CISAX will form     3 AO SS matrices at one time.
 NMat=     3 NSing=     3 JSym2X= 2.
 Root      1 not converged, maximum delta is    0.042037500214679
 Excitation Energies [eV] at current iteration:
 Root      1 :     0.670854716257315   Change is   -0.092048800299756
 Root      2 :     3.494376915904347   Change is   -0.144011513383704
 Root      3 :     4.256026087816642   Change is   -0.080613221665144
 Iteration     4 Dimension    30 NMult    27 NNew      3
 CISAX will form     3 AO SS matrices at one time.
 NMat=     3 NSing=     3 JSym2X= 2.
 Root      1 not converged, maximum delta is    0.008722455841970
 Excitation Energies [eV] at current iteration:
 Root      1 :     0.664141116221041   Change is   -0.006713600036274
 Root      2 :     3.470262055857773   Change is   -0.024114860046575
 Root      3 :     4.247703371651755   Change is   -0.008322716164888
 Iteration     5 Dimension    33 NMult    30 NNew      3
 CISAX will form     3 AO SS matrices at one time.
 NMat=     3 NSing=     3 JSym2X= 2.
 Root      1 not converged, maximum delta is    0.001467413853213
 Excitation Energies [eV] at current iteration:
 Root      1 :     0.663980358207552   Change is   -0.000160758013489
 Root      2 :     3.469369800045001   Change is   -0.000892255812772
 Root      3 :     4.247259115465391   Change is   -0.000444256186364
 Iteration     6 Dimension    36 NMult    33 NNew      3
 CISAX will form     3 AO SS matrices at one time.
 NMat=     3 NSing=     3 JSym2X= 2.
 Root      1 has converged.
 Excitation Energies [eV] at current iteration:
 Root      1 :     0.663978410484479   Change is   -0.000001947723074
 Root      2 :     3.469351301519308   Change is   -0.000018498525693
 Root      3 :     4.247249703980814   Change is   -0.000009411484577
 Convergence achieved on expansion vectors.
 ***********************************************************************
 Stability analysis using <AA,BB:AA,BB> singles matrix:
 ***********************************************************************

 Eigenvectors of the stability matrix:
 
 Eigenvector   1:  3.103-AG   Eigenvalue= 0.0244008  <S**2>=2.157
      2A ->  9A       -0.10628
      3A ->  6A        0.12989
      3A ->  7A       -0.13764
      3A ->  9A       -0.11620
      4A ->  6A        0.24790
      4A ->  7A       -0.13806
      5A ->  6A        0.14586
      3B ->  6B        0.18441
      3B ->  7B        0.11451
      5B ->  6B        0.72706
      5B ->  7B        0.39863
 SavETr:  write IOETrn=   770 NScale= 10 NData=  16 NLR=1 NState=    1 LETran=      28.
 The wavefunction is stable under the perturbations considered.
 Leave Link  914 at Fri Feb 24 16:26:24 2017, MaxMem=   134217728 cpu:         0.1
 (Enter /projects/guscus/apps/gau/g09-e1/g09/l508.exe)
 The wavefunction is already stable.
 Leave Link  508 at Fri Feb 24 16:26:24 2017, MaxMem=   134217728 cpu:         0.0
 (Enter /projects/guscus/apps/gau/g09-e1/g09/l601.exe)
 Copying SCF densities to generalized density rwf, IOpCl= 1 IROHF=0.

 **********************************************************************

            Population analysis using the SCF density.

 **********************************************************************

 Orbital symmetries:
 Alpha Orbitals:
       Occupied  (BG) (BG) (BG) (BG) (BG)
       Virtual   (BG) (BG) (BG) (BG) (BG)
 Beta  Orbitals:
       Occupied  (BG) (BG) (BG) (BG) (BG)
       Virtual   (BG) (BG) (BG) (BG) (BG)
 Unable to determine electronic state:  partially filled degenerate orbitals.
 Alpha  occ. eigenvalues --   -0.80226  -0.71326  -0.58909  -0.42169  -0.30773
 Alpha virt. eigenvalues --    0.11574   0.22553   0.27260   0.39042   0.60631
  Beta  occ. eigenvalues --   -0.79966  -0.72304  -0.58783  -0.43899  -0.28154
  Beta virt. eigenvalues --    0.10774   0.20966   0.23892   0.43548   0.59780
          Condensed to atoms (all electrons):
               1          2          3          4          5          6
     1  H    1.043244  -0.185929  -0.061381   0.379218   0.013848  -0.164358
     2  H   -0.185929   1.268674  -0.037734   0.022030   0.000337   0.011560
     3  H   -0.061381  -0.037734   1.044301  -0.086389  -0.104750   0.353502
     4  H    0.379218   0.022030  -0.086389   0.654615  -0.012565  -0.059848
     5  H    0.013848   0.000337  -0.104750  -0.012565   1.029794  -0.173930
     6  H   -0.164358   0.011560   0.353502  -0.059848  -0.173930   1.148659
     7  H    0.000769  -0.000134   0.012140   0.000355  -0.110034  -0.014932
     8  H    0.003167   0.001955  -0.145733   0.003268   0.483453  -0.084131
     9  H   -0.000065   0.000005  -0.001031   0.000026  -0.003529   0.002667
    10  H   -0.000305  -0.000051   0.009052   0.000416  -0.130045   0.006504
               7          8          9         10
     1  H    0.000769   0.003167  -0.000065  -0.000305
     2  H   -0.000134   0.001955   0.000005  -0.000051
     3  H    0.012140  -0.145733  -0.001031   0.009052
     4  H    0.000355   0.003268   0.000026   0.000416
     5  H   -0.110034   0.483453  -0.003529  -0.130045
     6  H   -0.014932  -0.084131   0.002667   0.006504
     7  H    0.819441  -0.134501  -0.166296   0.534114
     8  H   -0.134501   1.007193   0.009707  -0.179802
     9  H   -0.166296   0.009707   1.365521  -0.127340
    10  H    0.534114  -0.179802  -0.127340   0.892003
          Atomic-Atomic Spin Densities.
               1          2          3          4          5          6
     1  H    0.710068  -0.253517   0.085795  -0.007944   0.017926  -0.125888
     2  H   -0.253517   1.170676  -0.000409  -0.093604  -0.000448   0.020884
     3  H    0.085795  -0.000409  -0.817678   0.134300   0.005331  -0.035640
     4  H   -0.007944  -0.093604   0.134300  -0.364671  -0.006195   0.035701
     5  H    0.017926  -0.000448   0.005331  -0.006195   0.657155  -0.201734
     6  H   -0.125888   0.020884  -0.035640   0.035701  -0.201734   0.890460
     7  H    0.000475   0.000003  -0.015554   0.000566   0.045277   0.000218
     8  H   -0.001472  -0.000549   0.116964  -0.012433  -0.016691  -0.046066
     9  H   -0.000020  -0.000005   0.001450   0.000013  -0.019625  -0.000098
    10  H   -0.000427   0.000038  -0.006819   0.000586  -0.042526   0.016709
               7          8          9         10
     1  H    0.000475  -0.001472  -0.000020  -0.000427
     2  H    0.000003  -0.000549  -0.000005   0.000038
     3  H   -0.015554   0.116964   0.001450  -0.006819
     4  H    0.000566  -0.012433   0.000013   0.000586
     5  H    0.045277  -0.016691  -0.019625  -0.042526
     6  H    0.000218  -0.046066  -0.000098   0.016709
     7  H   -0.370633   0.129523   0.212057  -0.153826
     8  H    0.129523  -0.699991  -0.020019   0.087784
     9  H    0.212057  -0.020019  -1.307234   0.218680
    10  H   -0.153826   0.087784   0.218680  -0.005695
 Mulliken charges and spin densities:
               1          2
     1  H   -0.028207   0.424997
     2  H   -0.080712   0.843068
     3  H    0.018024  -0.532260
     4  H    0.098874  -0.313680
     5  H    0.007421   0.438470
     6  H   -0.025693   0.554545
     7  H    0.059079  -0.151894
     8  H    0.035425  -0.462948
     9  H   -0.079665  -0.914800
    10  H   -0.004545   0.114503
 Sum of Mulliken charges =  -0.00000   0.00000
 Mulliken charges and spin densities with hydrogens summed into heavy atoms:
               1          2
 Electronic spatial extent (au):  <R**2>=            184.3896
 Charge=             -0.0000 electrons
 Dipole moment (field-independent basis, Debye):
    X=             -0.1104    Y=             -0.0149    Z=              0.0000  Tot=              0.1114
 Quadrupole moment (field-independent basis, Debye-Ang):
   XX=            -15.2429   YY=            -21.0068   ZZ=            -12.6062
   XY=              5.8145   XZ=             -0.0000   YZ=              0.0000
 Traceless Quadrupole moment (field-independent basis, Debye-Ang):
   XX=              1.0424   YY=             -4.7215   ZZ=              3.6792
   XY=              5.8145   XZ=             -0.0000   YZ=              0.0000
 Octapole moment (field-independent basis, Debye-Ang**2):
  XXX=             -0.6168  YYY=             -0.9540  ZZZ=              0.0000  XYY=              1.8949
  XXY=             -1.0256  XXZ=              0.0000  XZZ=             -0.0785  YZZ=              0.1292
  YYZ=              0.0000  XYZ=             -0.0000
 Hexadecapole moment (field-independent basis, Debye-Ang**3):
 XXXX=           -137.9430 YYYY=           -334.0826 ZZZZ=            -15.0334 XXXY=             92.6728
 XXXZ=              0.0000 YYYX=            133.2941 YYYZ=             -0.0000 ZZZX=              0.0000
 ZZZY=             -0.0000 XXYY=            -95.9835 XXZZ=            -24.3047 YYZZ=            -42.2628
 XXYZ=              0.0000 YYXZ=             -0.0000 ZZXY=             24.8106
 N-N= 1.212936930741D+01 E-N=-3.398248912818D+01  KE= 5.594255236949D+00
 Symmetry AG   KE= 2.408961612319D+00
 Symmetry BG   KE= 0.000000000000D+00
 Symmetry AU   KE= 0.000000000000D+00
 Symmetry BU   KE= 3.185293624630D+00
                          Isotropic Fermi Contact Couplings
        Atom                 a.u.       MegaHertz       Gauss      10(-4) cm-1
     1  H(1)               0.19192     428.93175     153.05351     143.07623
     2  H(1)               0.32911     735.54717     262.46151     245.35213
     3  H(1)              -0.22591    -504.88626    -180.15597    -168.41193
     4  H(1)              -0.10485    -234.32705     -83.61372     -78.16309
     5  H(1)               0.17970     401.61343     143.30565     133.96382
     6  H(1)               0.23874     533.56117     190.38789     177.97685
     7  H(1)              -0.10003    -223.55929     -79.77151     -74.57135
     8  H(1)              -0.19314    -431.65425    -154.02496    -143.98436
     9  H(1)              -0.36426    -814.10981    -290.49461    -271.55780
    10  H(1)               0.00131       2.91681       1.04079       0.97294
 --------------------------------------------------------
       Center         ----  Spin Dipole Couplings  ----
                      3XX-RR        3YY-RR        3ZZ-RR
 --------------------------------------------------------
     1   Atom       -0.054771      0.036563      0.018208
     2   Atom       -0.008969     -0.004430      0.013399
     3   Atom        0.093950      0.000858     -0.094808
     4   Atom        0.099655     -0.012993     -0.086662
     5   Atom       -0.106873      0.036457      0.070416
     6   Atom       -0.104442      0.030051      0.074391
     7   Atom        0.020865     -0.038511      0.017646
     8   Atom        0.070946     -0.015160     -0.055786
     9   Atom       -0.009967      0.024106     -0.014139
    10   Atom       -0.012994     -0.048703      0.061697
 --------------------------------------------------------
                        XY            XZ            YZ
 --------------------------------------------------------
     1   Atom       -0.019009     -0.000000      0.000000
     2   Atom        0.030189      0.000000     -0.000000
     3   Atom        0.003698     -0.000000     -0.000000
     4   Atom       -0.025093     -0.000000      0.000000
     5   Atom       -0.000756     -0.000000     -0.000000
     6   Atom       -0.020680      0.000000      0.000000
     7   Atom       -0.006738      0.000000      0.000000
     8   Atom        0.026908      0.000000     -0.000000
     9   Atom        0.000807      0.000000     -0.000000
    10   Atom       -0.011005      0.000000     -0.000000
 --------------------------------------------------------


 ---------------------------------------------------------------------------------
              Anisotropic Spin Dipole Couplings in Principal Axis System
 ---------------------------------------------------------------------------------

       Atom             a.u.   MegaHertz   Gauss  10(-4) cm-1        Axes

              Baa    -0.0586   -31.250   -11.151   -10.424  0.9806  0.1959  0.0000
     1 H(1)   Bbb     0.0182     9.715     3.466     3.240  0.0000  0.0000  1.0000
              Bcc     0.0404    21.535     7.684     7.183 -0.1959  0.9806  0.0000
 
              Baa    -0.0370   -19.728    -7.039    -6.580  0.7331 -0.6801  0.0000
     2 H(1)   Bbb     0.0134     7.149     2.551     2.385  0.0000  0.0000  1.0000
              Bcc     0.0236    12.579     4.488     4.196  0.6801  0.7331  0.0000
 
              Baa    -0.0948   -50.585   -18.050   -16.873  0.0000  0.0000  1.0000
     3 H(1)   Bbb     0.0007     0.380     0.135     0.127 -0.0396  0.9992 -0.0000
              Bcc     0.0941    50.205    17.915    16.747  0.9992  0.0396  0.0000
 
              Baa    -0.0867   -46.239   -16.499   -15.424  0.0000  0.0000  1.0000
     4 H(1)   Bbb    -0.0183    -9.780    -3.490    -3.262  0.2080  0.9781  0.0000
              Bcc     0.1050    56.019    19.989    18.686  0.9781 -0.2080  0.0000
 
              Baa    -0.1069   -57.024   -20.348   -19.021  1.0000  0.0053  0.0000
     5 H(1)   Bbb     0.0365    19.454     6.942     6.489 -0.0053  1.0000 -0.0000
              Bcc     0.0704    37.571    13.406    12.532  0.0000  0.0000  1.0000
 
              Baa    -0.1076   -57.384   -20.476   -19.141  0.9889  0.1486  0.0000
     6 H(1)   Bbb     0.0332    17.692     6.313     5.901 -0.1486  0.9889 -0.0000
              Bcc     0.0744    39.692    14.163    13.240  0.0000  0.0000  1.0000
 
              Baa    -0.0393   -20.950    -7.476    -6.988  0.1114  0.9938 -0.0000
     7 H(1)   Bbb     0.0176     9.415     3.360     3.141  0.0000  0.0000  1.0000
              Bcc     0.0216    11.535     4.116     3.848  0.9938 -0.1114  0.0000
 
              Baa    -0.0558   -29.765   -10.621    -9.928  0.0000  0.0000  1.0000
     8 H(1)   Bbb    -0.0229   -12.206    -4.355    -4.072 -0.2757  0.9612  0.0000
              Bcc     0.0787    41.971    14.976    14.000  0.9612  0.2757  0.0000
 
              Baa    -0.0141    -7.544    -2.692    -2.516  0.0000  0.0000  1.0000
     9 H(1)   Bbb    -0.0100    -5.328    -1.901    -1.777  0.9997 -0.0237  0.0000
              Bcc     0.0241    12.872     4.593     4.294  0.0237  0.9997  0.0000
 
              Baa    -0.0518   -27.650    -9.866    -9.223  0.2727  0.9621  0.0000
    10 H(1)   Bbb    -0.0099    -5.269    -1.880    -1.758  0.9621 -0.2727  0.0000
              Bcc     0.0617    32.919    11.746    10.981  0.0000  0.0000  1.0000
 

 ---------------------------------------------------------------------------------

 No NMR shielding tensors so no spin-rotation constants.
 Leave Link  601 at Fri Feb 24 16:26:24 2017, MaxMem=   134217728 cpu:         0.1
 (Enter /projects/guscus/apps/gau/g09-e1/g09/l9999.exe)

 Test job not archived.
 1\1\GINC-SULU\Stability\UHF\Gen\H10\LCJ1\24-Feb-2017\0\\#p uhf/gen scf
 (tight,novaracc,noincfock,fulldiag ) stable=opt guess=(read) geom=nocr
 owd test\\hf stability analysis of h10 triangular lattice, y= 0.450907
 00922104293 alpha= 19.399999999999999\\0,1\H\H,1,1.3574947635\H,1,1.35
 74947635,2,141.2\H,2,1.3574947635,1,38.8,3,0.,0\H,3,1.3574947635,1,180
 .,2,0.,0\H,4,1.3574947635,2,180.,1,0.,0\H,5,1.3574947635,3,180.,2,0.,0
 \H,6,1.3574947635,4,180.,1,0.,0\H,7,1.3574947635,5,180.,2,0.,0\H,8,1.3
 574947635,6,180.,1,0.,0\\Version=ES64L-G09RevE.01\HF=-4.8972975\S2=1.5
 60174\S2-1=0.\S2A=3.475718\RMSD=7.552e-10\Dipole=0.0434393,0.,0.005868
 5\Quadrupole=0.7749743,2.7353644,-3.5103387,0.,4.3229519,0.\PG=C02H [S
 GH(H10)]\\@


 DO YOU KNOW THAT THE LETTERS IN "EPISCOPAL", WHEN
 REARRANGED, SPELL "PEPSI COLA"?
 Job cpu time:       0 days  0 hours  0 minutes  0.9 seconds.
 File lengths (MBytes):  RWF=     82 Int=      0 D2E=      0 Chk=      2 Scr=      2
 Normal termination of Gaussian 09 at Fri Feb 24 16:26:24 2017.
