 Entering Gaussian System, Link 0=g09
 AtFile(1): H.gbs
            H     0
            S   10   1.00
               1000.000000000000            0.000068713567
                316.227766000000            0.000169141320
                100.000000000000            0.000823394812
                 31.622776600000            0.003425569236
                 10.000000000000            0.013951996000
                  3.162277660000            0.056909313560
                  1.000000000000            0.198286399900
                  0.316227766000            0.496922426700
                  0.100000000000            0.369846276400
                  0.031622776600            0.003752720039
            ****
 Initial command:
 /projects/guscus/apps/gau/g09-e1/g09/l1.exe "/users/lcj1/gaussian/h10/2rows_uhf/ag2bu3/singlet/follow20/test/Gau-29389.inp" -scrdir="/users/lcj1/gaussian/h10/2rows_uhf/ag2bu3/singlet/follow20/test/"
 Entering Link 1 = /projects/guscus/apps/gau/g09-e1/g09/l1.exe PID=     29390.
  
 Copyright (c) 1988,1990,1992,1993,1995,1998,2003,2009,2015,
            Gaussian, Inc.  All Rights Reserved.
  
 This is part of the Gaussian(R) 09 program.  It is based on
 the Gaussian(R) 03 system (copyright 2003, Gaussian, Inc.),
 the Gaussian(R) 98 system (copyright 1998, Gaussian, Inc.),
 the Gaussian(R) 94 system (copyright 1995, Gaussian, Inc.),
 the Gaussian 92(TM) system (copyright 1992, Gaussian, Inc.),
 the Gaussian 90(TM) system (copyright 1990, Gaussian, Inc.),
 the Gaussian 88(TM) system (copyright 1988, Gaussian, Inc.),
 the Gaussian 86(TM) system (copyright 1986, Carnegie Mellon
 University), and the Gaussian 82(TM) system (copyright 1983,
 Carnegie Mellon University). Gaussian is a federally registered
 trademark of Gaussian, Inc.
  
 This software contains proprietary and confidential information,
 including trade secrets, belonging to Gaussian, Inc.
  
 This software is provided under written license and may be
 used, copied, transmitted, or stored only in accord with that
 written license.
  
 The following legend is applicable only to US Government
 contracts under FAR:
  
                    RESTRICTED RIGHTS LEGEND
  
 Use, reproduction and disclosure by the US Government is
 subject to restrictions as set forth in subparagraphs (a)
 and (c) of the Commercial Computer Software - Restricted
 Rights clause in FAR 52.227-19.
  
 Gaussian, Inc.
 340 Quinnipiac St., Bldg. 40, Wallingford CT 06492
  
  
 ---------------------------------------------------------------
 Warning -- This program may not be used in any manner that
 competes with the business of Gaussian, Inc. or will provide
 assistance to any competitor of Gaussian, Inc.  The licensee
 of this program is prohibited from giving any competitor of
 Gaussian, Inc. access to this program.  By using this program,
 the user acknowledges that Gaussian, Inc. is engaged in the
 business of creating and licensing software in the field of
 computational chemistry and represents and warrants to the
 licensee that it is not a competitor of Gaussian, Inc. and that
 it will not use this program in any manner prohibited above.
 ---------------------------------------------------------------
  

 Cite this work as:
 Gaussian 09, Revision E.01,
 M. J. Frisch, G. W. Trucks, H. B. Schlegel, G. E. Scuseria, 
 M. A. Robb, J. R. Cheeseman, G. Scalmani, V. Barone, B. Mennucci, 
 G. A. Petersson, H. Nakatsuji, M. Caricato, X. Li, H. P. Hratchian, 
 A. F. Izmaylov, J. Bloino, G. Zheng, J. L. Sonnenberg, M. Hada, 
 M. Ehara, K. Toyota, R. Fukuda, J. Hasegawa, M. Ishida, T. Nakajima, 
 Y. Honda, O. Kitao, H. Nakai, T. Vreven, J. A. Montgomery, Jr., 
 J. E. Peralta, F. Ogliaro, M. Bearpark, J. J. Heyd, E. Brothers, 
 K. N. Kudin, V. N. Staroverov, T. Keith, R. Kobayashi, J. Normand, 
 K. Raghavachari, A. Rendell, J. C. Burant, S. S. Iyengar, J. Tomasi, 
 M. Cossi, N. Rega, J. M. Millam, M. Klene, J. E. Knox, J. B. Cross, 
 V. Bakken, C. Adamo, J. Jaramillo, R. Gomperts, R. E. Stratmann, 
 O. Yazyev, A. J. Austin, R. Cammi, C. Pomelli, J. W. Ochterski, 
 R. L. Martin, K. Morokuma, V. G. Zakrzewski, G. A. Voth, 
 P. Salvador, J. J. Dannenberg, S. Dapprich, A. D. Daniels, 
 O. Farkas, J. B. Foresman, J. V. Ortiz, J. Cioslowski, 
 and D. J. Fox, Gaussian, Inc., Wallingford CT, 2013.
 
 ******************************************
 Gaussian 09:  ES64L-G09RevE.01 30-Nov-2015
                24-Feb-2017 
 ******************************************
 %chk=h10.chk
 ----------------------------------------------------------------------
 #p uhf/gen scf(tight,novaracc,noincfock,fulldiag ) stable=opt guess=(r
 ead) geom=nocrowd test
 ----------------------------------------------------------------------
 1/38=1/1;
 2/12=1,17=6,18=5,40=1/2;
 3/5=7,11=2,16=1,25=1,30=1,116=2/1,2,3;
 4/5=1/1;
 5/5=100002,16=1,32=2,38=6/2;
 6/7=2,8=2,9=2,10=2,28=1/1;
 8/6=1,10=90,11=11/1;
 9/8=-3,42=1,46=1/14;
 5/5=100002,8=3,16=1,17=40,32=2,38=6/8(-2);
 6/7=2,8=2,9=2,10=2,28=1/1;
 99/5=1,9=1/99;
 Leave Link    1 at Fri Feb 24 16:26:51 2017, MaxMem=           0 cpu:         0.0
 (Enter /projects/guscus/apps/gau/g09-e1/g09/l101.exe)
 ----------------------------------------------------------------------
 hf stability analysis of h10 triangular lattice, y= 0.4829747999860826
 7 alpha= 22.000000000000000
 ----------------------------------------------------------------------
 Symbolic Z-matrix:
 Charge =  0 Multiplicity = 1
 H
 H                    1     1.28929 
 H                    1     1.28929  2     136. 
 H                    2     1.28929  1     44.      3     0.       0
 H                    3     1.28929  1     180.     2     0.       0
 H                    4     1.28929  2     180.     1     0.       0
 H                    5     1.28929  3     180.     2     0.       0
 H                    6     1.28929  4     180.     1     0.       0
 H                    7     1.28929  5     180.     2     0.       0
 H                    8     1.28929  6     180.     1     0.       0
 
 NAtoms=     10 NQM=       10 NQMF=       0 NMMI=      0 NMMIF=      0
                NMic=       0 NMicF=      0.
                    Isotopes and Nuclear Properties:
 (Nuclear quadrupole moments (NQMom) in fm**2, nuclear magnetic moments (NMagM)
  in nuclear magnetons)

  Atom         1           2           3           4           5           6           7           8           9          10
 IAtWgt=           1           1           1           1           1           1           1           1           1           1
 AtmWgt=   1.0078250   1.0078250   1.0078250   1.0078250   1.0078250   1.0078250   1.0078250   1.0078250   1.0078250   1.0078250
 NucSpn=           1           1           1           1           1           1           1           1           1           1
 AtZEff=   0.0000000   0.0000000   0.0000000   0.0000000   0.0000000   0.0000000   0.0000000   0.0000000   0.0000000   0.0000000
 NQMom=    0.0000000   0.0000000   0.0000000   0.0000000   0.0000000   0.0000000   0.0000000   0.0000000   0.0000000   0.0000000
 NMagM=    2.7928460   2.7928460   2.7928460   2.7928460   2.7928460   2.7928460   2.7928460   2.7928460   2.7928460   2.7928460
 AtZNuc=   1.0000000   1.0000000   1.0000000   1.0000000   1.0000000   1.0000000   1.0000000   1.0000000   1.0000000   1.0000000
 Leave Link  101 at Fri Feb 24 16:26:51 2017, MaxMem=   134217728 cpu:         0.0
 (Enter /projects/guscus/apps/gau/g09-e1/g09/l202.exe)
                          Input orientation:                          
 ---------------------------------------------------------------------
 Center     Atomic      Atomic             Coordinates (Angstroms)
 Number     Number       Type             X           Y           Z
 ---------------------------------------------------------------------
      1          1           0        0.000000    0.000000    0.000000
      2          1           0        0.000000    0.000000    1.289285
      3          1           0        0.895613    0.000000   -0.927434
      4          1           0        0.895613    0.000000    0.361851
      5          1           0        1.791226    0.000000   -1.854869
      6          1           0        1.791226    0.000000   -0.565583
      7          1           0        2.686839    0.000000   -2.782303
      8          1           0        2.686839    0.000000   -1.493017
      9          1           0        3.582451    0.000000   -3.709737
     10          1           0        3.582451    0.000000   -2.420452
 ---------------------------------------------------------------------
                    Distance matrix (angstroms):
                    1          2          3          4          5
     1  H    0.000000
     2  H    1.289285   0.000000
     3  H    1.289285   2.390809   0.000000
     4  H    0.965950   1.289285   1.289285   0.000000
     5  H    2.578571   3.618590   1.289285   2.390809   0.000000
     6  H    1.878397   2.578571   0.965950   1.289285   1.289285
     7  H    3.867856   4.878210   2.578571   3.618590   1.289285
     8  H    3.073793   3.867856   1.878397   2.578571   0.965950
     9  H    5.157141   6.150137   3.867856   4.878210   2.578571
    10  H    4.323488   5.157141   3.073793   3.867856   1.878397
                    6          7          8          9         10
     6  H    0.000000
     7  H    2.390809   0.000000
     8  H    1.289285   1.289285   0.000000
     9  H    3.618590   1.289285   2.390809   0.000000
    10  H    2.578571   0.965950   1.289285   1.289285   0.000000
 Stoichiometry    H10
 Framework group  C2H[SGH(H10)]
 Deg. of freedom     9
 Full point group                 C2H     NOp   4
 Largest Abelian subgroup         C2H     NOp   4
 Largest concise Abelian subgroup C2      NOp   2
                         Standard orientation:                         
 ---------------------------------------------------------------------
 Center     Atomic      Atomic             Coordinates (Angstroms)
 Number     Number       Type             X           Y           Z
 ---------------------------------------------------------------------
      1          1           0        1.791226   -1.210226   -0.000000
      2          1           0        1.791226   -2.499511   -0.000000
      3          1           0        0.895613   -0.282792   -0.000000
      4          1           0        0.895613   -1.572077   -0.000000
      5          1           0        0.000000    0.644643    0.000000
      6          1           0       -0.000000   -0.644643    0.000000
      7          1           0       -0.895613    1.572077   -0.000000
      8          1           0       -0.895613    0.282792   -0.000000
      9          1           0       -1.791226    2.499511   -0.000000
     10          1           0       -1.791226    1.210226   -0.000000
 ---------------------------------------------------------------------
 Rotational constants (GHZ):    267.2062479     14.1159066     13.4076125
 Leave Link  202 at Fri Feb 24 16:26:51 2017, MaxMem=   134217728 cpu:         0.0
 (Enter /projects/guscus/apps/gau/g09-e1/g09/l301.exe)
 General basis read from cards:  (5D, 7F)
 Centers:       1      2      3      4      5      6      7      8      9     10
 S 10 1.00
     Exponent=  1.0000000000D+03 Coefficients=  6.8713567000D-05
     Exponent=  3.1622776600D+02 Coefficients=  1.6914132000D-04
     Exponent=  1.0000000000D+02 Coefficients=  8.2339481200D-04
     Exponent=  3.1622776600D+01 Coefficients=  3.4255692360D-03
     Exponent=  1.0000000000D+01 Coefficients=  1.3951996000D-02
     Exponent=  3.1622776600D+00 Coefficients=  5.6909313560D-02
     Exponent=  1.0000000000D+00 Coefficients=  1.9828639990D-01
     Exponent=  3.1622776600D-01 Coefficients=  4.9692242670D-01
     Exponent=  1.0000000000D-01 Coefficients=  3.6984627640D-01
     Exponent=  3.1622776600D-02 Coefficients=  3.7527200390D-03
 ****
 Ernie: Thresh=  0.10000D-02 Tol=  0.10000D-05 Strict=F.
 There are     5 symmetry adapted cartesian basis functions of AG  symmetry.
 There are     0 symmetry adapted cartesian basis functions of BG  symmetry.
 There are     0 symmetry adapted cartesian basis functions of AU  symmetry.
 There are     5 symmetry adapted cartesian basis functions of BU  symmetry.
 There are     5 symmetry adapted basis functions of AG  symmetry.
 There are     0 symmetry adapted basis functions of BG  symmetry.
 There are     0 symmetry adapted basis functions of AU  symmetry.
 There are     5 symmetry adapted basis functions of BU  symmetry.
    10 basis functions,   100 primitive gaussians,    10 cartesian basis functions
     5 alpha electrons        5 beta electrons
       nuclear repulsion energy        12.4498089059 Hartrees.
 IExCor=    0 DFT=F Ex=HF Corr=None ExCW=0 ScaHFX=  1.000000
 ScaDFX=  1.000000  1.000000  1.000000  1.000000 ScalE2=  1.000000  1.000000
 IRadAn=      0 IRanWt=     -1 IRanGd=            0 ICorTp=0 IEmpDi=  4
 NAtoms=   10 NActive=   10 NUniq=    5 SFac= 4.00D+00 NAtFMM=   60 NAOKFM=F Big=F
 Integral buffers will be    131072 words long.
 Raffenetti 2 integral format.
 Two-electron integral symmetry is turned on.
 Leave Link  301 at Fri Feb 24 16:26:51 2017, MaxMem=   134217728 cpu:         0.0
 (Enter /projects/guscus/apps/gau/g09-e1/g09/l302.exe)
 NPDir=0 NMtPBC=     1 NCelOv=     1 NCel=       1 NClECP=     1 NCelD=      1
         NCelK=      1 NCelE2=     1 NClLst=     1 CellRange=     0.0.
 One-electron integrals computed using PRISM.
 One-electron integral symmetry used in STVInt
 NBasis=    10 RedAO= T EigKep=  1.89D-01  NBF=     5     0     0     5
 NBsUse=    10 1.00D-06 EigRej= -1.00D+00 NBFU=     5     0     0     5
 Leave Link  302 at Fri Feb 24 16:26:51 2017, MaxMem=   134217728 cpu:         0.0
 (Enter /projects/guscus/apps/gau/g09-e1/g09/l303.exe)
 DipDrv:  MaxL=1.
 Leave Link  303 at Fri Feb 24 16:26:51 2017, MaxMem=   134217728 cpu:         0.0
 (Enter /projects/guscus/apps/gau/g09-e1/g09/l401.exe)
 Initial guess from the checkpoint file:  "h10.chk"
 B after Tr=    -0.000000    0.000000   -0.000000
         Rot=    0.999995   -0.000000    0.000000   -0.003103 Ang=  -0.36 deg.
 Guess basis will be translated and rotated to current coordinates.
 JPrj=2 DoOrth=T DoCkMO=T.
 Initial guess orbital symmetries:
 Alpha Orbitals:
       Occupied  (BG) (BG) (BG) (BG) (BG)
       Virtual   (BG) (BG) (BG) (BG) (BG)
 Beta  Orbitals:
       Occupied  (BG) (BG) (BG) (BG) (BG)
       Virtual   (BG) (BG) (BG) (BG) (BG)
 Initial guess <Sx>= 0.0000 <Sy>= 0.0000 <Sz>= 0.0000 <S**2>= 1.7864 S= 0.9270
 Leave Link  401 at Fri Feb 24 16:26:52 2017, MaxMem=   134217728 cpu:         0.1
 (Enter /projects/guscus/apps/gau/g09-e1/g09/l502.exe)
 UHF open shell SCF:
 Using DIIS extrapolation, IDIIS=  1040.
 Integral symmetry usage will be decided dynamically.
 Keep R1 and R2 ints in memory in symmetry-blocked form, NReq=877591.
 IVT=       20217 IEndB=       20217 NGot=   134217728 MDV=   134195632
 LenX=   134195632 LenY=   134194750
 Requested convergence on RMS density matrix=1.00D-08 within 128 cycles.
 Requested convergence on MAX density matrix=1.00D-06.
 Requested convergence on             energy=1.00D-06.
 No special actions if energy rises.
 FoFCou: FMM=F IPFlag=           0 FMFlag=           0 FMFlg1=           0
         NFxFlg=           0 DoJE=F BraDBF=F KetDBF=F FulRan=T
         wScrn=  0.000000 ICntrl=     600 IOpCl=  0 I1Cent=           0 NGrid=           0
         NMat0=    1 NMatS0=     55 NMatT0=    0 NMatD0=    1 NMtDS0=    0 NMtDT0=    0
 Petite list used in FoFCou.
 An orbital has undefined symmetry, so N**3 symmetry is turned off.

 Cycle   1  Pass 1  IDiag  1:
 Density matrix breaks symmetry, PCut= 1.00D-04
 Density matrix has no symmetry -- integrals replicated.
 E= -4.83145075173443    
 DIIS: error= 1.34D-03 at cycle   1 NSaved=   1.
 NSaved= 1 IEnMin= 1 EnMin= -4.83145075173443     IErMin= 1 ErrMin= 1.34D-03
 ErrMax= 1.34D-03  0.00D+00 EMaxC= 1.00D-01 BMatC= 6.56D-05 BMatP= 6.56D-05
 IDIUse=3 WtCom= 9.87D-01 WtEn= 1.34D-02
 Coeff-Com:  0.100D+01
 Coeff-En:   0.100D+01
 Coeff:      0.100D+01
 Gap=     0.405 Goal=   None    Shift=    0.000
 Gap=     0.372 Goal=   None    Shift=    0.000
 GapD=    0.372 DampG=1.000 DampE=1.000 DampFc=1.0000 IDamp=-1.
 RMSDP=2.53D-03 MaxDP=6.47D-03              OVMax= 0.00D+00

 Cycle   2  Pass 1  IDiag  1:
 Density matrix breaks symmetry, PCut= 1.00D-07
 Density matrix has no symmetry -- integrals replicated.
 E= -4.83155397526679     Delta-E=       -0.000103223532 Rises=F Damp=F
 DIIS: error= 9.87D-04 at cycle   2 NSaved=   2.
 NSaved= 2 IEnMin= 2 EnMin= -4.83155397526679     IErMin= 2 ErrMin= 9.87D-04
 ErrMax= 9.87D-04  0.00D+00 EMaxC= 1.00D-01 BMatC= 2.97D-05 BMatP= 6.56D-05
 IDIUse=3 WtCom= 9.90D-01 WtEn= 9.87D-03
 Coeff-Com: -0.118D+01 0.218D+01
 Coeff-En:   0.000D+00 0.100D+01
 Coeff:     -0.117D+01 0.217D+01
 Gap=     0.403 Goal=   None    Shift=    0.000
 Gap=     0.371 Goal=   None    Shift=    0.000
 RMSDP=3.92D-03 MaxDP=1.17D-02 DE=-1.03D-04 OVMax= 0.00D+00

 Cycle   3  Pass 1  IDiag  1:
 Density matrix breaks symmetry, PCut= 1.00D-07
 Density matrix has no symmetry -- integrals replicated.
 E= -4.83164877089729     Delta-E=       -0.000094795630 Rises=F Damp=F
 DIIS: error= 4.83D-04 at cycle   3 NSaved=   3.
 NSaved= 3 IEnMin= 3 EnMin= -4.83164877089729     IErMin= 3 ErrMin= 4.83D-04
 ErrMax= 4.83D-04  0.00D+00 EMaxC= 1.00D-01 BMatC= 8.61D-06 BMatP= 2.97D-05
 IDIUse=3 WtCom= 9.95D-01 WtEn= 4.83D-03
 Coeff-Com:  0.132D+01-0.278D+01 0.246D+01
 Coeff-En:   0.000D+00 0.000D+00 0.100D+01
 Coeff:      0.131D+01-0.277D+01 0.246D+01
 Gap=     0.402 Goal=   None    Shift=    0.000
 Gap=     0.371 Goal=   None    Shift=    0.000
 RMSDP=3.02D-03 MaxDP=1.12D-02 DE=-9.48D-05 OVMax= 0.00D+00

 Cycle   4  Pass 1  IDiag  1:
 Density matrix breaks symmetry, PCut= 1.00D-07
 Density matrix has no symmetry -- integrals replicated.
 E= -4.83168808961754     Delta-E=       -0.000039318720 Rises=F Damp=F
 DIIS: error= 2.67D-04 at cycle   4 NSaved=   4.
 NSaved= 4 IEnMin= 4 EnMin= -4.83168808961754     IErMin= 4 ErrMin= 2.67D-04
 ErrMax= 2.67D-04  0.00D+00 EMaxC= 1.00D-01 BMatC= 2.67D-06 BMatP= 8.61D-06
 IDIUse=3 WtCom= 9.97D-01 WtEn= 2.67D-03
 Coeff-Com: -0.116D+01 0.256D+01-0.296D+01 0.256D+01
 Coeff-En:   0.000D+00 0.000D+00 0.000D+00 0.100D+01
 Coeff:     -0.115D+01 0.255D+01-0.296D+01 0.256D+01
 Gap=     0.401 Goal=   None    Shift=    0.000
 Gap=     0.370 Goal=   None    Shift=    0.000
 RMSDP=2.34D-03 MaxDP=9.73D-03 DE=-3.93D-05 OVMax= 0.00D+00

 Cycle   5  Pass 1  IDiag  1:
 Density matrix breaks symmetry, PCut= 1.00D-07
 Density matrix has no symmetry -- integrals replicated.
 E= -4.83170376724578     Delta-E=       -0.000015677628 Rises=F Damp=F
 DIIS: error= 1.11D-04 at cycle   5 NSaved=   5.
 NSaved= 5 IEnMin= 5 EnMin= -4.83170376724578     IErMin= 5 ErrMin= 1.11D-04
 ErrMax= 1.11D-04  0.00D+00 EMaxC= 1.00D-01 BMatC= 5.07D-07 BMatP= 2.67D-06
 IDIUse=3 WtCom= 9.99D-01 WtEn= 1.11D-03
 Coeff-Com:  0.421D+00-0.968D+00 0.138D+01-0.185D+01 0.202D+01
 Coeff-En:   0.000D+00 0.000D+00 0.000D+00 0.000D+00 0.100D+01
 Coeff:      0.421D+00-0.967D+00 0.138D+01-0.185D+01 0.202D+01
 Gap=     0.401 Goal=   None    Shift=    0.000
 Gap=     0.370 Goal=   None    Shift=    0.000
 RMSDP=1.08D-03 MaxDP=4.59D-03 DE=-1.57D-05 OVMax= 0.00D+00

 Cycle   6  Pass 1  IDiag  1:
 Density matrix breaks symmetry, PCut= 1.00D-07
 Density matrix has no symmetry -- integrals replicated.
 E= -4.83170664824782     Delta-E=       -0.000002881002 Rises=F Damp=F
 DIIS: error= 3.50D-05 at cycle   6 NSaved=   6.
 NSaved= 6 IEnMin= 6 EnMin= -4.83170664824782     IErMin= 6 ErrMin= 3.50D-05
 ErrMax= 3.50D-05  0.00D+00 EMaxC= 1.00D-01 BMatC= 8.19D-08 BMatP= 5.07D-07
 IDIUse=1 WtCom= 1.00D+00 WtEn= 0.00D+00
 Coeff-Com: -0.826D-01 0.206D+00-0.437D+00 0.876D+00-0.146D+01 0.189D+01
 Coeff:     -0.826D-01 0.206D+00-0.437D+00 0.876D+00-0.146D+01 0.189D+01
 Gap=     0.401 Goal=   None    Shift=    0.000
 Gap=     0.370 Goal=   None    Shift=    0.000
 RMSDP=3.36D-04 MaxDP=1.43D-03 DE=-2.88D-06 OVMax= 0.00D+00

 Cycle   7  Pass 1  IDiag  1:
 Density matrix breaks symmetry, PCut= 1.00D-07
 Density matrix has no symmetry -- integrals replicated.
 E= -4.83170699487252     Delta-E=       -0.000000346625 Rises=F Damp=F
 DIIS: error= 1.55D-05 at cycle   7 NSaved=   7.
 NSaved= 7 IEnMin= 7 EnMin= -4.83170699487252     IErMin= 7 ErrMin= 1.55D-05
 ErrMax= 1.55D-05  0.00D+00 EMaxC= 1.00D-01 BMatC= 1.83D-08 BMatP= 8.19D-08
 IDIUse=1 WtCom= 1.00D+00 WtEn= 0.00D+00
 Coeff-Com:  0.634D-01-0.160D+00 0.378D+00-0.822D+00 0.146D+01-0.232D+01
 Coeff-Com:  0.240D+01
 Coeff:      0.634D-01-0.160D+00 0.378D+00-0.822D+00 0.146D+01-0.232D+01
 Coeff:      0.240D+01
 Gap=     0.401 Goal=   None    Shift=    0.000
 Gap=     0.370 Goal=   None    Shift=    0.000
 RMSDP=1.56D-04 MaxDP=6.57D-04 DE=-3.47D-07 OVMax= 0.00D+00

 Cycle   8  Pass 1  IDiag  1:
 Density matrix breaks symmetry, PCut= 1.00D-07
 Density matrix has no symmetry -- integrals replicated.
 E= -4.83170706508836     Delta-E=       -0.000000070216 Rises=F Damp=F
 DIIS: error= 5.57D-06 at cycle   8 NSaved=   8.
 NSaved= 8 IEnMin= 8 EnMin= -4.83170706508836     IErMin= 8 ErrMin= 5.57D-06
 ErrMax= 5.57D-06  0.00D+00 EMaxC= 1.00D-01 BMatC= 2.21D-09 BMatP= 1.83D-08
 IDIUse=1 WtCom= 1.00D+00 WtEn= 0.00D+00
 Coeff-Com: -0.277D-01 0.723D-01-0.192D+00 0.443D+00-0.815D+00 0.138D+01
 Coeff-Com: -0.177D+01 0.191D+01
 Coeff:     -0.277D-01 0.723D-01-0.192D+00 0.443D+00-0.815D+00 0.138D+01
 Coeff:     -0.177D+01 0.191D+01
 Gap=     0.401 Goal=   None    Shift=    0.000
 Gap=     0.370 Goal=   None    Shift=    0.000
 RMSDP=4.47D-05 MaxDP=1.60D-04 DE=-7.02D-08 OVMax= 0.00D+00

 Cycle   9  Pass 1  IDiag  1:
 Density matrix breaks symmetry, PCut= 1.00D-07
 Density matrix has no symmetry -- integrals replicated.
 E= -4.83170707200268     Delta-E=       -0.000000006914 Rises=F Damp=F
 DIIS: error= 2.18D-06 at cycle   9 NSaved=   9.
 NSaved= 9 IEnMin= 9 EnMin= -4.83170707200268     IErMin= 9 ErrMin= 2.18D-06
 ErrMax= 2.18D-06  0.00D+00 EMaxC= 1.00D-01 BMatC= 2.78D-10 BMatP= 2.21D-09
 IDIUse=1 WtCom= 1.00D+00 WtEn= 0.00D+00
 Coeff-Com:  0.152D-01-0.395D-01 0.106D+00-0.249D+00 0.461D+00-0.783D+00
 Coeff-Com:  0.106D+01-0.140D+01 0.184D+01
 Coeff:      0.152D-01-0.395D-01 0.106D+00-0.249D+00 0.461D+00-0.783D+00
 Coeff:      0.106D+01-0.140D+01 0.184D+01
 Gap=     0.401 Goal=   None    Shift=    0.000
 Gap=     0.370 Goal=   None    Shift=    0.000
 RMSDP=1.16D-05 MaxDP=2.92D-05 DE=-6.91D-09 OVMax= 0.00D+00

 Cycle  10  Pass 1  IDiag  1:
 Density matrix breaks symmetry, PCut= 1.00D-07
 Density matrix has no symmetry -- integrals replicated.
 E= -4.83170707274880     Delta-E=       -0.000000000746 Rises=F Damp=F
 DIIS: error= 8.03D-07 at cycle  10 NSaved=  10.
 NSaved=10 IEnMin=10 EnMin= -4.83170707274880     IErMin=10 ErrMin= 8.03D-07
 ErrMax= 8.03D-07  0.00D+00 EMaxC= 1.00D-01 BMatC= 5.01D-11 BMatP= 2.78D-10
 IDIUse=1 WtCom= 1.00D+00 WtEn= 0.00D+00
 Coeff-Com: -0.106D-01 0.269D-01-0.656D-01 0.149D+00-0.270D+00 0.453D+00
 Coeff-Com: -0.632D+00 0.890D+00-0.153D+01 0.199D+01
 Coeff:     -0.106D-01 0.269D-01-0.656D-01 0.149D+00-0.270D+00 0.453D+00
 Coeff:     -0.632D+00 0.890D+00-0.153D+01 0.199D+01
 Gap=     0.401 Goal=   None    Shift=    0.000
 Gap=     0.370 Goal=   None    Shift=    0.000
 RMSDP=6.22D-06 MaxDP=2.30D-05 DE=-7.46D-10 OVMax= 0.00D+00

 Cycle  11  Pass 1  IDiag  1:
 Density matrix breaks symmetry, PCut= 1.00D-07
 Density matrix has no symmetry -- integrals replicated.
 E= -4.83170707290564     Delta-E=       -0.000000000157 Rises=F Damp=F
 DIIS: error= 2.26D-07 at cycle  11 NSaved=  11.
 NSaved=11 IEnMin=11 EnMin= -4.83170707290564     IErMin=11 ErrMin= 2.26D-07
 ErrMax= 2.26D-07  0.00D+00 EMaxC= 1.00D-01 BMatC= 5.63D-12 BMatP= 5.01D-11
 IDIUse=1 WtCom= 1.00D+00 WtEn= 0.00D+00
 Coeff-Com:  0.321D-02-0.770D-02 0.153D-01-0.321D-01 0.551D-01-0.886D-01
 Coeff-Com:  0.138D+00-0.222D+00 0.528D+00-0.113D+01 0.174D+01
 Coeff:      0.321D-02-0.770D-02 0.153D-01-0.321D-01 0.551D-01-0.886D-01
 Coeff:      0.138D+00-0.222D+00 0.528D+00-0.113D+01 0.174D+01
 Gap=     0.401 Goal=   None    Shift=    0.000
 Gap=     0.370 Goal=   None    Shift=    0.000
 RMSDP=1.77D-06 MaxDP=1.04D-05 DE=-1.57D-10 OVMax= 0.00D+00

 Cycle  12  Pass 1  IDiag  1:
 Density matrix breaks symmetry, PCut= 1.00D-07
 Density matrix has no symmetry -- integrals replicated.
 E= -4.83170707291903     Delta-E=       -0.000000000013 Rises=F Damp=F
 DIIS: error= 6.43D-08 at cycle  12 NSaved=  12.
 NSaved=12 IEnMin=12 EnMin= -4.83170707291903     IErMin=12 ErrMin= 6.43D-08
 ErrMax= 6.43D-08  0.00D+00 EMaxC= 1.00D-01 BMatC= 5.57D-13 BMatP= 5.63D-12
 IDIUse=1 WtCom= 1.00D+00 WtEn= 0.00D+00
 Coeff-Com: -0.279D-02 0.669D-02-0.132D-01 0.276D-01-0.474D-01 0.757D-01
 Coeff-Com: -0.115D+00 0.174D+00-0.394D+00 0.877D+00-0.156D+01 0.197D+01
 Coeff:     -0.279D-02 0.669D-02-0.132D-01 0.276D-01-0.474D-01 0.757D-01
 Coeff:     -0.115D+00 0.174D+00-0.394D+00 0.877D+00-0.156D+01 0.197D+01
 Gap=     0.401 Goal=   None    Shift=    0.000
 Gap=     0.370 Goal=   None    Shift=    0.000
 RMSDP=4.38D-07 MaxDP=1.59D-06 DE=-1.34D-11 OVMax= 0.00D+00

 Cycle  13  Pass 1  IDiag  1:
 Density matrix breaks symmetry, PCut= 1.00D-07
 Density matrix has no symmetry -- integrals replicated.
 E= -4.83170707292005     Delta-E=       -0.000000000001 Rises=F Damp=F
 DIIS: error= 1.81D-08 at cycle  13 NSaved=  13.
 NSaved=13 IEnMin=13 EnMin= -4.83170707292005     IErMin=13 ErrMin= 1.81D-08
 ErrMax= 1.81D-08  0.00D+00 EMaxC= 1.00D-01 BMatC= 3.04D-14 BMatP= 5.57D-13
 IDIUse=1 WtCom= 1.00D+00 WtEn= 0.00D+00
 Coeff-Com:  0.813D-03-0.192D-02 0.349D-02-0.699D-02 0.118D-01-0.184D-01
 Coeff-Com:  0.288D-01-0.431D-01 0.993D-01-0.231D+00 0.423D+00-0.671D+00
 Coeff-Com:  0.141D+01
 Coeff:      0.813D-03-0.192D-02 0.349D-02-0.699D-02 0.118D-01-0.184D-01
 Coeff:      0.288D-01-0.431D-01 0.993D-01-0.231D+00 0.423D+00-0.671D+00
 Coeff:      0.141D+01
 Gap=     0.401 Goal=   None    Shift=    0.000
 Gap=     0.370 Goal=   None    Shift=    0.000
 RMSDP=1.05D-07 MaxDP=3.44D-07 DE=-1.01D-12 OVMax= 0.00D+00

 Cycle  14  Pass 1  IDiag  1:
 Density matrix breaks symmetry, PCut= 1.00D-07
 Density matrix has no symmetry -- integrals replicated.
 E= -4.83170707292010     Delta-E=       -0.000000000000 Rises=F Damp=F
 DIIS: error= 5.59D-09 at cycle  14 NSaved=  14.
 NSaved=14 IEnMin=14 EnMin= -4.83170707292010     IErMin=14 ErrMin= 5.59D-09
 ErrMax= 5.59D-09  0.00D+00 EMaxC= 1.00D-01 BMatC= 3.47D-15 BMatP= 3.04D-14
 IDIUse=1 WtCom= 1.00D+00 WtEn= 0.00D+00
 Coeff-Com: -0.328D-03 0.764D-03-0.132D-02 0.257D-02-0.427D-02 0.662D-02
 Coeff-Com: -0.103D-01 0.144D-01-0.307D-01 0.702D-01-0.121D+00 0.219D+00
 Coeff-Com: -0.843D+00 0.170D+01
 Coeff:     -0.328D-03 0.764D-03-0.132D-02 0.257D-02-0.427D-02 0.662D-02
 Coeff:     -0.103D-01 0.144D-01-0.307D-01 0.702D-01-0.121D+00 0.219D+00
 Coeff:     -0.843D+00 0.170D+01
 Gap=     0.401 Goal=   None    Shift=    0.000
 Gap=     0.370 Goal=   None    Shift=    0.000
 RMSDP=4.04D-08 MaxDP=1.48D-07 DE=-5.68D-14 OVMax= 0.00D+00

 Cycle  15  Pass 1  IDiag  1:
 Density matrix breaks symmetry, PCut= 1.00D-07
 Density matrix has no symmetry -- integrals replicated.
 E= -4.83170707292010     Delta-E=        0.000000000000 Rises=F Damp=F
 DIIS: error= 1.82D-09 at cycle  15 NSaved=  15.
 NSaved=15 IEnMin=14 EnMin= -4.83170707292010     IErMin=15 ErrMin= 1.82D-09
 ErrMax= 1.82D-09  0.00D+00 EMaxC= 1.00D-01 BMatC= 2.37D-16 BMatP= 3.47D-15
 IDIUse=1 WtCom= 1.00D+00 WtEn= 0.00D+00
 Coeff-Com:  0.369D-04-0.782D-04 0.707D-04-0.646D-04 0.407D-04 0.207D-04
 Coeff-Com:  0.120D-03 0.148D-03-0.621D-03-0.411D-03-0.933D-03-0.106D-01
 Coeff-Com:  0.213D+00-0.674D+00 0.147D+01
 Coeff:      0.369D-04-0.782D-04 0.707D-04-0.646D-04 0.407D-04 0.207D-04
 Coeff:      0.120D-03 0.148D-03-0.621D-03-0.411D-03-0.933D-03-0.106D-01
 Coeff:      0.213D+00-0.674D+00 0.147D+01
 Gap=     0.401 Goal=   None    Shift=    0.000
 Gap=     0.370 Goal=   None    Shift=    0.000
 RMSDP=9.03D-09 MaxDP=2.83D-08 DE= 0.00D+00 OVMax= 0.00D+00

 Density matrix breaks symmetry, PCut= 1.00D-07
 Density matrix has no symmetry -- integrals replicated.
 SCF Done:  E(UHF) =  -4.83170707292     A.U. after   15 cycles
            NFock= 15  Conv=0.90D-08     -V/T= 1.8806
 <Sx>= 0.0000 <Sy>= 0.0000 <Sz>= 0.0000 <S**2>= 1.7491 S= 0.9139
 <L.S>= 0.000000000000E+00
 KE= 5.486995400410D+00 PE=-3.441038725749D+01 EE= 1.164187587821D+01
 Annihilation of the first spin contaminant:
 S**2 before annihilation     1.7491,   after     4.8519
 Leave Link  502 at Fri Feb 24 16:26:52 2017, MaxMem=   134217728 cpu:         0.1
 (Enter /projects/guscus/apps/gau/g09-e1/g09/l601.exe)
 Copying SCF densities to generalized density rwf, IOpCl= 1 IROHF=0.

 **********************************************************************

            Population analysis using the SCF density.

 **********************************************************************

 Orbital symmetries:
 Alpha Orbitals:
       Occupied  (BG) (BG) (BG) (BG) (BG)
       Virtual   (BG) (BG) (BG) (BG) (BG)
 Beta  Orbitals:
       Occupied  (BG) (BG) (BG) (BG) (BG)
       Virtual   (BG) (BG) (BG) (BG) (BG)
 Unable to determine electronic state:  partially filled degenerate orbitals.
 Alpha  occ. eigenvalues --   -0.81452  -0.72041  -0.59130  -0.39985  -0.30357
 Alpha virt. eigenvalues --    0.09702   0.19903   0.27741   0.39894   0.59647
  Beta  occ. eigenvalues --   -0.82105  -0.72930  -0.57782  -0.41124  -0.27057
  Beta virt. eigenvalues --    0.09991   0.14489   0.26725   0.42320   0.59658
          Condensed to atoms (all electrons):
               1          2          3          4          5          6
     1  H    1.084908  -0.161122   0.070311   0.193437   0.011729  -0.174781
     2  H   -0.161122   1.179174  -0.072396   0.113812   0.000941   0.003027
     3  H    0.070311  -0.072396   1.033661  -0.081251   0.070967   0.122275
     4  H    0.193437   0.113812  -0.081251   0.638259  -0.045029   0.060926
     5  H    0.011729   0.000941   0.070967  -0.045029   1.022381  -0.195018
     6  H   -0.174781   0.003027   0.122275   0.060926  -0.195018   1.223161
     7  H    0.003384  -0.000060   0.017896  -0.000996   0.122673  -0.071620
     8  H   -0.007084   0.003792  -0.153694   0.004072   0.117284   0.095377
     9  H   -0.000164  -0.000023   0.000592   0.000072  -0.035432   0.007136
    10  H    0.000062  -0.000065  -0.005221   0.002314  -0.101575   0.006065
               7          8          9         10
     1  H    0.003384  -0.007084  -0.000164   0.000062
     2  H   -0.000060   0.003792  -0.000023  -0.000065
     3  H    0.017896  -0.153694   0.000592  -0.005221
     4  H   -0.000996   0.004072   0.000072   0.002314
     5  H    0.122673   0.117284  -0.035432  -0.101575
     6  H   -0.071620   0.095377   0.007136   0.006065
     7  H    1.292460  -0.249175  -0.265125   0.201440
     8  H   -0.249175   1.210392   0.005163  -0.011293
     9  H   -0.265125   0.005163   1.210980   0.087774
    10  H    0.201440  -0.011293   0.087774   0.721819
          Atomic-Atomic Spin Densities.
               1          2          3          4          5          6
     1  H    0.797393  -0.244573   0.163321  -0.126583   0.020743  -0.131556
     2  H   -0.244573   1.026351  -0.021624  -0.048781   0.003389   0.013349
     3  H    0.163321  -0.021624  -0.687197   0.131299  -0.105814  -0.054866
     4  H   -0.126583  -0.048781   0.131299  -0.348763  -0.014744   0.128891
     5  H    0.020743   0.003389  -0.105814  -0.014744   0.814895  -0.202021
     6  H   -0.131556   0.013349  -0.054866   0.128891  -0.202021   0.800686
     7  H   -0.000179  -0.000036  -0.020431  -0.000207  -0.048373   0.029361
     8  H   -0.002708   0.000402   0.127000  -0.015514   0.179988  -0.114190
     9  H    0.000140   0.000000  -0.000244   0.000125   0.006495  -0.004499
    10  H   -0.000421  -0.000164   0.004704   0.000795  -0.095024   0.017281
               7          8          9         10
     1  H   -0.000179  -0.002708   0.000140  -0.000421
     2  H   -0.000036   0.000402   0.000000  -0.000164
     3  H   -0.020431   0.127000  -0.000244   0.004704
     4  H   -0.000207  -0.015514   0.000125   0.000795
     5  H   -0.048373   0.179988   0.006495  -0.095024
     6  H    0.029361  -0.114190  -0.004499   0.017281
     7  H   -1.091524   0.275485   0.283649   0.013807
     8  H    0.275485  -1.036113  -0.013097  -0.038332
     9  H    0.283649  -0.013097  -1.145998   0.039634
    10  H    0.013807  -0.038332   0.039634   0.598517
 Mulliken charges and spin densities:
               1          2
     1  H   -0.020681   0.475577
     2  H   -0.067081   0.728313
     3  H   -0.003141  -0.463852
     4  H    0.114381  -0.293482
     5  H    0.031078   0.559533
     6  H   -0.076549   0.482436
     7  H   -0.050878  -0.558447
     8  H   -0.014835  -0.637080
     9  H   -0.010973  -0.833794
    10  H    0.098680   0.540797
 Sum of Mulliken charges =   0.00000   0.00000
 Mulliken charges and spin densities with hydrogens summed into heavy atoms:
               1          2
 Electronic spatial extent (au):  <R**2>=            166.1238
 Charge=              0.0000 electrons
 Dipole moment (field-independent basis, Debye):
    X=             -0.7485    Y=              0.4369    Z=             -0.0000  Tot=              0.8667
 Quadrupole moment (field-independent basis, Debye-Ang):
   XX=            -14.0908   YY=            -16.9487   ZZ=            -12.7591
   XY=              1.8084   XZ=              0.0000   YZ=              0.0000
 Traceless Quadrupole moment (field-independent basis, Debye-Ang):
   XX=              0.5087   YY=             -2.3492   ZZ=              1.8404
   XY=              1.8084   XZ=              0.0000   YZ=              0.0000
 Octapole moment (field-independent basis, Debye-Ang**2):
  XXX=             -3.2584  YYY=              4.2574  ZZZ=              0.0000  XYY=             -1.6138
  XXY=              1.4026  XXZ=              0.0000  XZZ=             -0.2339  YZZ=              0.2870
  YYZ=              0.0000  XYZ=             -0.0000
 Hexadecapole moment (field-independent basis, Debye-Ang**3):
 XXXX=           -149.5951 YYYY=           -228.5031 ZZZZ=            -15.3352 XXXY=             77.7147
 XXXZ=             -0.0000 YYYX=             93.3584 YYYZ=              0.0000 ZZZX=             -0.0000
 ZZZY=              0.0000 XXYY=            -73.8940 XXZZ=            -26.5410 YYZZ=            -34.2261
 XXYZ=              0.0000 YYXZ=             -0.0000 ZZXY=             22.1507
 N-N= 1.244980890595D+01 E-N=-3.441038726485D+01  KE= 5.486995400410D+00
 Symmetry AG   KE= 2.313987736093D+00
 Symmetry BG   KE= 0.000000000000D+00
 Symmetry AU   KE= 0.000000000000D+00
 Symmetry BU   KE= 3.173007664317D+00
                          Isotropic Fermi Contact Couplings
        Atom                 a.u.       MegaHertz       Gauss      10(-4) cm-1
     1  H(1)               0.21031     470.02990     167.71835     156.78510
     2  H(1)               0.28625     639.75050     228.27888     213.39780
     3  H(1)              -0.19191    -428.90188    -153.04285    -143.06627
     4  H(1)              -0.10349    -231.28865     -82.52954     -77.14959
     5  H(1)               0.23237     519.33908     185.31309     173.23287
     6  H(1)               0.21183     473.43166     168.93218     157.91980
     7  H(1)              -0.27926    -624.13371    -222.70642    -208.18860
     8  H(1)              -0.27215    -608.23513    -217.03341    -202.88540
     9  H(1)              -0.32164    -718.83826    -256.49936    -239.77863
    10  H(1)               0.17956     401.29797     143.19309     133.85859
 --------------------------------------------------------
       Center         ----  Spin Dipole Couplings  ----
                      3XX-RR        3YY-RR        3ZZ-RR
 --------------------------------------------------------
     1   Atom       -0.060507      0.044870      0.015637
     2   Atom       -0.015697      0.006120      0.009577
     3   Atom        0.082579      0.006269     -0.088848
     4   Atom        0.095780     -0.007530     -0.088251
     5   Atom       -0.100840      0.001030      0.099811
     6   Atom       -0.101032      0.036852      0.064180
     7   Atom        0.099134     -0.066809     -0.032325
     8   Atom        0.126311     -0.056097     -0.070215
     9   Atom       -0.037328      0.048253     -0.010925
    10   Atom       -0.041416     -0.072796      0.114213
 --------------------------------------------------------
                        XY            XZ            YZ
 --------------------------------------------------------
     1   Atom       -0.027577     -0.000000      0.000000
     2   Atom        0.033697      0.000000     -0.000000
     3   Atom       -0.017710     -0.000000      0.000000
     4   Atom       -0.036183     -0.000000      0.000000
     5   Atom        0.033316     -0.000000     -0.000000
     6   Atom       -0.004497      0.000000      0.000000
     7   Atom        0.031385      0.000000      0.000000
     8   Atom        0.014909      0.000000     -0.000000
     9   Atom        0.028675      0.000000     -0.000000
    10   Atom       -0.012328     -0.000000      0.000000
 --------------------------------------------------------


 ---------------------------------------------------------------------------------
              Anisotropic Spin Dipole Couplings in Principal Axis System
 ---------------------------------------------------------------------------------

       Atom             a.u.   MegaHertz   Gauss  10(-4) cm-1        Axes

              Baa    -0.0673   -35.902   -12.811   -11.976  0.9711  0.2388  0.0000
     1 H(1)   Bbb     0.0156     8.343     2.977     2.783  0.0000  0.0000  1.0000
              Bcc     0.0517    27.558     9.834     9.192 -0.2388  0.9711  0.0000
 
              Baa    -0.0402   -21.452    -7.655    -7.156  0.8087 -0.5882  0.0000
     2 H(1)   Bbb     0.0096     5.110     1.823     1.704  0.0000  0.0000  1.0000
              Bcc     0.0306    16.343     5.831     5.451  0.5882  0.8087  0.0000
 
              Baa    -0.0888   -47.405   -16.915   -15.813  0.0000  0.0000  1.0000
     3 H(1)   Bbb     0.0024     1.259     0.449     0.420  0.2156  0.9765  0.0000
              Bcc     0.0865    46.146    16.466    15.393  0.9765 -0.2156  0.0000
 
              Baa    -0.0883   -47.086   -16.802   -15.706  0.0000  0.0000  1.0000
     4 H(1)   Bbb    -0.0189   -10.107    -3.606    -3.371  0.3008  0.9537  0.0000
              Bcc     0.1072    57.193    20.408    19.077  0.9537 -0.3008  0.0000
 
              Baa    -0.1108   -59.101   -21.089   -19.714  0.9584 -0.2856  0.0000
     5 H(1)   Bbb     0.0110     5.846     2.086     1.950  0.2856  0.9584 -0.0000
              Bcc     0.0998    53.254    19.002    17.764  0.0000  0.0000  1.0000
 
              Baa    -0.1012   -53.984   -19.263   -18.007  0.9995  0.0326  0.0000
     6 H(1)   Bbb     0.0370    19.741     7.044     6.585 -0.0326  0.9995 -0.0000
              Bcc     0.0642    34.243    12.219    11.422  0.0000  0.0000  1.0000
 
              Baa    -0.0725   -38.707   -13.812   -12.911 -0.1798  0.9837 -0.0000
     7 H(1)   Bbb    -0.0323   -17.247    -6.154    -5.753  0.0000  0.0000  1.0000
              Bcc     0.1049    55.954    19.966    18.664  0.9837  0.1798  0.0000
 
              Baa    -0.0702   -37.463   -13.368   -12.496  0.0000  0.0000  1.0000
     8 H(1)   Bbb    -0.0573   -30.576   -10.910   -10.199 -0.0809  0.9967  0.0000
              Bcc     0.1275    68.040    24.278    22.696  0.9967  0.0809  0.0000
 
              Baa    -0.0460   -24.569    -8.767    -8.195  0.9567 -0.2909  0.0000
     9 H(1)   Bbb    -0.0109    -5.829    -2.080    -1.944  0.0000  0.0000  1.0000
              Bcc     0.0570    30.398    10.847    10.140  0.2909  0.9567  0.0000
 
              Baa    -0.0771   -41.116   -14.671   -13.715  0.3269  0.9451  0.0000
    10 H(1)   Bbb    -0.0372   -19.823    -7.073    -6.612  0.9451 -0.3269  0.0000
              Bcc     0.1142    60.939    21.744    20.327  0.0000  0.0000  1.0000
 

 ---------------------------------------------------------------------------------

 No NMR shielding tensors so no spin-rotation constants.
 Leave Link  601 at Fri Feb 24 16:26:52 2017, MaxMem=   134217728 cpu:         0.1
 (Enter /projects/guscus/apps/gau/g09-e1/g09/l801.exe)
 Range of M.O.s used for correlation:     1    10
 NBasis=    10 NAE=     5 NBE=     5 NFC=     0 NFV=     0
 NROrb=     10 NOA=     5 NOB=     5 NVA=     5 NVB=     5
 Leave Link  801 at Fri Feb 24 16:26:52 2017, MaxMem=   134217728 cpu:         0.0
 (Enter /projects/guscus/apps/gau/g09-e1/g09/l914.exe)
 UHF ground state
 Doing stability rather than CIS.
 MDV=   134217728 DFT=F DoStab=T Mixed=F DoRPA=F DoScal=F NonHer=F
 Keep R1 and R2 ints in memory in symmetry-blocked form, NReq=802982.
 FoFCou: FMM=F IPFlag=           0 FMFlag=           0 FMFlg1=           0
         NFxFlg=           0 DoJE=F BraDBF=F KetDBF=F FulRan=T
         wScrn=  0.000000 ICntrl=     600 IOpCl=  0 I1Cent=           0 NGrid=           0
         NMat0=    1 NMatS0=     55 NMatT0=    0 NMatD0=    1 NMtDS0=    0 NMtDT0=    0
 Petite list used in FoFCou.
 Making orbital integer symmetry assigments:
 Orbital symmetries:
 Alpha Orbitals:
       Occupied  (BG) (BG) (BG) (BG) (BG)
       Virtual   (BG) (BG) (BG) (BG) (BG)
 Beta  Orbitals:
       Occupied  (BG) (BG) (BG) (BG) (BG)
       Virtual   (BG) (BG) (BG) (BG) (BG)
    12 initial guesses have been made.
 Convergence on wavefunction:    0.001000000000000
 Davidson Disk Diagonalization:  ConvIn= 1.00D-03 SkipCon=T Conv= 1.00D-03.
 Max sub-space:   200 roots to seek:    12 dimension of matrix:           50
 Iteration     1 Dimension    12 NMult     0 NNew     12
 CISAX will form    12 AO SS matrices at one time.
 NMat=    12 NSing=    12 JSym2X= 2.
 Excitation Energies [eV] at current iteration:
 Root      1 :     1.788443035922044
 Root      2 :     3.700047672973910
 Root      3 :     4.685115428017064
 Root      4 :     5.855859771654671
 Root      5 :     7.026903941611235
 Root      6 :     7.721624622884347
 Root      7 :     8.461002966556386
 Root      8 :     9.494204962736676
 Root      9 :     9.861955169341181
 Root     10 :    10.776638117299750
 Root     11 :    12.177237164114030
 Root     12 :    13.397485951855690
 Iteration     2 Dimension    24 NMult    12 NNew     12
 CISAX will form    12 AO SS matrices at one time.
 NMat=    12 NSing=    12 JSym2X= 2.
 Root      1 not converged, maximum delta is    0.068971237303110
 Excitation Energies [eV] at current iteration:
 Root      1 :     1.507920496862365   Change is   -0.280522539059678
 Root      2 :     3.140990897724925   Change is   -0.559056775248985
 Root      3 :     4.132473426533794   Change is   -0.552642001483270
 Root      4 :     4.533823674239327   Change is   -1.322036097415344
 Root      5 :     6.149703081690067   Change is   -0.877200859921168
 Root      6 :     6.541702856108135   Change is   -1.179921766776213
 Root      7 :     6.867831546146894   Change is   -1.593171420409493
 Root      8 :     8.223311083205596   Change is   -1.270893879531079
 Root      9 :     9.268012754296505   Change is   -0.593942415044677
 Root     10 :    10.169367017259240   Change is   -0.607271100040502
 Root     11 :    10.585476010528850   Change is   -2.812009941326838
 Root     12 :    11.121509121085890   Change is   -1.055728043028135
 Iteration     3 Dimension    27 NMult    24 NNew      3
 CISAX will form     3 AO SS matrices at one time.
 NMat=     3 NSing=     3 JSym2X= 2.
 Root      1 not converged, maximum delta is    0.006118284345431
 Excitation Energies [eV] at current iteration:
 Root      1 :     1.503894196260819   Change is   -0.004026300601547
 Root      2 :     3.088597489517369   Change is   -0.052393408207555
 Root      3 :     4.061340525882565   Change is   -0.071132900651229
 Iteration     4 Dimension    30 NMult    27 NNew      3
 CISAX will form     3 AO SS matrices at one time.
 NMat=     3 NSing=     3 JSym2X= 2.
 Root      1 not converged, maximum delta is    0.002326626927616
 Excitation Energies [eV] at current iteration:
 Root      1 :     1.503686577832670   Change is   -0.000207618428148
 Root      2 :     3.086156086552569   Change is   -0.002441402964800
 Root      3 :     4.057933463016364   Change is   -0.003407062866201
 Iteration     5 Dimension    33 NMult    30 NNew      3
 CISAX will form     3 AO SS matrices at one time.
 NMat=     3 NSing=     3 JSym2X= 2.
 Root      1 has converged.
 Excitation Energies [eV] at current iteration:
 Root      1 :     1.503679376284093   Change is   -0.000007201548578
 Root      2 :     3.086076886824114   Change is   -0.000079199728456
 Root      3 :     4.057868188387635   Change is   -0.000065274628729
 Convergence achieved on expansion vectors.
 ***********************************************************************
 Stability analysis using <AA,BB:AA,BB> singles matrix:
 ***********************************************************************

 Eigenvectors of the stability matrix:
 
 Eigenvector   1:  2.641-AG   Eigenvalue= 0.0552592  <S**2>=1.494
      4A ->  6A       -0.18792
      5A ->  6A       -0.11288
      5B ->  6B        0.89287
      5B ->  7B       -0.25584
      5B ->  8B        0.20815
 SavETr:  write IOETrn=   770 NScale= 10 NData=  16 NLR=1 NState=    1 LETran=      28.
 The wavefunction is stable under the perturbations considered.
 Leave Link  914 at Fri Feb 24 16:26:52 2017, MaxMem=   134217728 cpu:         0.1
 (Enter /projects/guscus/apps/gau/g09-e1/g09/l508.exe)
 The wavefunction is already stable.
 Leave Link  508 at Fri Feb 24 16:26:53 2017, MaxMem=   134217728 cpu:         0.0
 (Enter /projects/guscus/apps/gau/g09-e1/g09/l601.exe)
 Copying SCF densities to generalized density rwf, IOpCl= 1 IROHF=0.

 **********************************************************************

            Population analysis using the SCF density.

 **********************************************************************

 Orbital symmetries:
 Alpha Orbitals:
       Occupied  (BG) (BG) (BG) (BG) (BG)
       Virtual   (BG) (BG) (BG) (BG) (BG)
 Beta  Orbitals:
       Occupied  (BG) (BG) (BG) (BG) (BG)
       Virtual   (BG) (BG) (BG) (BG) (BG)
 Unable to determine electronic state:  partially filled degenerate orbitals.
 Alpha  occ. eigenvalues --   -0.81452  -0.72041  -0.59130  -0.39985  -0.30357
 Alpha virt. eigenvalues --    0.09702   0.19903   0.27741   0.39894   0.59647
  Beta  occ. eigenvalues --   -0.82105  -0.72930  -0.57782  -0.41124  -0.27057
  Beta virt. eigenvalues --    0.09991   0.14489   0.26725   0.42320   0.59658
          Condensed to atoms (all electrons):
               1          2          3          4          5          6
     1  H    1.084908  -0.161122   0.070311   0.193437   0.011729  -0.174781
     2  H   -0.161122   1.179174  -0.072396   0.113812   0.000941   0.003027
     3  H    0.070311  -0.072396   1.033661  -0.081251   0.070967   0.122275
     4  H    0.193437   0.113812  -0.081251   0.638259  -0.045029   0.060926
     5  H    0.011729   0.000941   0.070967  -0.045029   1.022381  -0.195018
     6  H   -0.174781   0.003027   0.122275   0.060926  -0.195018   1.223161
     7  H    0.003384  -0.000060   0.017896  -0.000996   0.122673  -0.071620
     8  H   -0.007084   0.003792  -0.153694   0.004072   0.117284   0.095377
     9  H   -0.000164  -0.000023   0.000592   0.000072  -0.035432   0.007136
    10  H    0.000062  -0.000065  -0.005221   0.002314  -0.101575   0.006065
               7          8          9         10
     1  H    0.003384  -0.007084  -0.000164   0.000062
     2  H   -0.000060   0.003792  -0.000023  -0.000065
     3  H    0.017896  -0.153694   0.000592  -0.005221
     4  H   -0.000996   0.004072   0.000072   0.002314
     5  H    0.122673   0.117284  -0.035432  -0.101575
     6  H   -0.071620   0.095377   0.007136   0.006065
     7  H    1.292460  -0.249175  -0.265125   0.201440
     8  H   -0.249175   1.210392   0.005163  -0.011293
     9  H   -0.265125   0.005163   1.210980   0.087774
    10  H    0.201440  -0.011293   0.087774   0.721819
          Atomic-Atomic Spin Densities.
               1          2          3          4          5          6
     1  H    0.797393  -0.244573   0.163321  -0.126583   0.020743  -0.131556
     2  H   -0.244573   1.026351  -0.021624  -0.048781   0.003389   0.013349
     3  H    0.163321  -0.021624  -0.687197   0.131299  -0.105814  -0.054866
     4  H   -0.126583  -0.048781   0.131299  -0.348763  -0.014744   0.128891
     5  H    0.020743   0.003389  -0.105814  -0.014744   0.814895  -0.202021
     6  H   -0.131556   0.013349  -0.054866   0.128891  -0.202021   0.800686
     7  H   -0.000179  -0.000036  -0.020431  -0.000207  -0.048373   0.029361
     8  H   -0.002708   0.000402   0.127000  -0.015514   0.179988  -0.114190
     9  H    0.000140   0.000000  -0.000244   0.000125   0.006495  -0.004499
    10  H   -0.000421  -0.000164   0.004704   0.000795  -0.095024   0.017281
               7          8          9         10
     1  H   -0.000179  -0.002708   0.000140  -0.000421
     2  H   -0.000036   0.000402   0.000000  -0.000164
     3  H   -0.020431   0.127000  -0.000244   0.004704
     4  H   -0.000207  -0.015514   0.000125   0.000795
     5  H   -0.048373   0.179988   0.006495  -0.095024
     6  H    0.029361  -0.114190  -0.004499   0.017281
     7  H   -1.091524   0.275485   0.283649   0.013807
     8  H    0.275485  -1.036113  -0.013097  -0.038332
     9  H    0.283649  -0.013097  -1.145998   0.039634
    10  H    0.013807  -0.038332   0.039634   0.598517
 Mulliken charges and spin densities:
               1          2
     1  H   -0.020681   0.475577
     2  H   -0.067081   0.728313
     3  H   -0.003141  -0.463852
     4  H    0.114381  -0.293482
     5  H    0.031078   0.559533
     6  H   -0.076549   0.482436
     7  H   -0.050878  -0.558447
     8  H   -0.014835  -0.637080
     9  H   -0.010973  -0.833794
    10  H    0.098680   0.540797
 Sum of Mulliken charges =   0.00000   0.00000
 Mulliken charges and spin densities with hydrogens summed into heavy atoms:
               1          2
 Electronic spatial extent (au):  <R**2>=            166.1238
 Charge=              0.0000 electrons
 Dipole moment (field-independent basis, Debye):
    X=             -0.7485    Y=              0.4369    Z=             -0.0000  Tot=              0.8667
 Quadrupole moment (field-independent basis, Debye-Ang):
   XX=            -14.0908   YY=            -16.9487   ZZ=            -12.7591
   XY=              1.8084   XZ=              0.0000   YZ=              0.0000
 Traceless Quadrupole moment (field-independent basis, Debye-Ang):
   XX=              0.5087   YY=             -2.3492   ZZ=              1.8404
   XY=              1.8084   XZ=              0.0000   YZ=              0.0000
 Octapole moment (field-independent basis, Debye-Ang**2):
  XXX=             -3.2584  YYY=              4.2574  ZZZ=              0.0000  XYY=             -1.6138
  XXY=              1.4026  XXZ=              0.0000  XZZ=             -0.2339  YZZ=              0.2870
  YYZ=              0.0000  XYZ=             -0.0000
 Hexadecapole moment (field-independent basis, Debye-Ang**3):
 XXXX=           -149.5951 YYYY=           -228.5031 ZZZZ=            -15.3352 XXXY=             77.7147
 XXXZ=             -0.0000 YYYX=             93.3584 YYYZ=              0.0000 ZZZX=             -0.0000
 ZZZY=              0.0000 XXYY=            -73.8940 XXZZ=            -26.5410 YYZZ=            -34.2261
 XXYZ=              0.0000 YYXZ=             -0.0000 ZZXY=             22.1507
 N-N= 1.244980890595D+01 E-N=-3.441038726485D+01  KE= 5.486995400410D+00
 Symmetry AG   KE= 2.313987736093D+00
 Symmetry BG   KE= 0.000000000000D+00
 Symmetry AU   KE= 0.000000000000D+00
 Symmetry BU   KE= 3.173007664317D+00
                          Isotropic Fermi Contact Couplings
        Atom                 a.u.       MegaHertz       Gauss      10(-4) cm-1
     1  H(1)               0.21031     470.02990     167.71835     156.78510
     2  H(1)               0.28625     639.75050     228.27888     213.39780
     3  H(1)              -0.19191    -428.90188    -153.04285    -143.06627
     4  H(1)              -0.10349    -231.28865     -82.52954     -77.14959
     5  H(1)               0.23237     519.33908     185.31309     173.23287
     6  H(1)               0.21183     473.43166     168.93218     157.91980
     7  H(1)              -0.27926    -624.13371    -222.70642    -208.18860
     8  H(1)              -0.27215    -608.23513    -217.03341    -202.88540
     9  H(1)              -0.32164    -718.83826    -256.49936    -239.77863
    10  H(1)               0.17956     401.29797     143.19309     133.85859
 --------------------------------------------------------
       Center         ----  Spin Dipole Couplings  ----
                      3XX-RR        3YY-RR        3ZZ-RR
 --------------------------------------------------------
     1   Atom       -0.060507      0.044870      0.015637
     2   Atom       -0.015697      0.006120      0.009577
     3   Atom        0.082579      0.006269     -0.088848
     4   Atom        0.095780     -0.007530     -0.088251
     5   Atom       -0.100840      0.001030      0.099811
     6   Atom       -0.101032      0.036852      0.064180
     7   Atom        0.099134     -0.066809     -0.032325
     8   Atom        0.126311     -0.056097     -0.070215
     9   Atom       -0.037328      0.048253     -0.010925
    10   Atom       -0.041416     -0.072796      0.114213
 --------------------------------------------------------
                        XY            XZ            YZ
 --------------------------------------------------------
     1   Atom       -0.027577     -0.000000      0.000000
     2   Atom        0.033697      0.000000     -0.000000
     3   Atom       -0.017710     -0.000000      0.000000
     4   Atom       -0.036183     -0.000000      0.000000
     5   Atom        0.033316     -0.000000     -0.000000
     6   Atom       -0.004497      0.000000      0.000000
     7   Atom        0.031385      0.000000      0.000000
     8   Atom        0.014909      0.000000     -0.000000
     9   Atom        0.028675      0.000000     -0.000000
    10   Atom       -0.012328     -0.000000      0.000000
 --------------------------------------------------------


 ---------------------------------------------------------------------------------
              Anisotropic Spin Dipole Couplings in Principal Axis System
 ---------------------------------------------------------------------------------

       Atom             a.u.   MegaHertz   Gauss  10(-4) cm-1        Axes

              Baa    -0.0673   -35.902   -12.811   -11.976  0.9711  0.2388  0.0000
     1 H(1)   Bbb     0.0156     8.343     2.977     2.783  0.0000  0.0000  1.0000
              Bcc     0.0517    27.558     9.834     9.192 -0.2388  0.9711  0.0000
 
              Baa    -0.0402   -21.452    -7.655    -7.156  0.8087 -0.5882  0.0000
     2 H(1)   Bbb     0.0096     5.110     1.823     1.704  0.0000  0.0000  1.0000
              Bcc     0.0306    16.343     5.831     5.451  0.5882  0.8087  0.0000
 
              Baa    -0.0888   -47.405   -16.915   -15.813  0.0000  0.0000  1.0000
     3 H(1)   Bbb     0.0024     1.259     0.449     0.420  0.2156  0.9765  0.0000
              Bcc     0.0865    46.146    16.466    15.393  0.9765 -0.2156  0.0000
 
              Baa    -0.0883   -47.086   -16.802   -15.706  0.0000  0.0000  1.0000
     4 H(1)   Bbb    -0.0189   -10.107    -3.606    -3.371  0.3008  0.9537  0.0000
              Bcc     0.1072    57.193    20.408    19.077  0.9537 -0.3008  0.0000
 
              Baa    -0.1108   -59.101   -21.089   -19.714  0.9584 -0.2856  0.0000
     5 H(1)   Bbb     0.0110     5.846     2.086     1.950  0.2856  0.9584 -0.0000
              Bcc     0.0998    53.254    19.002    17.764  0.0000  0.0000  1.0000
 
              Baa    -0.1012   -53.984   -19.263   -18.007  0.9995  0.0326  0.0000
     6 H(1)   Bbb     0.0370    19.741     7.044     6.585 -0.0326  0.9995 -0.0000
              Bcc     0.0642    34.243    12.219    11.422  0.0000  0.0000  1.0000
 
              Baa    -0.0725   -38.707   -13.812   -12.911 -0.1798  0.9837 -0.0000
     7 H(1)   Bbb    -0.0323   -17.247    -6.154    -5.753  0.0000  0.0000  1.0000
              Bcc     0.1049    55.954    19.966    18.664  0.9837  0.1798  0.0000
 
              Baa    -0.0702   -37.463   -13.368   -12.496  0.0000  0.0000  1.0000
     8 H(1)   Bbb    -0.0573   -30.576   -10.910   -10.199 -0.0809  0.9967  0.0000
              Bcc     0.1275    68.040    24.278    22.696  0.9967  0.0809  0.0000
 
              Baa    -0.0460   -24.569    -8.767    -8.195  0.9567 -0.2909  0.0000
     9 H(1)   Bbb    -0.0109    -5.829    -2.080    -1.944  0.0000  0.0000  1.0000
              Bcc     0.0570    30.398    10.847    10.140  0.2909  0.9567  0.0000
 
              Baa    -0.0771   -41.116   -14.671   -13.715  0.3269  0.9451  0.0000
    10 H(1)   Bbb    -0.0372   -19.823    -7.073    -6.612  0.9451 -0.3269  0.0000
              Bcc     0.1142    60.939    21.744    20.327  0.0000  0.0000  1.0000
 

 ---------------------------------------------------------------------------------

 No NMR shielding tensors so no spin-rotation constants.
 Leave Link  601 at Fri Feb 24 16:26:53 2017, MaxMem=   134217728 cpu:         0.1
 (Enter /projects/guscus/apps/gau/g09-e1/g09/l9999.exe)

 Test job not archived.
 1\1\GINC-SULU\Stability\UHF\Gen\H10\LCJ1\24-Feb-2017\0\\#p uhf/gen scf
 (tight,novaracc,noincfock,fulldiag ) stable=opt guess=(read) geom=nocr
 owd test\\hf stability analysis of h10 triangular lattice, y= 0.482974
 79998608267 alpha= 22.000000000000000\\0,1\H\H,1,1.2892853348\H,1,1.28
 92853348,2,136.\H,2,1.2892853348,1,44.,3,0.,0\H,3,1.2892853348,1,180.,
 2,0.,0\H,4,1.2892853348,2,180.,1,0.,0\H,5,1.2892853348,3,180.,2,0.,0\H
 ,6,1.2892853348,4,180.,1,0.,0\H,7,1.2892853348,5,180.,2,0.,0\H,8,1.289
 2853348,6,180.,1,0.,0\\Version=ES64L-G09RevE.01\HF=-4.8317071\S2=1.749
 08\S2-1=0.\S2A=4.851906\RMSD=9.034e-09\Dipole=0.2944634,0.,-0.1719081\
 Quadrupole=0.3782206,1.3683188,-1.7465394,0.,1.3445334,0.\PG=C02H [SGH
 (H10)]\\@


 A warm smile is the universal language of kindness.
                             -- William Arthur Ward
 Job cpu time:       0 days  0 hours  0 minutes  0.8 seconds.
 File lengths (MBytes):  RWF=     82 Int=      0 D2E=      0 Chk=      2 Scr=      2
 Normal termination of Gaussian 09 at Fri Feb 24 16:26:53 2017.
