 Entering Gaussian System, Link 0=g09
 AtFile(1): H.gbs
            H     0
            S   10   1.00
               1000.000000000000            0.000068713567
                316.227766000000            0.000169141320
                100.000000000000            0.000823394812
                 31.622776600000            0.003425569236
                 10.000000000000            0.013951996000
                  3.162277660000            0.056909313560
                  1.000000000000            0.198286399900
                  0.316227766000            0.496922426700
                  0.100000000000            0.369846276400
                  0.031622776600            0.003752720039
            ****
 Initial command:
 /projects/guscus/apps/gau/g09-e1/g09/l1.exe "/users/lcj1/gaussian/h10/2rows_uhf/ag2bu3/singlet/follow20/test/Gau-29822.inp" -scrdir="/users/lcj1/gaussian/h10/2rows_uhf/ag2bu3/singlet/follow20/test/"
 Entering Link 1 = /projects/guscus/apps/gau/g09-e1/g09/l1.exe PID=     29823.
  
 Copyright (c) 1988,1990,1992,1993,1995,1998,2003,2009,2015,
            Gaussian, Inc.  All Rights Reserved.
  
 This is part of the Gaussian(R) 09 program.  It is based on
 the Gaussian(R) 03 system (copyright 2003, Gaussian, Inc.),
 the Gaussian(R) 98 system (copyright 1998, Gaussian, Inc.),
 the Gaussian(R) 94 system (copyright 1995, Gaussian, Inc.),
 the Gaussian 92(TM) system (copyright 1992, Gaussian, Inc.),
 the Gaussian 90(TM) system (copyright 1990, Gaussian, Inc.),
 the Gaussian 88(TM) system (copyright 1988, Gaussian, Inc.),
 the Gaussian 86(TM) system (copyright 1986, Carnegie Mellon
 University), and the Gaussian 82(TM) system (copyright 1983,
 Carnegie Mellon University). Gaussian is a federally registered
 trademark of Gaussian, Inc.
  
 This software contains proprietary and confidential information,
 including trade secrets, belonging to Gaussian, Inc.
  
 This software is provided under written license and may be
 used, copied, transmitted, or stored only in accord with that
 written license.
  
 The following legend is applicable only to US Government
 contracts under FAR:
  
                    RESTRICTED RIGHTS LEGEND
  
 Use, reproduction and disclosure by the US Government is
 subject to restrictions as set forth in subparagraphs (a)
 and (c) of the Commercial Computer Software - Restricted
 Rights clause in FAR 52.227-19.
  
 Gaussian, Inc.
 340 Quinnipiac St., Bldg. 40, Wallingford CT 06492
  
  
 ---------------------------------------------------------------
 Warning -- This program may not be used in any manner that
 competes with the business of Gaussian, Inc. or will provide
 assistance to any competitor of Gaussian, Inc.  The licensee
 of this program is prohibited from giving any competitor of
 Gaussian, Inc. access to this program.  By using this program,
 the user acknowledges that Gaussian, Inc. is engaged in the
 business of creating and licensing software in the field of
 computational chemistry and represents and warrants to the
 licensee that it is not a competitor of Gaussian, Inc. and that
 it will not use this program in any manner prohibited above.
 ---------------------------------------------------------------
  

 Cite this work as:
 Gaussian 09, Revision E.01,
 M. J. Frisch, G. W. Trucks, H. B. Schlegel, G. E. Scuseria, 
 M. A. Robb, J. R. Cheeseman, G. Scalmani, V. Barone, B. Mennucci, 
 G. A. Petersson, H. Nakatsuji, M. Caricato, X. Li, H. P. Hratchian, 
 A. F. Izmaylov, J. Bloino, G. Zheng, J. L. Sonnenberg, M. Hada, 
 M. Ehara, K. Toyota, R. Fukuda, J. Hasegawa, M. Ishida, T. Nakajima, 
 Y. Honda, O. Kitao, H. Nakai, T. Vreven, J. A. Montgomery, Jr., 
 J. E. Peralta, F. Ogliaro, M. Bearpark, J. J. Heyd, E. Brothers, 
 K. N. Kudin, V. N. Staroverov, T. Keith, R. Kobayashi, J. Normand, 
 K. Raghavachari, A. Rendell, J. C. Burant, S. S. Iyengar, J. Tomasi, 
 M. Cossi, N. Rega, J. M. Millam, M. Klene, J. E. Knox, J. B. Cross, 
 V. Bakken, C. Adamo, J. Jaramillo, R. Gomperts, R. E. Stratmann, 
 O. Yazyev, A. J. Austin, R. Cammi, C. Pomelli, J. W. Ochterski, 
 R. L. Martin, K. Morokuma, V. G. Zakrzewski, G. A. Voth, 
 P. Salvador, J. J. Dannenberg, S. Dapprich, A. D. Daniels, 
 O. Farkas, J. B. Foresman, J. V. Ortiz, J. Cioslowski, 
 and D. J. Fox, Gaussian, Inc., Wallingford CT, 2013.
 
 ******************************************
 Gaussian 09:  ES64L-G09RevE.01 30-Nov-2015
                24-Feb-2017 
 ******************************************
 %chk=h10.chk
 ----------------------------------------------------------------------
 #p uhf/gen scf(tight,novaracc,noincfock,fulldiag ) stable=opt guess=(r
 ead) geom=nocrowd test
 ----------------------------------------------------------------------
 1/38=1/1;
 2/12=1,17=6,18=5,40=1/2;
 3/5=7,11=2,16=1,25=1,30=1,116=2/1,2,3;
 4/5=1/1;
 5/5=100002,16=1,32=2,38=6/2;
 6/7=2,8=2,9=2,10=2,28=1/1;
 8/6=1,10=90,11=11/1;
 9/8=-3,42=1,46=1/14;
 5/5=100002,8=3,16=1,17=40,32=2,38=6/8(-2);
 6/7=2,8=2,9=2,10=2,28=1/1;
 99/5=1,9=1/99;
 Leave Link    1 at Fri Feb 24 16:27:47 2017, MaxMem=           0 cpu:         0.0
 (Enter /projects/guscus/apps/gau/g09-e1/g09/l101.exe)
 ----------------------------------------------------------------------
 hf stability analysis of h10 triangular lattice, y= 0.5423787099077283
 0 alpha= 27.000000000000000
 ----------------------------------------------------------------------
 Symbolic Z-matrix:
 Charge =  0 Multiplicity = 1
 H
 H                    1     1.19469 
 H                    1     1.19469  2     126. 
 H                    2     1.19469  1     54.      3     0.       0
 H                    3     1.19469  1     180.     2     0.       0
 H                    4     1.19469  2     180.     1     0.       0
 H                    5     1.19469  3     180.     2     0.       0
 H                    6     1.19469  4     180.     1     0.       0
 H                    7     1.19469  5     180.     2     0.       0
 H                    8     1.19469  6     180.     1     0.       0
 
 NAtoms=     10 NQM=       10 NQMF=       0 NMMI=      0 NMMIF=      0
                NMic=       0 NMicF=      0.
                    Isotopes and Nuclear Properties:
 (Nuclear quadrupole moments (NQMom) in fm**2, nuclear magnetic moments (NMagM)
  in nuclear magnetons)

  Atom         1           2           3           4           5           6           7           8           9          10
 IAtWgt=           1           1           1           1           1           1           1           1           1           1
 AtmWgt=   1.0078250   1.0078250   1.0078250   1.0078250   1.0078250   1.0078250   1.0078250   1.0078250   1.0078250   1.0078250
 NucSpn=           1           1           1           1           1           1           1           1           1           1
 AtZEff=   0.0000000   0.0000000   0.0000000   0.0000000   0.0000000   0.0000000   0.0000000   0.0000000   0.0000000   0.0000000
 NQMom=    0.0000000   0.0000000   0.0000000   0.0000000   0.0000000   0.0000000   0.0000000   0.0000000   0.0000000   0.0000000
 NMagM=    2.7928460   2.7928460   2.7928460   2.7928460   2.7928460   2.7928460   2.7928460   2.7928460   2.7928460   2.7928460
 AtZNuc=   1.0000000   1.0000000   1.0000000   1.0000000   1.0000000   1.0000000   1.0000000   1.0000000   1.0000000   1.0000000
 Leave Link  101 at Fri Feb 24 16:27:47 2017, MaxMem=   134217728 cpu:         0.0
 (Enter /projects/guscus/apps/gau/g09-e1/g09/l202.exe)
                          Input orientation:                          
 ---------------------------------------------------------------------
 Center     Atomic      Atomic             Coordinates (Angstroms)
 Number     Number       Type             X           Y           Z
 ---------------------------------------------------------------------
      1          1           0        0.000000    0.000000    0.000000
      2          1           0        0.000000    0.000000    1.194692
      3          1           0        0.966526    0.000000   -0.702222
      4          1           0        0.966526    0.000000    0.492470
      5          1           0        1.933052    0.000000   -1.404444
      6          1           0        1.933052    0.000000   -0.209753
      7          1           0        2.899578    0.000000   -2.106667
      8          1           0        2.899578    0.000000   -0.911975
      9          1           0        3.866104    0.000000   -2.808889
     10          1           0        3.866104    0.000000   -1.614197
 ---------------------------------------------------------------------
                    Distance matrix (angstroms):
                    1          2          3          4          5
     1  H    0.000000
     2  H    1.194692   0.000000
     3  H    1.194692   2.128956   0.000000
     4  H    1.084757   1.194692   1.194692   0.000000
     5  H    2.389383   3.239166   1.194692   2.128956   0.000000
     6  H    1.944399   2.389383   1.084757   1.194692   1.194692
     7  H    3.584075   4.393918   2.389383   3.239166   1.194692
     8  H    3.039613   3.584075   1.944399   2.389383   1.084757
     9  H    4.778767   5.565556   3.584075   4.393918   2.389383
    10  H    4.189557   4.778767   3.039613   3.584075   1.944399
                    6          7          8          9         10
     6  H    0.000000
     7  H    2.128956   0.000000
     8  H    1.194692   1.194692   0.000000
     9  H    3.239166   1.194692   2.128956   0.000000
    10  H    2.389383   1.084757   1.194692   1.194692   0.000000
 Stoichiometry    H10
 Framework group  C2H[SGH(H10)]
 Deg. of freedom     9
 Full point group                 C2H     NOp   4
 Largest Abelian subgroup         C2H     NOp   4
 Largest concise Abelian subgroup C2      NOp   2
                         Standard orientation:                         
 ---------------------------------------------------------------------
 Center     Atomic      Atomic             Coordinates (Angstroms)
 Number     Number       Type             X           Y           Z
 ---------------------------------------------------------------------
      1          1           0        1.933052   -0.807098    0.000000
      2          1           0        1.933052   -2.001790    0.000000
      3          1           0        0.966526   -0.104876   -0.000000
      4          1           0        0.966526   -1.299568    0.000000
      5          1           0        0.000000    0.597346   -0.000000
      6          1           0       -0.000000   -0.597346   -0.000000
      7          1           0       -0.966526    1.299568    0.000000
      8          1           0       -0.966526    0.104876   -0.000000
      9          1           0       -1.933052    2.001790    0.000000
     10          1           0       -1.933052    0.807098    0.000000
 ---------------------------------------------------------------------
 Rotational constants (GHZ):    224.7752762     16.7805751     15.6148501
 Leave Link  202 at Fri Feb 24 16:27:47 2017, MaxMem=   134217728 cpu:         0.0
 (Enter /projects/guscus/apps/gau/g09-e1/g09/l301.exe)
 General basis read from cards:  (5D, 7F)
 Centers:       1      2      3      4      5      6      7      8      9     10
 S 10 1.00
     Exponent=  1.0000000000D+03 Coefficients=  6.8713567000D-05
     Exponent=  3.1622776600D+02 Coefficients=  1.6914132000D-04
     Exponent=  1.0000000000D+02 Coefficients=  8.2339481200D-04
     Exponent=  3.1622776600D+01 Coefficients=  3.4255692360D-03
     Exponent=  1.0000000000D+01 Coefficients=  1.3951996000D-02
     Exponent=  3.1622776600D+00 Coefficients=  5.6909313560D-02
     Exponent=  1.0000000000D+00 Coefficients=  1.9828639990D-01
     Exponent=  3.1622776600D-01 Coefficients=  4.9692242670D-01
     Exponent=  1.0000000000D-01 Coefficients=  3.6984627640D-01
     Exponent=  3.1622776600D-02 Coefficients=  3.7527200390D-03
 ****
 Ernie: Thresh=  0.10000D-02 Tol=  0.10000D-05 Strict=F.
 There are     5 symmetry adapted cartesian basis functions of AG  symmetry.
 There are     0 symmetry adapted cartesian basis functions of BG  symmetry.
 There are     0 symmetry adapted cartesian basis functions of AU  symmetry.
 There are     5 symmetry adapted cartesian basis functions of BU  symmetry.
 There are     5 symmetry adapted basis functions of AG  symmetry.
 There are     0 symmetry adapted basis functions of BG  symmetry.
 There are     0 symmetry adapted basis functions of AU  symmetry.
 There are     5 symmetry adapted basis functions of BU  symmetry.
    10 basis functions,   100 primitive gaussians,    10 cartesian basis functions
     5 alpha electrons        5 beta electrons
       nuclear repulsion energy        12.9616844231 Hartrees.
 IExCor=    0 DFT=F Ex=HF Corr=None ExCW=0 ScaHFX=  1.000000
 ScaDFX=  1.000000  1.000000  1.000000  1.000000 ScalE2=  1.000000  1.000000
 IRadAn=      0 IRanWt=     -1 IRanGd=            0 ICorTp=0 IEmpDi=  4
 NAtoms=   10 NActive=   10 NUniq=    5 SFac= 4.00D+00 NAtFMM=   60 NAOKFM=F Big=F
 Integral buffers will be    131072 words long.
 Raffenetti 2 integral format.
 Two-electron integral symmetry is turned on.
 Leave Link  301 at Fri Feb 24 16:27:48 2017, MaxMem=   134217728 cpu:         0.0
 (Enter /projects/guscus/apps/gau/g09-e1/g09/l302.exe)
 NPDir=0 NMtPBC=     1 NCelOv=     1 NCel=       1 NClECP=     1 NCelD=      1
         NCelK=      1 NCelE2=     1 NClLst=     1 CellRange=     0.0.
 One-electron integrals computed using PRISM.
 One-electron integral symmetry used in STVInt
 NBasis=    10 RedAO= T EigKep=  1.94D-01  NBF=     5     0     0     5
 NBsUse=    10 1.00D-06 EigRej= -1.00D+00 NBFU=     5     0     0     5
 Leave Link  302 at Fri Feb 24 16:27:48 2017, MaxMem=   134217728 cpu:         0.0
 (Enter /projects/guscus/apps/gau/g09-e1/g09/l303.exe)
 DipDrv:  MaxL=1.
 Leave Link  303 at Fri Feb 24 16:27:48 2017, MaxMem=   134217728 cpu:         0.0
 (Enter /projects/guscus/apps/gau/g09-e1/g09/l401.exe)
 Initial guess from the checkpoint file:  "h10.chk"
 B after Tr=     0.000000   -0.000000   -0.000000
         Rot=    0.999995    0.000000    0.000000   -0.003103 Ang=  -0.36 deg.
 Guess basis will be translated and rotated to current coordinates.
 JPrj=2 DoOrth=T DoCkMO=T.
 Initial guess orbital symmetries:
 Alpha Orbitals:
       Occupied  (BG) (BG) (BG) (BG) (BG)
       Virtual   (BG) (BG) (BG) (BG) (BG)
 Beta  Orbitals:
       Occupied  (BG) (BG) (BG) (BG) (BG)
       Virtual   (BG) (BG) (BG) (BG) (BG)
 Initial guess <Sx>= 0.0000 <Sy>= 0.0000 <Sz>= 0.0000 <S**2>= 0.9324 S= 0.5874
 Leave Link  401 at Fri Feb 24 16:27:48 2017, MaxMem=   134217728 cpu:         0.1
 (Enter /projects/guscus/apps/gau/g09-e1/g09/l502.exe)
 UHF open shell SCF:
 Using DIIS extrapolation, IDIIS=  1040.
 Integral symmetry usage will be decided dynamically.
 Keep R1 and R2 ints in memory in symmetry-blocked form, NReq=878739.
 IVT=       20217 IEndB=       20217 NGot=   134217728 MDV=   134195632
 LenX=   134195632 LenY=   134194750
 Requested convergence on RMS density matrix=1.00D-08 within 128 cycles.
 Requested convergence on MAX density matrix=1.00D-06.
 Requested convergence on             energy=1.00D-06.
 No special actions if energy rises.
 FoFCou: FMM=F IPFlag=           0 FMFlag=           0 FMFlg1=           0
         NFxFlg=           0 DoJE=F BraDBF=F KetDBF=F FulRan=T
         wScrn=  0.000000 ICntrl=     600 IOpCl=  0 I1Cent=           0 NGrid=           0
         NMat0=    1 NMatS0=     55 NMatT0=    0 NMatD0=    1 NMtDS0=    0 NMtDT0=    0
 Petite list used in FoFCou.
 An orbital has undefined symmetry, so N**3 symmetry is turned off.

 Cycle   1  Pass 1  IDiag  1:
 Density matrix breaks symmetry, PCut= 1.00D-04
 Density matrix has no symmetry -- integrals replicated.
 E= -4.87953519371297    
 DIIS: error= 5.49D-04 at cycle   1 NSaved=   1.
 NSaved= 1 IEnMin= 1 EnMin= -4.87953519371297     IErMin= 1 ErrMin= 5.49D-04
 ErrMax= 5.49D-04  0.00D+00 EMaxC= 1.00D-01 BMatC= 1.80D-05 BMatP= 1.80D-05
 IDIUse=3 WtCom= 9.95D-01 WtEn= 5.49D-03
 Coeff-Com:  0.100D+01
 Coeff-En:   0.100D+01
 Coeff:      0.100D+01
 Gap=     0.394 Goal=   None    Shift=    0.000
 Gap=     0.394 Goal=   None    Shift=    0.000
 RMSDP=9.34D-04 MaxDP=2.10D-03              OVMax= 0.00D+00

 Cycle   2  Pass 1  IDiag  1:
 Density matrix breaks symmetry, PCut= 1.00D-07
 Density matrix has no symmetry -- integrals replicated.
 E= -4.87955336853072     Delta-E=       -0.000018174818 Rises=F Damp=F
 DIIS: error= 1.96D-04 at cycle   2 NSaved=   2.
 NSaved= 2 IEnMin= 2 EnMin= -4.87955336853072     IErMin= 2 ErrMin= 1.96D-04
 ErrMax= 1.96D-04  0.00D+00 EMaxC= 1.00D-01 BMatC= 4.17D-06 BMatP= 1.80D-05
 IDIUse=3 WtCom= 9.98D-01 WtEn= 1.96D-03
 Coeff-Com: -0.518D+00 0.152D+01
 Coeff-En:   0.000D+00 0.100D+01
 Coeff:     -0.517D+00 0.152D+01
 Gap=     0.393 Goal=   None    Shift=    0.000
 Gap=     0.393 Goal=   None    Shift=    0.000
 RMSDP=7.64D-04 MaxDP=1.93D-03 DE=-1.82D-05 OVMax= 0.00D+00

 Cycle   3  Pass 1  IDiag  1:
 Density matrix breaks symmetry, PCut= 1.00D-07
 Density matrix has no symmetry -- integrals replicated.
 E= -4.87956101584428     Delta-E=       -0.000007647314 Rises=F Damp=F
 DIIS: error= 1.06D-04 at cycle   3 NSaved=   3.
 NSaved= 3 IEnMin= 3 EnMin= -4.87956101584428     IErMin= 3 ErrMin= 1.06D-04
 ErrMax= 1.06D-04  0.00D+00 EMaxC= 1.00D-01 BMatC= 1.33D-06 BMatP= 4.17D-06
 IDIUse=3 WtCom= 9.99D-01 WtEn= 1.06D-03
 Coeff-Com:  0.229D+00-0.948D+00 0.172D+01
 Coeff-En:   0.000D+00 0.000D+00 0.100D+01
 Coeff:      0.229D+00-0.947D+00 0.172D+01
 Gap=     0.393 Goal=   None    Shift=    0.000
 Gap=     0.393 Goal=   None    Shift=    0.000
 RMSDP=5.53D-04 MaxDP=1.45D-03 DE=-7.65D-06 OVMax= 0.00D+00

 Cycle   4  Pass 1  IDiag  1:
 Density matrix breaks symmetry, PCut= 1.00D-07
 Density matrix has no symmetry -- integrals replicated.
 E= -4.87956445976317     Delta-E=       -0.000003443919 Rises=F Damp=F
 DIIS: error= 8.28D-05 at cycle   4 NSaved=   4.
 NSaved= 4 IEnMin= 4 EnMin= -4.87956445976317     IErMin= 4 ErrMin= 8.28D-05
 ErrMax= 8.28D-05  0.00D+00 EMaxC= 1.00D-01 BMatC= 5.45D-07 BMatP= 1.33D-06
 IDIUse=1 WtCom= 1.00D+00 WtEn= 0.00D+00
 Coeff-Com:  0.126D+00-0.221D+00-0.826D+00 0.192D+01
 Coeff:      0.126D+00-0.221D+00-0.826D+00 0.192D+01
 Gap=     0.393 Goal=   None    Shift=    0.000
 Gap=     0.393 Goal=   None    Shift=    0.000
 RMSDP=5.85D-04 MaxDP=1.70D-03 DE=-3.44D-06 OVMax= 0.00D+00

 Cycle   5  Pass 1  IDiag  1:
 Density matrix breaks symmetry, PCut= 1.00D-07
 Density matrix has no symmetry -- integrals replicated.
 E= -4.87956658140435     Delta-E=       -0.000002121641 Rises=F Damp=F
 DIIS: error= 5.25D-05 at cycle   5 NSaved=   5.
 NSaved= 5 IEnMin= 5 EnMin= -4.87956658140435     IErMin= 5 ErrMin= 5.25D-05
 ErrMax= 5.25D-05  0.00D+00 EMaxC= 1.00D-01 BMatC= 1.52D-07 BMatP= 5.45D-07
 IDIUse=1 WtCom= 1.00D+00 WtEn= 0.00D+00
 Coeff-Com: -0.137D+00 0.405D+00-0.338D-01-0.115D+01 0.191D+01
 Coeff:     -0.137D+00 0.405D+00-0.338D-01-0.115D+01 0.191D+01
 Gap=     0.393 Goal=   None    Shift=    0.000
 Gap=     0.393 Goal=   None    Shift=    0.000
 RMSDP=3.54D-04 MaxDP=1.17D-03 DE=-2.12D-06 OVMax= 0.00D+00

 Cycle   6  Pass 1  IDiag  1:
 Density matrix breaks symmetry, PCut= 1.00D-07
 Density matrix has no symmetry -- integrals replicated.
 E= -4.87956725481715     Delta-E=       -0.000000673413 Rises=F Damp=F
 DIIS: error= 3.32D-05 at cycle   6 NSaved=   6.
 NSaved= 6 IEnMin= 6 EnMin= -4.87956725481715     IErMin= 6 ErrMin= 3.32D-05
 ErrMax= 3.32D-05  0.00D+00 EMaxC= 1.00D-01 BMatC= 6.15D-08 BMatP= 1.52D-07
 IDIUse=1 WtCom= 1.00D+00 WtEn= 0.00D+00
 Coeff-Com:  0.233D+00-0.721D+00 0.248D+00 0.186D+01-0.392D+01 0.331D+01
 Coeff:      0.233D+00-0.721D+00 0.248D+00 0.186D+01-0.392D+01 0.331D+01
 Gap=     0.393 Goal=   None    Shift=    0.000
 Gap=     0.393 Goal=   None    Shift=    0.000
 RMSDP=2.59D-04 MaxDP=6.66D-04 DE=-6.73D-07 OVMax= 0.00D+00

 Cycle   7  Pass 1  IDiag  1:
 Density matrix breaks symmetry, PCut= 1.00D-07
 Density matrix has no symmetry -- integrals replicated.
 E= -4.87956762714621     Delta-E=       -0.000000372329 Rises=F Damp=F
 DIIS: error= 2.11D-05 at cycle   7 NSaved=   7.
 NSaved= 7 IEnMin= 7 EnMin= -4.87956762714621     IErMin= 7 ErrMin= 2.11D-05
 ErrMax= 2.11D-05  0.00D+00 EMaxC= 1.00D-01 BMatC= 2.40D-08 BMatP= 6.15D-08
 IDIUse=1 WtCom= 1.00D+00 WtEn= 0.00D+00
 Coeff-Com: -0.223D+00 0.715D+00-0.326D+00-0.165D+01 0.378D+01-0.413D+01
 Coeff-Com:  0.284D+01
 Coeff:     -0.223D+00 0.715D+00-0.326D+00-0.165D+01 0.378D+01-0.413D+01
 Coeff:      0.284D+01
 Gap=     0.393 Goal=   None    Shift=    0.000
 Gap=     0.393 Goal=   None    Shift=    0.000
 RMSDP=2.51D-04 MaxDP=7.34D-04 DE=-3.72D-07 OVMax= 0.00D+00

 Cycle   8  Pass 1  IDiag  1:
 Density matrix breaks symmetry, PCut= 1.00D-07
 Density matrix has no symmetry -- integrals replicated.
 E= -4.87956781980314     Delta-E=       -0.000000192657 Rises=F Damp=F
 DIIS: error= 1.01D-05 at cycle   8 NSaved=   8.
 NSaved= 8 IEnMin= 8 EnMin= -4.87956781980314     IErMin= 8 ErrMin= 1.01D-05
 ErrMax= 1.01D-05  0.00D+00 EMaxC= 1.00D-01 BMatC= 5.07D-09 BMatP= 2.40D-08
 IDIUse=1 WtCom= 1.00D+00 WtEn= 0.00D+00
 Coeff-Com:  0.258D+00-0.826D+00 0.349D+00 0.198D+01-0.451D+01 0.523D+01
 Coeff-Com: -0.437D+01 0.288D+01
 Coeff:      0.258D+00-0.826D+00 0.349D+00 0.198D+01-0.451D+01 0.523D+01
 Coeff:     -0.437D+01 0.288D+01
 Gap=     0.393 Goal=   None    Shift=    0.000
 Gap=     0.393 Goal=   None    Shift=    0.000
 RMSDP=1.31D-04 MaxDP=4.16D-04 DE=-1.93D-07 OVMax= 0.00D+00

 Cycle   9  Pass 1  IDiag  1:
 Density matrix breaks symmetry, PCut= 1.00D-07
 Density matrix has no symmetry -- integrals replicated.
 E= -4.87956785729864     Delta-E=       -0.000000037496 Rises=F Damp=F
 DIIS: error= 2.66D-06 at cycle   9 NSaved=   9.
 NSaved= 9 IEnMin= 9 EnMin= -4.87956785729864     IErMin= 9 ErrMin= 2.66D-06
 ErrMax= 2.66D-06  0.00D+00 EMaxC= 1.00D-01 BMatC= 4.82D-10 BMatP= 5.07D-09
 IDIUse=1 WtCom= 1.00D+00 WtEn= 0.00D+00
 Coeff-Com: -0.174D+00 0.560D+00-0.256D+00-0.131D+01 0.302D+01-0.354D+01
 Coeff-Com:  0.303D+01-0.227D+01 0.194D+01
 Coeff:     -0.174D+00 0.560D+00-0.256D+00-0.131D+01 0.302D+01-0.354D+01
 Coeff:      0.303D+01-0.227D+01 0.194D+01
 Gap=     0.393 Goal=   None    Shift=    0.000
 Gap=     0.393 Goal=   None    Shift=    0.000
 RMSDP=2.96D-05 MaxDP=8.57D-05 DE=-3.75D-08 OVMax= 0.00D+00

 Cycle  10  Pass 1  IDiag  1:
 Density matrix breaks symmetry, PCut= 1.00D-07
 Density matrix has no symmetry -- integrals replicated.
 E= -4.87956785958367     Delta-E=       -0.000000002285 Rises=F Damp=F
 DIIS: error= 8.98D-07 at cycle  10 NSaved=  10.
 NSaved=10 IEnMin=10 EnMin= -4.87956785958367     IErMin=10 ErrMin= 8.98D-07
 ErrMax= 8.98D-07  0.00D+00 EMaxC= 1.00D-01 BMatC= 5.87D-11 BMatP= 4.82D-10
 IDIUse=1 WtCom= 1.00D+00 WtEn= 0.00D+00
 Coeff-Com:  0.132D+00-0.425D+00 0.189D+00 0.100D+01-0.230D+01 0.270D+01
 Coeff-Com: -0.230D+01 0.175D+01-0.179D+01 0.205D+01
 Coeff:      0.132D+00-0.425D+00 0.189D+00 0.100D+01-0.230D+01 0.270D+01
 Coeff:     -0.230D+01 0.175D+01-0.179D+01 0.205D+01
 Gap=     0.393 Goal=   None    Shift=    0.000
 Gap=     0.393 Goal=   None    Shift=    0.000
 RMSDP=6.18D-06 MaxDP=1.59D-05 DE=-2.29D-09 OVMax= 0.00D+00

 Cycle  11  Pass 1  IDiag  1:
 Density matrix breaks symmetry, PCut= 1.00D-07
 Density matrix has no symmetry -- integrals replicated.
 E= -4.87956785975652     Delta-E=       -0.000000000173 Rises=F Damp=F
 DIIS: error= 2.09D-07 at cycle  11 NSaved=  11.
 NSaved=11 IEnMin=11 EnMin= -4.87956785975652     IErMin=11 ErrMin= 2.09D-07
 ErrMax= 2.09D-07  0.00D+00 EMaxC= 1.00D-01 BMatC= 4.23D-12 BMatP= 5.87D-11
 IDIUse=1 WtCom= 1.00D+00 WtEn= 0.00D+00
 Coeff-Com: -0.901D-01 0.290D+00-0.128D+00-0.685D+00 0.157D+01-0.184D+01
 Coeff-Com:  0.157D+01-0.120D+01 0.128D+01-0.163D+01 0.186D+01
 Coeff:     -0.901D-01 0.290D+00-0.128D+00-0.685D+00 0.157D+01-0.184D+01
 Coeff:      0.157D+01-0.120D+01 0.128D+01-0.163D+01 0.186D+01
 Gap=     0.393 Goal=   None    Shift=    0.000
 Gap=     0.393 Goal=   None    Shift=    0.000
 RMSDP=1.60D-06 MaxDP=5.03D-06 DE=-1.73D-10 OVMax= 0.00D+00

 Cycle  12  Pass 1  IDiag  1:
 Density matrix breaks symmetry, PCut= 1.00D-07
 Density matrix has no symmetry -- integrals replicated.
 E= -4.87956785976663     Delta-E=       -0.000000000010 Rises=F Damp=F
 DIIS: error= 5.67D-08 at cycle  12 NSaved=  12.
 NSaved=12 IEnMin=12 EnMin= -4.87956785976663     IErMin=12 ErrMin= 5.67D-08
 ErrMax= 5.67D-08  0.00D+00 EMaxC= 1.00D-01 BMatC= 3.65D-13 BMatP= 4.23D-12
 IDIUse=1 WtCom= 1.00D+00 WtEn= 0.00D+00
 Coeff-Com:  0.299D-01-0.962D-01 0.422D-01 0.228D+00-0.522D+00 0.613D+00
 Coeff-Com: -0.520D+00 0.399D+00-0.442D+00 0.579D+00-0.896D+00 0.159D+01
 Coeff:      0.299D-01-0.962D-01 0.422D-01 0.228D+00-0.522D+00 0.613D+00
 Coeff:     -0.520D+00 0.399D+00-0.442D+00 0.579D+00-0.896D+00 0.159D+01
 Gap=     0.393 Goal=   None    Shift=    0.000
 Gap=     0.393 Goal=   None    Shift=    0.000
 RMSDP=4.97D-07 MaxDP=1.22D-06 DE=-1.01D-11 OVMax= 0.00D+00

 Cycle  13  Pass 1  IDiag  1:
 Density matrix breaks symmetry, PCut= 1.00D-07
 Density matrix has no symmetry -- integrals replicated.
 E= -4.87956785976766     Delta-E=       -0.000000000001 Rises=F Damp=F
 DIIS: error= 1.71D-08 at cycle  13 NSaved=  13.
 NSaved=13 IEnMin=13 EnMin= -4.87956785976766     IErMin=13 ErrMin= 1.71D-08
 ErrMax= 1.71D-08  0.00D+00 EMaxC= 1.00D-01 BMatC= 2.94D-14 BMatP= 3.65D-13
 IDIUse=1 WtCom= 1.00D+00 WtEn= 0.00D+00
 Coeff-Com:  0.227D-02-0.729D-02 0.335D-02 0.170D-01-0.388D-01 0.457D-01
 Coeff-Com: -0.402D-01 0.305D-01-0.272D-01 0.375D-01 0.249D-01-0.431D+00
 Coeff-Com:  0.138D+01
 Coeff:      0.227D-02-0.729D-02 0.335D-02 0.170D-01-0.388D-01 0.457D-01
 Coeff:     -0.402D-01 0.305D-01-0.272D-01 0.375D-01 0.249D-01-0.431D+00
 Coeff:      0.138D+01
 Gap=     0.393 Goal=   None    Shift=    0.000
 Gap=     0.393 Goal=   None    Shift=    0.000
 RMSDP=1.56D-07 MaxDP=3.99D-07 DE=-1.03D-12 OVMax= 0.00D+00

 Cycle  14  Pass 1  IDiag  1:
 Density matrix breaks symmetry, PCut= 1.00D-07
 Density matrix has no symmetry -- integrals replicated.
 E= -4.87956785976772     Delta-E=       -0.000000000000 Rises=F Damp=F
 DIIS: error= 6.49D-09 at cycle  14 NSaved=  14.
 NSaved=14 IEnMin=14 EnMin= -4.87956785976772     IErMin=14 ErrMin= 6.49D-09
 ErrMax= 6.49D-09  0.00D+00 EMaxC= 1.00D-01 BMatC= 3.52D-15 BMatP= 2.94D-14
 IDIUse=1 WtCom= 1.00D+00 WtEn= 0.00D+00
 Coeff-Com:  0.786D-03-0.254D-02 0.102D-02 0.624D-02-0.143D-01 0.167D-01
 Coeff-Com: -0.131D-01 0.102D-01-0.154D-01 0.166D-01-0.779D-01 0.414D+00
 Coeff-Com: -0.133D+01 0.198D+01
 Coeff:      0.786D-03-0.254D-02 0.102D-02 0.624D-02-0.143D-01 0.167D-01
 Coeff:     -0.131D-01 0.102D-01-0.154D-01 0.166D-01-0.779D-01 0.414D+00
 Coeff:     -0.133D+01 0.198D+01
 Gap=     0.393 Goal=   None    Shift=    0.000
 Gap=     0.393 Goal=   None    Shift=    0.000
 RMSDP=3.11D-08 MaxDP=1.12D-07 DE=-6.39D-14 OVMax= 0.00D+00

 Cycle  15  Pass 1  IDiag  1:
 Density matrix breaks symmetry, PCut= 1.00D-07
 Density matrix has no symmetry -- integrals replicated.
 E= -4.87956785976773     Delta-E=       -0.000000000000 Rises=F Damp=F
 DIIS: error= 2.45D-09 at cycle  15 NSaved=  15.
 NSaved=15 IEnMin=15 EnMin= -4.87956785976773     IErMin=15 ErrMin= 2.45D-09
 ErrMax= 2.45D-09  0.00D+00 EMaxC= 1.00D-01 BMatC= 3.15D-16 BMatP= 3.52D-15
 IDIUse=1 WtCom= 1.00D+00 WtEn= 0.00D+00
 Coeff-Com: -0.165D-03 0.539D-03-0.142D-03-0.150D-02 0.340D-02-0.386D-02
 Coeff-Com:  0.226D-02-0.187D-02 0.582D-02-0.440D-02 0.536D-01-0.342D+00
 Coeff-Com:  0.118D+01-0.197D+01 0.208D+01
 Coeff:     -0.165D-03 0.539D-03-0.142D-03-0.150D-02 0.340D-02-0.386D-02
 Coeff:      0.226D-02-0.187D-02 0.582D-02-0.440D-02 0.536D-01-0.342D+00
 Coeff:      0.118D+01-0.197D+01 0.208D+01
 Gap=     0.393 Goal=   None    Shift=    0.000
 Gap=     0.393 Goal=   None    Shift=    0.000
 RMSDP=9.07D-09 MaxDP=3.96D-08 DE=-7.11D-15 OVMax= 0.00D+00

 Density matrix breaks symmetry, PCut= 1.00D-07
 Density matrix has no symmetry -- integrals replicated.
 SCF Done:  E(UHF) =  -4.87956785977     A.U. after   15 cycles
            NFock= 15  Conv=0.91D-08     -V/T= 1.9491
 <Sx>= 0.0000 <Sy>= 0.0000 <Sz>= 0.0000 <S**2>= 0.9282 S= 0.5855
 <L.S>= 0.000000000000E+00
 KE= 5.141048606622D+00 PE=-3.519710535088D+01 EE= 1.221480446142D+01
 Annihilation of the first spin contaminant:
 S**2 before annihilation     0.9282,   after     0.9841
 Leave Link  502 at Fri Feb 24 16:27:48 2017, MaxMem=   134217728 cpu:         0.1
 (Enter /projects/guscus/apps/gau/g09-e1/g09/l601.exe)
 Copying SCF densities to generalized density rwf, IOpCl= 1 IROHF=0.

 **********************************************************************

            Population analysis using the SCF density.

 **********************************************************************

 Orbital symmetries:
 Alpha Orbitals:
       Occupied  (BG) (BG) (BG) (BG) (BG)
       Virtual   (BG) (BG) (BG) (BG) (BG)
 Beta  Orbitals:
       Occupied  (BG) (BG) (BG) (BG) (BG)
       Virtual   (BG) (BG) (BG) (BG) (BG)
 Unable to determine electronic state:  partially filled degenerate orbitals.
 Alpha  occ. eigenvalues --   -0.84781  -0.72533  -0.56199  -0.34385  -0.33425
 Alpha virt. eigenvalues --    0.05896   0.18239   0.26319   0.47480   0.57753
  Beta  occ. eigenvalues --   -0.84781  -0.72533  -0.56199  -0.34385  -0.33425
  Beta virt. eigenvalues --    0.05896   0.18239   0.26319   0.47480   0.57753
          Condensed to atoms (all electrons):
               1          2          3          4          5          6
     1  H    0.791516   0.152276   0.120751  -0.044138   0.013513  -0.132477
     2  H    0.152276   0.975215  -0.132994   0.093569   0.002357  -0.044678
     3  H    0.120751  -0.132994   1.249438  -0.082631   0.096076   0.065272
     4  H   -0.044138   0.093569  -0.082631   0.811004  -0.089323   0.253058
     5  H    0.013513   0.002357   0.096076  -0.089323   0.942145  -0.136224
     6  H   -0.132477  -0.044678   0.065272   0.253058  -0.136224   0.942145
     7  H    0.004578   0.001277  -0.010485  -0.008037   0.253058  -0.089323
     8  H   -0.005708   0.010027  -0.165229  -0.010485   0.065272   0.096076
     9  H   -0.000250  -0.000264   0.010027   0.001277  -0.044678   0.002357
    10  H    0.000292  -0.000250  -0.005708   0.004578  -0.132477   0.013513
               7          8          9         10
     1  H    0.004578  -0.005708  -0.000250   0.000292
     2  H    0.001277   0.010027  -0.000264  -0.000250
     3  H   -0.010485  -0.165229   0.010027  -0.005708
     4  H   -0.008037  -0.010485   0.001277   0.004578
     5  H    0.253058   0.065272  -0.044678  -0.132477
     6  H   -0.089323   0.096076   0.002357   0.013513
     7  H    0.811004  -0.082631   0.093569  -0.044138
     8  H   -0.082631   1.249438  -0.132994   0.120751
     9  H    0.093569  -0.132994   0.975215   0.152276
    10  H   -0.044138   0.120751   0.152276   0.791516
          Atomic-Atomic Spin Densities.
               1          2          3          4          5          6
     1  H    0.592970   0.021286   0.053732  -0.167161   0.023457  -0.113205
     2  H    0.021286  -0.545449   0.020605   0.072227  -0.008326   0.013558
     3  H    0.053732   0.020605   0.276243  -0.255664   0.143238  -0.097800
     4  H   -0.167161   0.072227  -0.255664   0.447801  -0.026739   0.170976
     5  H    0.023457  -0.008326   0.143238  -0.026739  -0.373330  -0.000000
     6  H   -0.113205   0.013558  -0.097800   0.170976  -0.000000   0.373330
     7  H    0.001974  -0.000348  -0.010004   0.000000  -0.170976   0.026739
     8  H    0.007506  -0.000962   0.000000   0.010004   0.097800  -0.143238
     9  H   -0.000645   0.000000   0.000962   0.000348  -0.013558   0.008326
    10  H   -0.000000   0.000645  -0.007506  -0.001974   0.113205  -0.023457
               7          8          9         10
     1  H    0.001974   0.007506  -0.000645  -0.000000
     2  H   -0.000348  -0.000962   0.000000   0.000645
     3  H   -0.010004   0.000000   0.000962  -0.007506
     4  H    0.000000   0.010004   0.000348  -0.001974
     5  H   -0.170976   0.097800  -0.013558   0.113205
     6  H    0.026739  -0.143238   0.008326  -0.023457
     7  H   -0.447801   0.255664  -0.072227   0.167161
     8  H    0.255664  -0.276243  -0.020605  -0.053732
     9  H   -0.072227  -0.020605   0.545449  -0.021286
    10  H    0.167161  -0.053732  -0.021286  -0.592970
 Mulliken charges and spin densities:
               1          2
     1  H    0.099646   0.419913
     2  H   -0.056537  -0.426763
     3  H   -0.144517   0.123805
     4  H    0.071127   0.249817
     5  H    0.030280  -0.215230
     6  H    0.030280   0.215230
     7  H    0.071127  -0.249817
     8  H   -0.144517  -0.123805
     9  H   -0.056537   0.426763
    10  H    0.099646  -0.419913
 Sum of Mulliken charges =   0.00000  -0.00000
 Mulliken charges and spin densities with hydrogens summed into heavy atoms:
               1          2
 Electronic spatial extent (au):  <R**2>=            146.2785
 Charge=              0.0000 electrons
 Dipole moment (field-independent basis, Debye):
    X=             -0.0000    Y=              0.0000    Z=              0.0000  Tot=              0.0000
 Quadrupole moment (field-independent basis, Debye-Ang):
   XX=            -14.1606   YY=            -15.3769   ZZ=            -12.9621
   XY=              0.5022   XZ=              0.0000   YZ=             -0.0000
 Traceless Quadrupole moment (field-independent basis, Debye-Ang):
   XX=              0.0059   YY=             -1.2104   ZZ=              1.2045
   XY=              0.5022   XZ=              0.0000   YZ=             -0.0000
 Octapole moment (field-independent basis, Debye-Ang**2):
  XXX=             -0.0000  YYY=              0.0000  ZZZ=             -0.0000  XYY=             -0.0000
  XXY=              0.0000  XXZ=             -0.0000  XZZ=             -0.0000  YZZ=              0.0000
  YYZ=             -0.0000  XYZ=              0.0000
 Hexadecapole moment (field-independent basis, Debye-Ang**3):
 XXXX=           -175.4900 YYYY=           -139.6750 ZZZZ=            -15.6746 XXXY=             64.0684
 XXXZ=              0.0000 YYYX=             65.3628 YYYZ=             -0.0000 ZZZX=              0.0000
 ZZZY=             -0.0000 XXYY=            -59.7946 XXZZ=            -30.7037 YYZZ=            -24.1034
 XXYZ=             -0.0000 YYXZ=              0.0000 ZZXY=             18.3306
 N-N= 1.296168442307D+01 E-N=-3.519710535147D+01  KE= 5.141048606622D+00
 Symmetry AG   KE= 1.942663448723D+00
 Symmetry BG   KE= 0.000000000000D+00
 Symmetry AU   KE= 0.000000000000D+00
 Symmetry BU   KE= 3.198385157898D+00
                          Isotropic Fermi Contact Couplings
        Atom                 a.u.       MegaHertz       Gauss      10(-4) cm-1
     1  H(1)               0.16445     367.52813     131.14317     122.59419
     2  H(1)              -0.15563    -347.81782    -124.11004    -116.01954
     3  H(1)               0.06668     149.02652      53.17637      49.70990
     4  H(1)               0.11445     255.79851      91.27527      85.32520
     5  H(1)              -0.09996    -223.40863     -79.71775     -74.52110
     6  H(1)               0.09996     223.40863      79.71775      74.52110
     7  H(1)              -0.11445    -255.79851     -91.27527     -85.32520
     8  H(1)              -0.06668    -149.02652     -53.17637     -49.70990
     9  H(1)               0.15563     347.81782     124.11004     116.01954
    10  H(1)              -0.16445    -367.52813    -131.14317    -122.59419
 --------------------------------------------------------
       Center         ----  Spin Dipole Couplings  ----
                      3XX-RR        3YY-RR        3ZZ-RR
 --------------------------------------------------------
     1   Atom        0.023714     -0.033287      0.009573
     2   Atom        0.002815      0.044020     -0.046835
     3   Atom        0.035793     -0.009818     -0.025975
     4   Atom        0.049659     -0.036998     -0.012662
     5   Atom        0.009267     -0.002529     -0.006738
     6   Atom       -0.009267      0.002529      0.006738
     7   Atom       -0.049659      0.036998      0.012662
     8   Atom       -0.035793      0.009818      0.025975
     9   Atom       -0.002815     -0.044020      0.046835
    10   Atom       -0.023714      0.033287     -0.009573
 --------------------------------------------------------
                        XY            XZ            YZ
 --------------------------------------------------------
     1   Atom        0.010676     -0.000000      0.000000
     2   Atom       -0.019328     -0.000000     -0.000000
     3   Atom        0.014407      0.000000     -0.000000
     4   Atom        0.037701      0.000000      0.000000
     5   Atom       -0.010410     -0.000000     -0.000000
     6   Atom        0.010410      0.000000     -0.000000
     7   Atom       -0.037701      0.000000     -0.000000
     8   Atom       -0.014407      0.000000      0.000000
     9   Atom        0.019328      0.000000     -0.000000
    10   Atom       -0.010676      0.000000      0.000000
 --------------------------------------------------------


 ---------------------------------------------------------------------------------
              Anisotropic Spin Dipole Couplings in Principal Axis System
 ---------------------------------------------------------------------------------

       Atom             a.u.   MegaHertz   Gauss  10(-4) cm-1        Axes

              Baa    -0.0352   -18.792    -6.706    -6.268 -0.1782  0.9840  0.0000
     1 H(1)   Bbb     0.0096     5.108     1.823     1.704  0.0000  0.0000  1.0000
              Bcc     0.0256    13.685     4.883     4.565  0.9840  0.1782  0.0000
 
              Baa    -0.0468   -24.989    -8.917    -8.335  0.0000  0.0000  1.0000
     2 H(1)   Bbb    -0.0048    -2.578    -0.920    -0.860  0.9299  0.3679  0.0000
              Bcc     0.0517    27.567     9.837     9.195 -0.3679  0.9299 -0.0000
 
              Baa    -0.0260   -13.859    -4.945    -4.623  0.0000  0.0000  1.0000
     3 H(1)   Bbb    -0.0140    -7.463    -2.663    -2.489 -0.2780  0.9606 -0.0000
              Bcc     0.0400    21.322     7.608     7.112  0.9606  0.2780  0.0000
 
              Baa    -0.0511   -27.267    -9.729    -9.095 -0.3504  0.9366 -0.0000
     4 H(1)   Bbb    -0.0127    -6.756    -2.411    -2.253  0.0000  0.0000  1.0000
              Bcc     0.0638    34.022    12.140    11.349  0.9366  0.3504  0.0000
 
              Baa    -0.0086    -4.586    -1.637    -1.530  0.5035  0.8640 -0.0000
     5 H(1)   Bbb    -0.0067    -3.595    -1.283    -1.199  0.0000  0.0000  1.0000
              Bcc     0.0153     8.182     2.919     2.729  0.8640 -0.5035  0.0000
 
              Baa    -0.0153    -8.182    -2.919    -2.729  0.8640 -0.5035  0.0000
     6 H(1)   Bbb     0.0067     3.595     1.283     1.199  0.0000  0.0000  1.0000
              Bcc     0.0086     4.586     1.637     1.530  0.5035  0.8640  0.0000
 
              Baa    -0.0638   -34.022   -12.140   -11.349  0.9366  0.3504  0.0000
     7 H(1)   Bbb     0.0127     6.756     2.411     2.253  0.0000  0.0000  1.0000
              Bcc     0.0511    27.267     9.729     9.095 -0.3504  0.9366 -0.0000
 
              Baa    -0.0400   -21.322    -7.608    -7.112  0.9606  0.2780  0.0000
     8 H(1)   Bbb     0.0140     7.463     2.663     2.489 -0.2780  0.9606 -0.0000
              Bcc     0.0260    13.859     4.945     4.623  0.0000  0.0000  1.0000
 
              Baa    -0.0517   -27.567    -9.837    -9.195 -0.3679  0.9299  0.0000
     9 H(1)   Bbb     0.0048     2.578     0.920     0.860  0.9299  0.3679  0.0000
              Bcc     0.0468    24.989     8.917     8.335  0.0000  0.0000  1.0000
 
              Baa    -0.0256   -13.685    -4.883    -4.565  0.9840  0.1782  0.0000
    10 H(1)   Bbb    -0.0096    -5.108    -1.823    -1.704  0.0000  0.0000  1.0000
              Bcc     0.0352    18.792     6.706     6.268 -0.1782  0.9840 -0.0000
 

 ---------------------------------------------------------------------------------

 No NMR shielding tensors so no spin-rotation constants.
 Leave Link  601 at Fri Feb 24 16:27:49 2017, MaxMem=   134217728 cpu:         0.1
 (Enter /projects/guscus/apps/gau/g09-e1/g09/l801.exe)
 Range of M.O.s used for correlation:     1    10
 NBasis=    10 NAE=     5 NBE=     5 NFC=     0 NFV=     0
 NROrb=     10 NOA=     5 NOB=     5 NVA=     5 NVB=     5
 Leave Link  801 at Fri Feb 24 16:27:49 2017, MaxMem=   134217728 cpu:         0.0
 (Enter /projects/guscus/apps/gau/g09-e1/g09/l914.exe)
 UHF ground state
 Doing stability rather than CIS.
 MDV=   134217728 DFT=F DoStab=T Mixed=F DoRPA=F DoScal=F NonHer=F
 Keep R1 and R2 ints in memory in symmetry-blocked form, NReq=802982.
 FoFCou: FMM=F IPFlag=           0 FMFlag=           0 FMFlg1=           0
         NFxFlg=           0 DoJE=F BraDBF=F KetDBF=F FulRan=T
         wScrn=  0.000000 ICntrl=     600 IOpCl=  0 I1Cent=           0 NGrid=           0
         NMat0=    1 NMatS0=     55 NMatT0=    0 NMatD0=    1 NMtDS0=    0 NMtDT0=    0
 Petite list used in FoFCou.
 Making orbital integer symmetry assigments:
 Orbital symmetries:
 Alpha Orbitals:
       Occupied  (BG) (BG) (BG) (BG) (BG)
       Virtual   (BG) (BG) (BG) (BG) (BG)
 Beta  Orbitals:
       Occupied  (BG) (BG) (BG) (BG) (BG)
       Virtual   (BG) (BG) (BG) (BG) (BG)
    12 initial guesses have been made.
 Convergence on wavefunction:    0.001000000000000
 Davidson Disk Diagonalization:  ConvIn= 1.00D-03 SkipCon=T Conv= 1.00D-03.
 Max sub-space:   200 roots to seek:    12 dimension of matrix:           50
 Iteration     1 Dimension    12 NMult     0 NNew     12
 CISAX will form    12 AO SS matrices at one time.
 NMat=    12 NSing=    12 JSym2X= 2.
 Excitation Energies [eV] at current iteration:
 Root      1 :     1.964665892029382
 Root      2 :     3.314607105601404
 Root      3 :     3.868040111091756
 Root      4 :     4.233794026328268
 Root      5 :     4.772308868533476
 Root      6 :     7.045873775922683
 Root      7 :     7.182189437831603
 Root      8 :     8.994662839125462
 Root      9 :     9.829126831709702
 Root     10 :    10.072415987876310
 Root     11 :    11.997639250209840
 Root     12 :    13.603855723548910
 Iteration     2 Dimension    24 NMult    12 NNew     12
 CISAX will form    12 AO SS matrices at one time.
 NMat=    12 NSing=    12 JSym2X= 2.
 Root      1 not converged, maximum delta is    0.113393708607562
 Excitation Energies [eV] at current iteration:
 Root      1 :     1.119066872416102   Change is   -0.845599019613280
 Root      2 :     2.619678306727856   Change is   -0.694928798873548
 Root      3 :     2.939725865877256   Change is   -0.928314245214500
 Root      4 :     3.226172613032493   Change is   -1.007621413295775
 Root      5 :     3.608866418659309   Change is   -1.163442449874167
 Root      6 :     5.897875921852068   Change is   -1.284313515979534
 Root      7 :     5.914496851063386   Change is   -3.080165988062076
 Root      8 :     6.699993153913915   Change is   -0.345880622008768
 Root      9 :     8.273609116563623   Change is   -1.798806871312689
 Root     10 :     8.599754171107639   Change is   -1.229372660602064
 Root     11 :     8.995911513574873   Change is   -3.001727736634966
 Root     12 :    11.821085937117150   Change is   -1.782769786431762
 Iteration     3 Dimension    27 NMult    24 NNew      3
 CISAX will form     3 AO SS matrices at one time.
 NMat=     3 NSing=     3 JSym2X= 2.
 Root      1 not converged, maximum delta is    0.014255130713372
 Excitation Energies [eV] at current iteration:
 Root      1 :     1.100800935616073   Change is   -0.018265936800028
 Root      2 :     2.583688509379040   Change is   -0.035989797348816
 Root      3 :     2.878082376101029   Change is   -0.061643489776227
 Iteration     4 Dimension    30 NMult    27 NNew      3
 CISAX will form     3 AO SS matrices at one time.
 NMat=     3 NSing=     3 JSym2X= 2.
 Root      1 not converged, maximum delta is    0.001478274127582
 Excitation Energies [eV] at current iteration:
 Root      1 :     1.100530077331583   Change is   -0.000270858284491
 Root      2 :     2.582226658122623   Change is   -0.001461851256417
 Root      3 :     2.873879626699511   Change is   -0.004202749401518
 Iteration     5 Dimension    33 NMult    30 NNew      3
 CISAX will form     3 AO SS matrices at one time.
 NMat=     3 NSing=     3 JSym2X= 2.
 Root      1 has converged.
 Excitation Energies [eV] at current iteration:
 Root      1 :     1.100510975161004   Change is   -0.000019102170579
 Root      2 :     2.582160830674768   Change is   -0.000065827447856
 Root      3 :     2.873737983975007   Change is   -0.000141642724503
 Convergence achieved on expansion vectors.
 ***********************************************************************
 Stability analysis using <AA,BB:AA,BB> singles matrix:
 ***********************************************************************

 Eigenvectors of the stability matrix:
 
 Eigenvector   1:  2.817-AG   Eigenvalue= 0.0404430  <S**2>=1.734
      3A ->  8A        0.11799
      4A ->  6A       -0.14813
      5A ->  6A        0.62555
      5A ->  7A        0.19837
      3B ->  8B        0.11799
      4B ->  6B       -0.14813
      5B ->  6B        0.62555
      5B ->  7B        0.19837
 SavETr:  write IOETrn=   770 NScale= 10 NData=  16 NLR=1 NState=    1 LETran=      28.
 The wavefunction is stable under the perturbations considered.
 Leave Link  914 at Fri Feb 24 16:27:49 2017, MaxMem=   134217728 cpu:         0.2
 (Enter /projects/guscus/apps/gau/g09-e1/g09/l508.exe)
 The wavefunction is already stable.
 Leave Link  508 at Fri Feb 24 16:27:49 2017, MaxMem=   134217728 cpu:         0.0
 (Enter /projects/guscus/apps/gau/g09-e1/g09/l601.exe)
 Copying SCF densities to generalized density rwf, IOpCl= 1 IROHF=0.

 **********************************************************************

            Population analysis using the SCF density.

 **********************************************************************

 Orbital symmetries:
 Alpha Orbitals:
       Occupied  (BG) (BG) (BG) (BG) (BG)
       Virtual   (BG) (BG) (BG) (BG) (BG)
 Beta  Orbitals:
       Occupied  (BG) (BG) (BG) (BG) (BG)
       Virtual   (BG) (BG) (BG) (BG) (BG)
 Unable to determine electronic state:  partially filled degenerate orbitals.
 Alpha  occ. eigenvalues --   -0.84781  -0.72533  -0.56199  -0.34385  -0.33425
 Alpha virt. eigenvalues --    0.05896   0.18239   0.26319   0.47480   0.57753
  Beta  occ. eigenvalues --   -0.84781  -0.72533  -0.56199  -0.34385  -0.33425
  Beta virt. eigenvalues --    0.05896   0.18239   0.26319   0.47480   0.57753
          Condensed to atoms (all electrons):
               1          2          3          4          5          6
     1  H    0.791516   0.152276   0.120751  -0.044138   0.013513  -0.132477
     2  H    0.152276   0.975215  -0.132994   0.093569   0.002357  -0.044678
     3  H    0.120751  -0.132994   1.249438  -0.082631   0.096076   0.065272
     4  H   -0.044138   0.093569  -0.082631   0.811004  -0.089323   0.253058
     5  H    0.013513   0.002357   0.096076  -0.089323   0.942145  -0.136224
     6  H   -0.132477  -0.044678   0.065272   0.253058  -0.136224   0.942145
     7  H    0.004578   0.001277  -0.010485  -0.008037   0.253058  -0.089323
     8  H   -0.005708   0.010027  -0.165229  -0.010485   0.065272   0.096076
     9  H   -0.000250  -0.000264   0.010027   0.001277  -0.044678   0.002357
    10  H    0.000292  -0.000250  -0.005708   0.004578  -0.132477   0.013513
               7          8          9         10
     1  H    0.004578  -0.005708  -0.000250   0.000292
     2  H    0.001277   0.010027  -0.000264  -0.000250
     3  H   -0.010485  -0.165229   0.010027  -0.005708
     4  H   -0.008037  -0.010485   0.001277   0.004578
     5  H    0.253058   0.065272  -0.044678  -0.132477
     6  H   -0.089323   0.096076   0.002357   0.013513
     7  H    0.811004  -0.082631   0.093569  -0.044138
     8  H   -0.082631   1.249438  -0.132994   0.120751
     9  H    0.093569  -0.132994   0.975215   0.152276
    10  H   -0.044138   0.120751   0.152276   0.791516
          Atomic-Atomic Spin Densities.
               1          2          3          4          5          6
     1  H    0.592970   0.021286   0.053732  -0.167161   0.023457  -0.113205
     2  H    0.021286  -0.545449   0.020605   0.072227  -0.008326   0.013558
     3  H    0.053732   0.020605   0.276243  -0.255664   0.143238  -0.097800
     4  H   -0.167161   0.072227  -0.255664   0.447801  -0.026739   0.170976
     5  H    0.023457  -0.008326   0.143238  -0.026739  -0.373330  -0.000000
     6  H   -0.113205   0.013558  -0.097800   0.170976  -0.000000   0.373330
     7  H    0.001974  -0.000348  -0.010004   0.000000  -0.170976   0.026739
     8  H    0.007506  -0.000962   0.000000   0.010004   0.097800  -0.143238
     9  H   -0.000645   0.000000   0.000962   0.000348  -0.013558   0.008326
    10  H   -0.000000   0.000645  -0.007506  -0.001974   0.113205  -0.023457
               7          8          9         10
     1  H    0.001974   0.007506  -0.000645  -0.000000
     2  H   -0.000348  -0.000962   0.000000   0.000645
     3  H   -0.010004   0.000000   0.000962  -0.007506
     4  H    0.000000   0.010004   0.000348  -0.001974
     5  H   -0.170976   0.097800  -0.013558   0.113205
     6  H    0.026739  -0.143238   0.008326  -0.023457
     7  H   -0.447801   0.255664  -0.072227   0.167161
     8  H    0.255664  -0.276243  -0.020605  -0.053732
     9  H   -0.072227  -0.020605   0.545449  -0.021286
    10  H    0.167161  -0.053732  -0.021286  -0.592970
 Mulliken charges and spin densities:
               1          2
     1  H    0.099646   0.419913
     2  H   -0.056537  -0.426763
     3  H   -0.144517   0.123805
     4  H    0.071127   0.249817
     5  H    0.030280  -0.215230
     6  H    0.030280   0.215230
     7  H    0.071127  -0.249817
     8  H   -0.144517  -0.123805
     9  H   -0.056537   0.426763
    10  H    0.099646  -0.419913
 Sum of Mulliken charges =   0.00000  -0.00000
 Mulliken charges and spin densities with hydrogens summed into heavy atoms:
               1          2
 Electronic spatial extent (au):  <R**2>=            146.2785
 Charge=              0.0000 electrons
 Dipole moment (field-independent basis, Debye):
    X=             -0.0000    Y=              0.0000    Z=              0.0000  Tot=              0.0000
 Quadrupole moment (field-independent basis, Debye-Ang):
   XX=            -14.1606   YY=            -15.3769   ZZ=            -12.9621
   XY=              0.5022   XZ=              0.0000   YZ=             -0.0000
 Traceless Quadrupole moment (field-independent basis, Debye-Ang):
   XX=              0.0059   YY=             -1.2104   ZZ=              1.2045
   XY=              0.5022   XZ=              0.0000   YZ=             -0.0000
 Octapole moment (field-independent basis, Debye-Ang**2):
  XXX=             -0.0000  YYY=              0.0000  ZZZ=             -0.0000  XYY=             -0.0000
  XXY=              0.0000  XXZ=             -0.0000  XZZ=             -0.0000  YZZ=              0.0000
  YYZ=             -0.0000  XYZ=              0.0000
 Hexadecapole moment (field-independent basis, Debye-Ang**3):
 XXXX=           -175.4900 YYYY=           -139.6750 ZZZZ=            -15.6746 XXXY=             64.0684
 XXXZ=              0.0000 YYYX=             65.3628 YYYZ=             -0.0000 ZZZX=              0.0000
 ZZZY=             -0.0000 XXYY=            -59.7946 XXZZ=            -30.7037 YYZZ=            -24.1034
 XXYZ=             -0.0000 YYXZ=              0.0000 ZZXY=             18.3306
 N-N= 1.296168442307D+01 E-N=-3.519710535147D+01  KE= 5.141048606622D+00
 Symmetry AG   KE= 1.942663448723D+00
 Symmetry BG   KE= 0.000000000000D+00
 Symmetry AU   KE= 0.000000000000D+00
 Symmetry BU   KE= 3.198385157898D+00
                          Isotropic Fermi Contact Couplings
        Atom                 a.u.       MegaHertz       Gauss      10(-4) cm-1
     1  H(1)               0.16445     367.52813     131.14317     122.59419
     2  H(1)              -0.15563    -347.81782    -124.11004    -116.01954
     3  H(1)               0.06668     149.02652      53.17637      49.70990
     4  H(1)               0.11445     255.79851      91.27527      85.32520
     5  H(1)              -0.09996    -223.40863     -79.71775     -74.52110
     6  H(1)               0.09996     223.40863      79.71775      74.52110
     7  H(1)              -0.11445    -255.79851     -91.27527     -85.32520
     8  H(1)              -0.06668    -149.02652     -53.17637     -49.70990
     9  H(1)               0.15563     347.81782     124.11004     116.01954
    10  H(1)              -0.16445    -367.52813    -131.14317    -122.59419
 --------------------------------------------------------
       Center         ----  Spin Dipole Couplings  ----
                      3XX-RR        3YY-RR        3ZZ-RR
 --------------------------------------------------------
     1   Atom        0.023714     -0.033287      0.009573
     2   Atom        0.002815      0.044020     -0.046835
     3   Atom        0.035793     -0.009818     -0.025975
     4   Atom        0.049659     -0.036998     -0.012662
     5   Atom        0.009267     -0.002529     -0.006738
     6   Atom       -0.009267      0.002529      0.006738
     7   Atom       -0.049659      0.036998      0.012662
     8   Atom       -0.035793      0.009818      0.025975
     9   Atom       -0.002815     -0.044020      0.046835
    10   Atom       -0.023714      0.033287     -0.009573
 --------------------------------------------------------
                        XY            XZ            YZ
 --------------------------------------------------------
     1   Atom        0.010676     -0.000000      0.000000
     2   Atom       -0.019328     -0.000000     -0.000000
     3   Atom        0.014407      0.000000     -0.000000
     4   Atom        0.037701      0.000000      0.000000
     5   Atom       -0.010410     -0.000000     -0.000000
     6   Atom        0.010410      0.000000     -0.000000
     7   Atom       -0.037701      0.000000     -0.000000
     8   Atom       -0.014407      0.000000      0.000000
     9   Atom        0.019328      0.000000     -0.000000
    10   Atom       -0.010676      0.000000      0.000000
 --------------------------------------------------------


 ---------------------------------------------------------------------------------
              Anisotropic Spin Dipole Couplings in Principal Axis System
 ---------------------------------------------------------------------------------

       Atom             a.u.   MegaHertz   Gauss  10(-4) cm-1        Axes

              Baa    -0.0352   -18.792    -6.706    -6.268 -0.1782  0.9840  0.0000
     1 H(1)   Bbb     0.0096     5.108     1.823     1.704  0.0000  0.0000  1.0000
              Bcc     0.0256    13.685     4.883     4.565  0.9840  0.1782  0.0000
 
              Baa    -0.0468   -24.989    -8.917    -8.335  0.0000  0.0000  1.0000
     2 H(1)   Bbb    -0.0048    -2.578    -0.920    -0.860  0.9299  0.3679  0.0000
              Bcc     0.0517    27.567     9.837     9.195 -0.3679  0.9299 -0.0000
 
              Baa    -0.0260   -13.859    -4.945    -4.623  0.0000  0.0000  1.0000
     3 H(1)   Bbb    -0.0140    -7.463    -2.663    -2.489 -0.2780  0.9606 -0.0000
              Bcc     0.0400    21.322     7.608     7.112  0.9606  0.2780  0.0000
 
              Baa    -0.0511   -27.267    -9.729    -9.095 -0.3504  0.9366 -0.0000
     4 H(1)   Bbb    -0.0127    -6.756    -2.411    -2.253  0.0000  0.0000  1.0000
              Bcc     0.0638    34.022    12.140    11.349  0.9366  0.3504  0.0000
 
              Baa    -0.0086    -4.586    -1.637    -1.530  0.5035  0.8640 -0.0000
     5 H(1)   Bbb    -0.0067    -3.595    -1.283    -1.199  0.0000  0.0000  1.0000
              Bcc     0.0153     8.182     2.919     2.729  0.8640 -0.5035  0.0000
 
              Baa    -0.0153    -8.182    -2.919    -2.729  0.8640 -0.5035  0.0000
     6 H(1)   Bbb     0.0067     3.595     1.283     1.199  0.0000  0.0000  1.0000
              Bcc     0.0086     4.586     1.637     1.530  0.5035  0.8640  0.0000
 
              Baa    -0.0638   -34.022   -12.140   -11.349  0.9366  0.3504  0.0000
     7 H(1)   Bbb     0.0127     6.756     2.411     2.253  0.0000  0.0000  1.0000
              Bcc     0.0511    27.267     9.729     9.095 -0.3504  0.9366 -0.0000
 
              Baa    -0.0400   -21.322    -7.608    -7.112  0.9606  0.2780  0.0000
     8 H(1)   Bbb     0.0140     7.463     2.663     2.489 -0.2780  0.9606 -0.0000
              Bcc     0.0260    13.859     4.945     4.623  0.0000  0.0000  1.0000
 
              Baa    -0.0517   -27.567    -9.837    -9.195 -0.3679  0.9299  0.0000
     9 H(1)   Bbb     0.0048     2.578     0.920     0.860  0.9299  0.3679  0.0000
              Bcc     0.0468    24.989     8.917     8.335  0.0000  0.0000  1.0000
 
              Baa    -0.0256   -13.685    -4.883    -4.565  0.9840  0.1782  0.0000
    10 H(1)   Bbb    -0.0096    -5.108    -1.823    -1.704  0.0000  0.0000  1.0000
              Bcc     0.0352    18.792     6.706     6.268 -0.1782  0.9840 -0.0000
 

 ---------------------------------------------------------------------------------

 No NMR shielding tensors so no spin-rotation constants.
 Leave Link  601 at Fri Feb 24 16:27:49 2017, MaxMem=   134217728 cpu:         0.1
 (Enter /projects/guscus/apps/gau/g09-e1/g09/l9999.exe)

 Test job not archived.
 1\1\GINC-SULU\Stability\UHF\Gen\H10\LCJ1\24-Feb-2017\0\\#p uhf/gen scf
 (tight,novaracc,noincfock,fulldiag ) stable=opt guess=(read) geom=nocr
 owd test\\hf stability analysis of h10 triangular lattice, y= 0.542378
 70990772830 alpha= 27.000000000000000\\0,1\H\H,1,1.1946917309\H,1,1.19
 46917309,2,126.\H,2,1.1946917309,1,54.,3,0.,0\H,3,1.1946917309,1,180.,
 2,0.,0\H,4,1.1946917309,2,180.,1,0.,0\H,5,1.1946917309,3,180.,2,0.,0\H
 ,6,1.1946917309,4,180.,1,0.,0\H,7,1.1946917309,5,180.,2,0.,0\H,8,1.194
 6917309,6,180.,1,0.,0\\Version=ES64L-G09RevE.01\HF=-4.8795679\S2=0.928
 202\S2-1=0.\S2A=0.984056\RMSD=9.067e-09\Dipole=0.,0.,0.\Quadrupole=0.0
 04406,0.8954889,-0.8998949,0.,0.3733854,0.\PG=C02H [SGH(H10)]\\@


 KNOWLEDGE IS EXPERIMENT'S DAUGHTER.
 -- LEONARDO DA VINCI, IN "PENSIERI" CA. 1492
 Job cpu time:       0 days  0 hours  0 minutes  0.9 seconds.
 File lengths (MBytes):  RWF=     82 Int=      0 D2E=      0 Chk=      2 Scr=      2
 Normal termination of Gaussian 09 at Fri Feb 24 16:27:49 2017.
