 Entering Gaussian System, Link 0=g09
 AtFile(1): H.gbs
            H     0
            S   10   1.00
               1000.000000000000            0.000068713567
                316.227766000000            0.000169141320
                100.000000000000            0.000823394812
                 31.622776600000            0.003425569236
                 10.000000000000            0.013951996000
                  3.162277660000            0.056909313560
                  1.000000000000            0.198286399900
                  0.316227766000            0.496922426700
                  0.100000000000            0.369846276400
                  0.031622776600            0.003752720039
            ****
 Initial command:
 /projects/guscus/apps/gau/g09-e1/g09/l1.exe "/users/lcj1/gaussian/h10/2rows_uhf/ag2bu3/singlet/follow20/test/Gau-28553.inp" -scrdir="/users/lcj1/gaussian/h10/2rows_uhf/ag2bu3/singlet/follow20/test/"
 Entering Link 1 = /projects/guscus/apps/gau/g09-e1/g09/l1.exe PID=     28554.
  
 Copyright (c) 1988,1990,1992,1993,1995,1998,2003,2009,2015,
            Gaussian, Inc.  All Rights Reserved.
  
 This is part of the Gaussian(R) 09 program.  It is based on
 the Gaussian(R) 03 system (copyright 2003, Gaussian, Inc.),
 the Gaussian(R) 98 system (copyright 1998, Gaussian, Inc.),
 the Gaussian(R) 94 system (copyright 1995, Gaussian, Inc.),
 the Gaussian 92(TM) system (copyright 1992, Gaussian, Inc.),
 the Gaussian 90(TM) system (copyright 1990, Gaussian, Inc.),
 the Gaussian 88(TM) system (copyright 1988, Gaussian, Inc.),
 the Gaussian 86(TM) system (copyright 1986, Carnegie Mellon
 University), and the Gaussian 82(TM) system (copyright 1983,
 Carnegie Mellon University). Gaussian is a federally registered
 trademark of Gaussian, Inc.
  
 This software contains proprietary and confidential information,
 including trade secrets, belonging to Gaussian, Inc.
  
 This software is provided under written license and may be
 used, copied, transmitted, or stored only in accord with that
 written license.
  
 The following legend is applicable only to US Government
 contracts under FAR:
  
                    RESTRICTED RIGHTS LEGEND
  
 Use, reproduction and disclosure by the US Government is
 subject to restrictions as set forth in subparagraphs (a)
 and (c) of the Commercial Computer Software - Restricted
 Rights clause in FAR 52.227-19.
  
 Gaussian, Inc.
 340 Quinnipiac St., Bldg. 40, Wallingford CT 06492
  
  
 ---------------------------------------------------------------
 Warning -- This program may not be used in any manner that
 competes with the business of Gaussian, Inc. or will provide
 assistance to any competitor of Gaussian, Inc.  The licensee
 of this program is prohibited from giving any competitor of
 Gaussian, Inc. access to this program.  By using this program,
 the user acknowledges that Gaussian, Inc. is engaged in the
 business of creating and licensing software in the field of
 computational chemistry and represents and warrants to the
 licensee that it is not a competitor of Gaussian, Inc. and that
 it will not use this program in any manner prohibited above.
 ---------------------------------------------------------------
  

 Cite this work as:
 Gaussian 09, Revision E.01,
 M. J. Frisch, G. W. Trucks, H. B. Schlegel, G. E. Scuseria, 
 M. A. Robb, J. R. Cheeseman, G. Scalmani, V. Barone, B. Mennucci, 
 G. A. Petersson, H. Nakatsuji, M. Caricato, X. Li, H. P. Hratchian, 
 A. F. Izmaylov, J. Bloino, G. Zheng, J. L. Sonnenberg, M. Hada, 
 M. Ehara, K. Toyota, R. Fukuda, J. Hasegawa, M. Ishida, T. Nakajima, 
 Y. Honda, O. Kitao, H. Nakai, T. Vreven, J. A. Montgomery, Jr., 
 J. E. Peralta, F. Ogliaro, M. Bearpark, J. J. Heyd, E. Brothers, 
 K. N. Kudin, V. N. Staroverov, T. Keith, R. Kobayashi, J. Normand, 
 K. Raghavachari, A. Rendell, J. C. Burant, S. S. Iyengar, J. Tomasi, 
 M. Cossi, N. Rega, J. M. Millam, M. Klene, J. E. Knox, J. B. Cross, 
 V. Bakken, C. Adamo, J. Jaramillo, R. Gomperts, R. E. Stratmann, 
 O. Yazyev, A. J. Austin, R. Cammi, C. Pomelli, J. W. Ochterski, 
 R. L. Martin, K. Morokuma, V. G. Zakrzewski, G. A. Voth, 
 P. Salvador, J. J. Dannenberg, S. Dapprich, A. D. Daniels, 
 O. Farkas, J. B. Foresman, J. V. Ortiz, J. Cioslowski, 
 and D. J. Fox, Gaussian, Inc., Wallingford CT, 2013.
 
 ******************************************
 Gaussian 09:  ES64L-G09RevE.01 30-Nov-2015
                24-Feb-2017 
 ******************************************
 %chk=h10.chk
 ----------------------------------------------------------------------
 #p uhf/gen scf(tight,novaracc,noincfock,fulldiag ) stable=opt guess=(r
 ead) geom=nocrowd test
 ----------------------------------------------------------------------
 1/38=1/1;
 2/12=1,17=6,18=5,40=1/2;
 3/5=7,11=2,16=1,25=1,30=1,116=2/1,2,3;
 4/5=1/1;
 5/5=100002,16=1,32=2,38=6/2;
 6/7=2,8=2,9=2,10=2,28=1/1;
 8/6=1,10=90,11=11/1;
 9/8=-3,42=1,46=1/14;
 5/5=100002,8=3,16=1,17=40,32=2,38=6/8(-2);
 6/7=2,8=2,9=2,10=2,28=1/1;
 99/5=1,9=1/99;
 Leave Link    1 at Fri Feb 24 16:25:04 2017, MaxMem=           0 cpu:         0.0
 (Enter /projects/guscus/apps/gau/g09-e1/g09/l101.exe)
 ----------------------------------------------------------------------
 hf stability analysis of h10 triangular lattice, y= 0.3533094255888762
 9 alpha= 12.199999999999999
 ----------------------------------------------------------------------
 Symbolic Z-matrix:
 Charge =  0 Multiplicity = 1
 H
 H                    1     1.67188 
 H                    1     1.67188  2     155.6 
 H                    2     1.67188  1     24.4     3     0.       0
 H                    3     1.67188  1     180.     2     0.       0
 H                    4     1.67188  2     180.     1     0.       0
 H                    5     1.67188  3     180.     2     0.       0
 H                    6     1.67188  4     180.     1     0.       0
 H                    7     1.67188  5     180.     2     0.       0
 H                    8     1.67188  6     180.     1     0.       0
 
 NAtoms=     10 NQM=       10 NQMF=       0 NMMI=      0 NMMIF=      0
                NMic=       0 NMicF=      0.
                    Isotopes and Nuclear Properties:
 (Nuclear quadrupole moments (NQMom) in fm**2, nuclear magnetic moments (NMagM)
  in nuclear magnetons)

  Atom         1           2           3           4           5           6           7           8           9          10
 IAtWgt=           1           1           1           1           1           1           1           1           1           1
 AtmWgt=   1.0078250   1.0078250   1.0078250   1.0078250   1.0078250   1.0078250   1.0078250   1.0078250   1.0078250   1.0078250
 NucSpn=           1           1           1           1           1           1           1           1           1           1
 AtZEff=   0.0000000   0.0000000   0.0000000   0.0000000   0.0000000   0.0000000   0.0000000   0.0000000   0.0000000   0.0000000
 NQMom=    0.0000000   0.0000000   0.0000000   0.0000000   0.0000000   0.0000000   0.0000000   0.0000000   0.0000000   0.0000000
 NMagM=    2.7928460   2.7928460   2.7928460   2.7928460   2.7928460   2.7928460   2.7928460   2.7928460   2.7928460   2.7928460
 AtZNuc=   1.0000000   1.0000000   1.0000000   1.0000000   1.0000000   1.0000000   1.0000000   1.0000000   1.0000000   1.0000000
 Leave Link  101 at Fri Feb 24 16:25:04 2017, MaxMem=   134217728 cpu:         0.0
 (Enter /projects/guscus/apps/gau/g09-e1/g09/l202.exe)
                          Input orientation:                          
 ---------------------------------------------------------------------
 Center     Atomic      Atomic             Coordinates (Angstroms)
 Number     Number       Type             X           Y           Z
 ---------------------------------------------------------------------
      1          1           0        0.000000    0.000000    0.000000
      2          1           0        0.000000    0.000000    1.671879
      3          1           0        0.690660    0.000000   -1.522553
      4          1           0        0.690660    0.000000    0.149326
      5          1           0        1.381321    0.000000   -3.045105
      6          1           0        1.381321    0.000000   -1.373226
      7          1           0        2.071981    0.000000   -4.567658
      8          1           0        2.071981    0.000000   -2.895779
      9          1           0        2.762642    0.000000   -6.090210
     10          1           0        2.762642    0.000000   -4.418332
 ---------------------------------------------------------------------
                    Distance matrix (angstroms):
                    1          2          3          4          5
     1  H    0.000000
     2  H    1.671879   0.000000
     3  H    1.671879   3.268242   0.000000
     4  H    0.706619   1.671879   1.671879   0.000000
     5  H    3.343757   4.915077   1.671879   3.268242   0.000000
     6  H    1.947768   3.343757   0.706619   1.671879   1.671879
     7  H    5.015636   6.574566   3.343757   4.915077   1.671879
     8  H    3.560708   5.015636   1.947768   3.343757   0.706619
     9  H    6.687515   8.239066   5.015636   6.574566   3.343757
    10  H    5.210935   6.687515   3.560708   5.015636   1.947768
                    6          7          8          9         10
     6  H    0.000000
     7  H    3.268242   0.000000
     8  H    1.671879   1.671879   0.000000
     9  H    4.915077   1.671879   3.268242   0.000000
    10  H    3.343757   0.706619   1.671879   1.671879   0.000000
 Stoichiometry    H10
 Framework group  C2H[SGH(H10)]
 Deg. of freedom     9
 Full point group                 C2H     NOp   4
 Largest Abelian subgroup         C2H     NOp   4
 Largest concise Abelian subgroup C2      NOp   2
                         Standard orientation:                         
 ---------------------------------------------------------------------
 Center     Atomic      Atomic             Coordinates (Angstroms)
 Number     Number       Type             X           Y           Z
 ---------------------------------------------------------------------
      1          1           0        1.381321   -2.209166    0.000000
      2          1           0        1.381321   -3.881044    0.000000
      3          1           0        0.690660   -0.686613    0.000000
      4          1           0        0.690660   -2.358492    0.000000
      5          1           0        0.000000    0.835939   -0.000000
      6          1           0       -0.000000   -0.835939   -0.000000
      7          1           0       -0.690660    2.358492    0.000000
      8          1           0       -0.690660    0.686613    0.000000
      9          1           0       -1.381321    3.881044    0.000000
     10          1           0       -1.381321    2.209166    0.000000
 ---------------------------------------------------------------------
 Rotational constants (GHZ):    464.9465973      8.1124552      7.9733353
 Leave Link  202 at Fri Feb 24 16:25:04 2017, MaxMem=   134217728 cpu:         0.0
 (Enter /projects/guscus/apps/gau/g09-e1/g09/l301.exe)
 General basis read from cards:  (5D, 7F)
 Centers:       1      2      3      4      5      6      7      8      9     10
 S 10 1.00
     Exponent=  1.0000000000D+03 Coefficients=  6.8713567000D-05
     Exponent=  3.1622776600D+02 Coefficients=  1.6914132000D-04
     Exponent=  1.0000000000D+02 Coefficients=  8.2339481200D-04
     Exponent=  3.1622776600D+01 Coefficients=  3.4255692360D-03
     Exponent=  1.0000000000D+01 Coefficients=  1.3951996000D-02
     Exponent=  3.1622776600D+00 Coefficients=  5.6909313560D-02
     Exponent=  1.0000000000D+00 Coefficients=  1.9828639990D-01
     Exponent=  3.1622776600D-01 Coefficients=  4.9692242670D-01
     Exponent=  1.0000000000D-01 Coefficients=  3.6984627640D-01
     Exponent=  3.1622776600D-02 Coefficients=  3.7527200390D-03
 ****
 Ernie: Thresh=  0.10000D-02 Tol=  0.10000D-05 Strict=F.
 There are     5 symmetry adapted cartesian basis functions of AG  symmetry.
 There are     0 symmetry adapted cartesian basis functions of BG  symmetry.
 There are     0 symmetry adapted cartesian basis functions of AU  symmetry.
 There are     5 symmetry adapted cartesian basis functions of BU  symmetry.
 There are     5 symmetry adapted basis functions of AG  symmetry.
 There are     0 symmetry adapted basis functions of BG  symmetry.
 There are     0 symmetry adapted basis functions of AU  symmetry.
 There are     5 symmetry adapted basis functions of BU  symmetry.
    10 basis functions,   100 primitive gaussians,    10 cartesian basis functions
     5 alpha electrons        5 beta electrons
       nuclear repulsion energy        11.0497815674 Hartrees.
 IExCor=    0 DFT=F Ex=HF Corr=None ExCW=0 ScaHFX=  1.000000
 ScaDFX=  1.000000  1.000000  1.000000  1.000000 ScalE2=  1.000000  1.000000
 IRadAn=      0 IRanWt=     -1 IRanGd=            0 ICorTp=0 IEmpDi=  4
 NAtoms=   10 NActive=   10 NUniq=    5 SFac= 4.00D+00 NAtFMM=   60 NAOKFM=F Big=F
 Integral buffers will be    131072 words long.
 Raffenetti 2 integral format.
 Two-electron integral symmetry is turned on.
 Leave Link  301 at Fri Feb 24 16:25:04 2017, MaxMem=   134217728 cpu:         0.0
 (Enter /projects/guscus/apps/gau/g09-e1/g09/l302.exe)
 NPDir=0 NMtPBC=     1 NCelOv=     1 NCel=       1 NClECP=     1 NCelD=      1
         NCelK=      1 NCelE2=     1 NClLst=     1 CellRange=     0.0.
 One-electron integrals computed using PRISM.
 One-electron integral symmetry used in STVInt
 NBasis=    10 RedAO= T EigKep=  1.62D-01  NBF=     5     0     0     5
 NBsUse=    10 1.00D-06 EigRej= -1.00D+00 NBFU=     5     0     0     5
 Leave Link  302 at Fri Feb 24 16:25:05 2017, MaxMem=   134217728 cpu:         0.0
 (Enter /projects/guscus/apps/gau/g09-e1/g09/l303.exe)
 DipDrv:  MaxL=1.
 Leave Link  303 at Fri Feb 24 16:25:05 2017, MaxMem=   134217728 cpu:         0.0
 (Enter /projects/guscus/apps/gau/g09-e1/g09/l401.exe)
 Initial guess from the checkpoint file:  "h10.chk"
 B after Tr=     0.000000   -0.000000    0.000000
         Rot=    0.999995    0.000000    0.000000   -0.003103 Ang=  -0.36 deg.
 Guess basis will be translated and rotated to current coordinates.
 JPrj=2 DoOrth=T DoCkMO=T.
 Initial guess orbital symmetries:
 Alpha Orbitals:
       Occupied  (BG) (BG) (BG) (BG) (BG)
       Virtual   (BG) (BG) (BG) (BG) (BG)
 Beta  Orbitals:
       Occupied  (BG) (BG) (BG) (BG) (BG)
       Virtual   (BG) (BG) (BG) (BG) (BG)
 Initial guess <Sx>= 0.0000 <Sy>= 0.0000 <Sz>= 0.0000 <S**2>= 1.0000 S= 0.6180
 Leave Link  401 at Fri Feb 24 16:25:05 2017, MaxMem=   134217728 cpu:         0.1
 (Enter /projects/guscus/apps/gau/g09-e1/g09/l502.exe)
 UHF open shell SCF:
 Using DIIS extrapolation, IDIIS=  1040.
 Integral symmetry usage will be decided dynamically.
 Keep R1 and R2 ints in memory in symmetry-blocked form, NReq=874455.
 IVT=       20217 IEndB=       20217 NGot=   134217728 MDV=   134195632
 LenX=   134195632 LenY=   134194750
 Requested convergence on RMS density matrix=1.00D-08 within 128 cycles.
 Requested convergence on MAX density matrix=1.00D-06.
 Requested convergence on             energy=1.00D-06.
 No special actions if energy rises.
 FoFCou: FMM=F IPFlag=           0 FMFlag=           0 FMFlg1=           0
         NFxFlg=           0 DoJE=F BraDBF=F KetDBF=F FulRan=T
         wScrn=  0.000000 ICntrl=     600 IOpCl=  0 I1Cent=           0 NGrid=           0
         NMat0=    1 NMatS0=     55 NMatT0=    0 NMatD0=    1 NMtDS0=    0 NMtDT0=    0
 Petite list used in FoFCou.
 An orbital has undefined symmetry, so N**3 symmetry is turned off.

 Cycle   1  Pass 1  IDiag  1:
 Density matrix breaks symmetry, PCut= 1.00D-04
 Density matrix has no symmetry -- integrals replicated.
 E= -5.19301318326799    
 DIIS: error= 3.61D-04 at cycle   1 NSaved=   1.
 NSaved= 1 IEnMin= 1 EnMin= -5.19301318326799     IErMin= 1 ErrMin= 3.61D-04
 ErrMax= 3.61D-04  0.00D+00 EMaxC= 1.00D-01 BMatC= 1.21D-05 BMatP= 1.21D-05
 IDIUse=3 WtCom= 9.96D-01 WtEn= 3.61D-03
 Coeff-Com:  0.100D+01
 Coeff-En:   0.100D+01
 Coeff:      0.100D+01
 Gap=     0.607 Goal=   None    Shift=    0.000
 Gap=     0.607 Goal=   None    Shift=    0.000
 RMSDP=4.46D-04 MaxDP=1.03D-03              OVMax= 0.00D+00

 Cycle   2  Pass 1  IDiag  1:
 Density matrix breaks symmetry, PCut= 1.00D-07
 Density matrix has no symmetry -- integrals replicated.
 E= -5.19302298943578     Delta-E=       -0.000009806168 Rises=F Damp=F
 DIIS: error= 1.06D-04 at cycle   2 NSaved=   2.
 NSaved= 2 IEnMin= 2 EnMin= -5.19302298943578     IErMin= 2 ErrMin= 1.06D-04
 ErrMax= 1.06D-04  0.00D+00 EMaxC= 1.00D-01 BMatC= 1.22D-06 BMatP= 1.21D-05
 IDIUse=3 WtCom= 9.99D-01 WtEn= 1.06D-03
 Coeff-Com: -0.418D+00 0.142D+01
 Coeff-En:   0.000D+00 0.100D+01
 Coeff:     -0.418D+00 0.142D+01
 Gap=     0.607 Goal=   None    Shift=    0.000
 Gap=     0.607 Goal=   None    Shift=    0.000
 RMSDP=1.83D-04 MaxDP=5.34D-04 DE=-9.81D-06 OVMax= 0.00D+00

 Cycle   3  Pass 1  IDiag  1:
 Density matrix breaks symmetry, PCut= 1.00D-07
 Density matrix has no symmetry -- integrals replicated.
 E= -5.19302417569858     Delta-E=       -0.000001186263 Rises=F Damp=F
 DIIS: error= 1.34D-05 at cycle   3 NSaved=   3.
 NSaved= 3 IEnMin= 3 EnMin= -5.19302417569858     IErMin= 3 ErrMin= 1.34D-05
 ErrMax= 1.34D-05  0.00D+00 EMaxC= 1.00D-01 BMatC= 2.59D-08 BMatP= 1.22D-06
 IDIUse=1 WtCom= 1.00D+00 WtEn= 0.00D+00
 Coeff-Com:  0.162D+00-0.594D+00 0.143D+01
 Coeff:      0.162D+00-0.594D+00 0.143D+01
 Gap=     0.607 Goal=   None    Shift=    0.000
 Gap=     0.607 Goal=   None    Shift=    0.000
 RMSDP=2.68D-05 MaxDP=9.16D-05 DE=-1.19D-06 OVMax= 0.00D+00

 Cycle   4  Pass 1  IDiag  1:
 Density matrix breaks symmetry, PCut= 1.00D-07
 Density matrix has no symmetry -- integrals replicated.
 E= -5.19302420202323     Delta-E=       -0.000000026325 Rises=F Damp=F
 DIIS: error= 6.99D-06 at cycle   4 NSaved=   4.
 NSaved= 4 IEnMin= 4 EnMin= -5.19302420202323     IErMin= 4 ErrMin= 6.99D-06
 ErrMax= 6.99D-06  0.00D+00 EMaxC= 1.00D-01 BMatC= 3.85D-09 BMatP= 2.59D-08
 IDIUse=1 WtCom= 1.00D+00 WtEn= 0.00D+00
 Coeff-Com: -0.177D+00 0.655D+00-0.172D+01 0.225D+01
 Coeff:     -0.177D+00 0.655D+00-0.172D+01 0.225D+01
 Gap=     0.607 Goal=   None    Shift=    0.000
 Gap=     0.607 Goal=   None    Shift=    0.000
 RMSDP=1.93D-05 MaxDP=6.91D-05 DE=-2.63D-08 OVMax= 0.00D+00

 Cycle   5  Pass 1  IDiag  1:
 Density matrix breaks symmetry, PCut= 1.00D-07
 Density matrix has no symmetry -- integrals replicated.
 E= -5.19302420779291     Delta-E=       -0.000000005770 Rises=F Damp=F
 DIIS: error= 2.11D-06 at cycle   5 NSaved=   5.
 NSaved= 5 IEnMin= 5 EnMin= -5.19302420779291     IErMin= 5 ErrMin= 2.11D-06
 ErrMax= 2.11D-06  0.00D+00 EMaxC= 1.00D-01 BMatC= 3.98D-10 BMatP= 3.85D-09
 IDIUse=1 WtCom= 1.00D+00 WtEn= 0.00D+00
 Coeff-Com:  0.659D-01-0.244D+00 0.670D+00-0.126D+01 0.177D+01
 Coeff:      0.659D-01-0.244D+00 0.670D+00-0.126D+01 0.177D+01
 Gap=     0.607 Goal=   None    Shift=    0.000
 Gap=     0.607 Goal=   None    Shift=    0.000
 RMSDP=8.59D-06 MaxDP=3.13D-05 DE=-5.77D-09 OVMax= 0.00D+00

 Cycle   6  Pass 1  IDiag  1:
 Density matrix breaks symmetry, PCut= 1.00D-07
 Density matrix has no symmetry -- integrals replicated.
 E= -5.19302420842462     Delta-E=       -0.000000000632 Rises=F Damp=F
 DIIS: error= 7.28D-08 at cycle   6 NSaved=   6.
 NSaved= 6 IEnMin= 6 EnMin= -5.19302420842462     IErMin= 6 ErrMin= 7.28D-08
 ErrMax= 7.28D-08  0.00D+00 EMaxC= 1.00D-01 BMatC= 5.42D-13 BMatP= 3.98D-10
 IDIUse=1 WtCom= 1.00D+00 WtEn= 0.00D+00
 Coeff-Com: -0.155D-01 0.576D-01-0.158D+00 0.305D+00-0.448D+00 0.126D+01
 Coeff:     -0.155D-01 0.576D-01-0.158D+00 0.305D+00-0.448D+00 0.126D+01
 Gap=     0.607 Goal=   None    Shift=    0.000
 Gap=     0.607 Goal=   None    Shift=    0.000
 RMSDP=1.75D-07 MaxDP=6.22D-07 DE=-6.32D-10 OVMax= 0.00D+00

 Cycle   7  Pass 1  IDiag  1:
 Density matrix breaks symmetry, PCut= 1.00D-07
 Density matrix has no symmetry -- integrals replicated.
 E= -5.19302420842510     Delta-E=       -0.000000000000 Rises=F Damp=F
 DIIS: error= 1.23D-08 at cycle   7 NSaved=   7.
 NSaved= 7 IEnMin= 7 EnMin= -5.19302420842510     IErMin= 7 ErrMin= 1.23D-08
 ErrMax= 1.23D-08  0.00D+00 EMaxC= 1.00D-01 BMatC= 1.39D-14 BMatP= 5.42D-13
 IDIUse=1 WtCom= 1.00D+00 WtEn= 0.00D+00
 Coeff-Com:  0.452D-02-0.168D-01 0.461D-01-0.892D-01 0.132D+00-0.428D+00
 Coeff-Com:  0.135D+01
 Coeff:      0.452D-02-0.168D-01 0.461D-01-0.892D-01 0.132D+00-0.428D+00
 Coeff:      0.135D+01
 Gap=     0.607 Goal=   None    Shift=    0.000
 Gap=     0.607 Goal=   None    Shift=    0.000
 RMSDP=2.50D-08 MaxDP=1.15D-07 DE=-4.83D-13 OVMax= 0.00D+00

 Cycle   8  Pass 1  IDiag  1:
 Density matrix breaks symmetry, PCut= 1.00D-07
 Density matrix has no symmetry -- integrals replicated.
 E= -5.19302420842512     Delta-E=       -0.000000000000 Rises=F Damp=F
 DIIS: error= 6.20D-09 at cycle   8 NSaved=   8.
 NSaved= 8 IEnMin= 8 EnMin= -5.19302420842512     IErMin= 8 ErrMin= 6.20D-09
 ErrMax= 6.20D-09  0.00D+00 EMaxC= 1.00D-01 BMatC= 2.46D-15 BMatP= 1.39D-14
 IDIUse=1 WtCom= 1.00D+00 WtEn= 0.00D+00
 Coeff-Com: -0.390D-02 0.145D-01-0.399D-01 0.772D-01-0.114D+00 0.379D+00
 Coeff-Com: -0.142D+01 0.211D+01
 Coeff:     -0.390D-02 0.145D-01-0.399D-01 0.772D-01-0.114D+00 0.379D+00
 Coeff:     -0.142D+01 0.211D+01
 Gap=     0.607 Goal=   None    Shift=    0.000
 Gap=     0.607 Goal=   None    Shift=    0.000
 RMSDP=1.36D-08 MaxDP=5.15D-08 DE=-1.42D-14 OVMax= 0.00D+00

 Cycle   9  Pass 1  IDiag  1:
 Density matrix breaks symmetry, PCut= 1.00D-07
 Density matrix has no symmetry -- integrals replicated.
 E= -5.19302420842511     Delta-E=        0.000000000000 Rises=F Damp=F
 DIIS: error= 1.73D-09 at cycle   9 NSaved=   9.
 NSaved= 9 IEnMin= 8 EnMin= -5.19302420842512     IErMin= 9 ErrMin= 1.73D-09
 ErrMax= 1.73D-09  0.00D+00 EMaxC= 1.00D-01 BMatC= 2.25D-16 BMatP= 2.46D-15
 IDIUse=1 WtCom= 1.00D+00 WtEn= 0.00D+00
 Coeff-Com:  0.169D-02-0.628D-02 0.173D-01-0.335D-01 0.495D-01-0.167D+00
 Coeff-Com:  0.652D+00-0.129D+01 0.177D+01
 Coeff:      0.169D-02-0.628D-02 0.173D-01-0.335D-01 0.495D-01-0.167D+00
 Coeff:      0.652D+00-0.129D+01 0.177D+01
 Gap=     0.607 Goal=   None    Shift=    0.000
 Gap=     0.607 Goal=   None    Shift=    0.000
 RMSDP=5.66D-09 MaxDP=2.15D-08 DE= 7.11D-15 OVMax= 0.00D+00

 Density matrix breaks symmetry, PCut= 1.00D-07
 Density matrix has no symmetry -- integrals replicated.
 SCF Done:  E(UHF) =  -5.19302420843     A.U. after    9 cycles
            NFock=  9  Conv=0.57D-08     -V/T= 2.0142
 <Sx>= 0.0000 <Sy>= 0.0000 <Sz>= 0.0000 <S**2>= 1.0000 S= 0.6180
 <L.S>= 0.000000000000E+00
 KE= 5.120205220417D+00 PE=-3.156317796225D+01 EE= 1.020016696603D+01
 Annihilation of the first spin contaminant:
 S**2 before annihilation     1.0000,   after     0.0003
 Leave Link  502 at Fri Feb 24 16:25:05 2017, MaxMem=   134217728 cpu:         0.1
 (Enter /projects/guscus/apps/gau/g09-e1/g09/l601.exe)
 Copying SCF densities to generalized density rwf, IOpCl= 1 IROHF=0.

 **********************************************************************

            Population analysis using the SCF density.

 **********************************************************************

 Orbital symmetries:
 Alpha Orbitals:
       Occupied  (BG) (BG) (BG) (BG) (BG)
       Virtual   (BG) (BG) (BG) (BG) (BG)
 Beta  Orbitals:
       Occupied  (BG) (BG) (BG) (BG) (BG)
       Virtual   (BG) (BG) (BG) (BG) (BG)
 Unable to determine electronic state:  partially filled degenerate orbitals.
 Alpha  occ. eigenvalues --   -0.74304  -0.69704  -0.62040  -0.52563  -0.43522
 Alpha virt. eigenvalues --    0.17172   0.27697   0.37153   0.51593   0.66023
  Beta  occ. eigenvalues --   -0.74304  -0.69704  -0.62040  -0.52563  -0.43522
  Beta virt. eigenvalues --    0.17172   0.27697   0.37153   0.51593   0.66023
          Condensed to atoms (all electrons):
               1          2          3          4          5          6
     1  H    0.685007  -0.069071  -0.077633   0.523570   0.002162  -0.061831
     2  H   -0.069071   1.137872   0.001028  -0.065868   0.000002   0.001787
     3  H   -0.077633   0.001028   0.726625  -0.068289  -0.080521   0.558506
     4  H    0.523570  -0.065868  -0.068289   0.675012   0.001654  -0.075341
     5  H    0.002162   0.000002  -0.080521   0.001654   0.724534  -0.073132
     6  H   -0.061831   0.001787   0.558506  -0.075341  -0.073132   0.724534
     7  H   -0.000025  -0.000000   0.002021  -0.000010  -0.075341   0.001654
     8  H    0.001963  -0.000015  -0.064073   0.002021   0.558506  -0.080521
     9  H   -0.000000   0.000000  -0.000015  -0.000000   0.001787   0.000002
    10  H   -0.000031  -0.000000   0.001963  -0.000025  -0.061831   0.002162
               7          8          9         10
     1  H   -0.000025   0.001963  -0.000000  -0.000031
     2  H   -0.000000  -0.000015   0.000000  -0.000000
     3  H    0.002021  -0.064073  -0.000015   0.001963
     4  H   -0.000010   0.002021  -0.000000  -0.000025
     5  H   -0.075341   0.558506   0.001787  -0.061831
     6  H    0.001654  -0.080521   0.000002   0.002162
     7  H    0.675012  -0.068289  -0.065868   0.523570
     8  H   -0.068289   0.726625   0.001028  -0.077633
     9  H   -0.065868   0.001028   1.137872  -0.069071
    10  H    0.523570  -0.077633  -0.069071   0.685007
          Atomic-Atomic Spin Densities.
               1          2          3          4          5          6
     1  H    0.053739  -0.075515  -0.003378   0.036179   0.000105  -0.004478
     2  H   -0.075515   1.136206   0.002337  -0.071953  -0.000045   0.002945
     3  H   -0.003378   0.002337  -0.003069  -0.002781   0.000843   0.002793
     4  H    0.036179  -0.071953  -0.002781   0.040280   0.000103  -0.005347
     5  H    0.000105  -0.000045   0.000843   0.000103  -0.010834   0.000000
     6  H   -0.004478   0.002945   0.002793  -0.005347   0.000000   0.010834
     7  H    0.000001   0.000001  -0.000167   0.000000   0.005347  -0.000103
     8  H    0.000139  -0.000056   0.000000   0.000167  -0.002793  -0.000843
     9  H   -0.000001   0.000000   0.000056  -0.000001  -0.002945   0.000045
    10  H   -0.000000   0.000001  -0.000139  -0.000001   0.004478  -0.000105
               7          8          9         10
     1  H    0.000001   0.000139  -0.000001  -0.000000
     2  H    0.000001  -0.000056   0.000000   0.000001
     3  H   -0.000167   0.000000   0.000056  -0.000139
     4  H    0.000000   0.000167  -0.000001  -0.000001
     5  H    0.005347  -0.002793  -0.002945   0.004478
     6  H   -0.000103  -0.000843   0.000045  -0.000105
     7  H   -0.040280   0.002781   0.071953  -0.036179
     8  H    0.002781   0.003069  -0.002337   0.003378
     9  H    0.071953  -0.002337  -1.136206   0.075515
    10  H   -0.036179   0.003378   0.075515  -0.053739
 Mulliken charges and spin densities:
               1          2
     1  H   -0.004112   0.006792
     2  H   -0.005735   0.993921
     3  H    0.000389  -0.003506
     4  H    0.007277  -0.003353
     5  H    0.002180  -0.005740
     6  H    0.002180   0.005740
     7  H    0.007277   0.003353
     8  H    0.000389   0.003506
     9  H   -0.005735  -0.993921
    10  H   -0.004112  -0.006792
 Sum of Mulliken charges =  -0.00000   0.00000
 Mulliken charges and spin densities with hydrogens summed into heavy atoms:
               1          2
 Electronic spatial extent (au):  <R**2>=            256.8595
 Charge=             -0.0000 electrons
 Dipole moment (field-independent basis, Debye):
    X=             -0.0000    Y=              0.0000    Z=             -0.0000  Tot=              0.0000
 Quadrupole moment (field-independent basis, Debye-Ang):
   XX=            -12.2303   YY=            -18.2605   ZZ=            -12.9132
   XY=              2.4540   XZ=              0.0000   YZ=              0.0000
 Traceless Quadrupole moment (field-independent basis, Debye-Ang):
   XX=              2.2377   YY=             -3.7925   ZZ=              1.5548
   XY=              2.4540   XZ=              0.0000   YZ=              0.0000
 Octapole moment (field-independent basis, Debye-Ang**2):
  XXX=             -0.0000  YYY=              0.0000  ZZZ=             -0.0000  XYY=             -0.0000
  XXY=              0.0000  XXZ=             -0.0000  XZZ=             -0.0000  YZZ=              0.0000
  YYZ=             -0.0000  XYZ=              0.0000
 Hexadecapole moment (field-independent basis, Debye-Ang**3):
 XXXX=            -85.6562 YYYY=           -561.6058 ZZZZ=            -15.6201 XXXY=             84.8577
 XXXZ=             -0.0000 YYYX=            129.4652 YYYZ=              0.0000 ZZZX=             -0.0000
 ZZZY=              0.0000 XXYY=           -101.0576 XXZZ=            -17.4448 YYZZ=            -76.4072
 XXYZ=              0.0000 YYXZ=             -0.0000 ZZXY=             28.1940
 N-N= 1.104978156738D+01 E-N=-3.156317796270D+01  KE= 5.120205220417D+00
 Symmetry AG   KE= 2.232043544109D+00
 Symmetry BG   KE= 0.000000000000D+00
 Symmetry AU   KE= 0.000000000000D+00
 Symmetry BU   KE= 2.888161676308D+00
                          Isotropic Fermi Contact Couplings
        Atom                 a.u.       MegaHertz       Gauss      10(-4) cm-1
     1  H(1)               0.01761      39.34935      14.04083      13.12553
     2  H(1)               0.34262     765.73657     273.23384     255.42223
     3  H(1)              -0.00065      -1.45468      -0.51906      -0.48523
     4  H(1)               0.01380      30.83474      11.00260      10.28536
     5  H(1)              -0.00315      -7.04222      -2.51284      -2.34903
     6  H(1)               0.00315       7.04222       2.51284       2.34903
     7  H(1)              -0.01380     -30.83474     -11.00260     -10.28536
     8  H(1)               0.00065       1.45468       0.51906       0.48523
     9  H(1)              -0.34262    -765.73657    -273.23384    -255.42223
    10  H(1)              -0.01761     -39.34935     -14.04083     -13.12553
 --------------------------------------------------------
       Center         ----  Spin Dipole Couplings  ----
                      3XX-RR        3YY-RR        3ZZ-RR
 --------------------------------------------------------
     1   Atom       -0.009163      0.035435     -0.026272
     2   Atom        0.005114     -0.012279      0.007165
     3   Atom       -0.001251      0.006469     -0.005218
     4   Atom        0.000965      0.026806     -0.027772
     5   Atom        0.000823     -0.003706      0.002883
     6   Atom       -0.000823      0.003706     -0.002883
     7   Atom       -0.000965     -0.026806      0.027772
     8   Atom        0.001251     -0.006469      0.005218
     9   Atom       -0.005114      0.012279     -0.007165
    10   Atom        0.009163     -0.035435      0.026272
 --------------------------------------------------------
                        XY            XZ            YZ
 --------------------------------------------------------
     1   Atom        0.000123      0.000000     -0.000000
     2   Atom        0.004085      0.000000      0.000000
     3   Atom       -0.001619      0.000000     -0.000000
     4   Atom       -0.014966      0.000000     -0.000000
     5   Atom        0.004303      0.000000     -0.000000
     6   Atom       -0.004303      0.000000     -0.000000
     7   Atom        0.014966     -0.000000     -0.000000
     8   Atom        0.001619      0.000000     -0.000000
     9   Atom       -0.004085     -0.000000      0.000000
    10   Atom       -0.000123     -0.000000     -0.000000
 --------------------------------------------------------


 ---------------------------------------------------------------------------------
              Anisotropic Spin Dipole Couplings in Principal Axis System
 ---------------------------------------------------------------------------------

       Atom             a.u.   MegaHertz   Gauss  10(-4) cm-1        Axes

              Baa    -0.0263   -14.018    -5.002    -4.676  0.0000  0.0000  1.0000
     1 H(1)   Bbb    -0.0092    -4.889    -1.745    -1.631  1.0000 -0.0027  0.0000
              Bcc     0.0354    18.907     6.746     6.307  0.0027  1.0000  0.0000
 
              Baa    -0.0132    -7.038    -2.511    -2.348 -0.2178  0.9760  0.0000
     2 H(1)   Bbb     0.0060     3.215     1.147     1.072  0.9760  0.2178  0.0000
              Bcc     0.0072     3.823     1.364     1.275  0.0000  0.0000  1.0000
 
              Baa    -0.0052    -2.784    -0.993    -0.929  0.0000  0.0000  1.0000
     3 H(1)   Bbb    -0.0016    -0.842    -0.300    -0.281  0.9803  0.1973  0.0000
              Bcc     0.0068     3.625     1.294     1.209 -0.1973  0.9803  0.0000
 
              Baa    -0.0278   -14.818    -5.287    -4.943  0.0000  0.0000  1.0000
     4 H(1)   Bbb    -0.0059    -3.140    -1.121    -1.047  0.9093  0.4162  0.0000
              Bcc     0.0337    17.958     6.408     5.990 -0.4162  0.9093  0.0000
 
              Baa    -0.0063    -3.363    -1.200    -1.122 -0.5169  0.8561  0.0000
     5 H(1)   Bbb     0.0029     1.538     0.549     0.513  0.0000  0.0000  1.0000
              Bcc     0.0034     1.825     0.651     0.609  0.8561  0.5169  0.0000
 
              Baa    -0.0034    -1.825    -0.651    -0.609  0.8561  0.5169  0.0000
     6 H(1)   Bbb    -0.0029    -1.538    -0.549    -0.513  0.0000  0.0000  1.0000
              Bcc     0.0063     3.363     1.200     1.122 -0.5169  0.8561  0.0000
 
              Baa    -0.0337   -17.958    -6.408    -5.990 -0.4162  0.9093  0.0000
     7 H(1)   Bbb     0.0059     3.140     1.121     1.047  0.9093  0.4162  0.0000
              Bcc     0.0278    14.818     5.287     4.943  0.0000  0.0000  1.0000
 
              Baa    -0.0068    -3.625    -1.294    -1.209 -0.1973  0.9803  0.0000
     8 H(1)   Bbb     0.0016     0.842     0.300     0.281  0.9803  0.1973  0.0000
              Bcc     0.0052     2.784     0.993     0.929  0.0000  0.0000  1.0000
 
              Baa    -0.0072    -3.823    -1.364    -1.275  0.0000  0.0000  1.0000
     9 H(1)   Bbb    -0.0060    -3.215    -1.147    -1.072  0.9760  0.2178  0.0000
              Bcc     0.0132     7.038     2.511     2.348 -0.2178  0.9760  0.0000
 
              Baa    -0.0354   -18.907    -6.746    -6.307  0.0027  1.0000  0.0000
    10 H(1)   Bbb     0.0092     4.889     1.745     1.631  1.0000 -0.0027  0.0000
              Bcc     0.0263    14.018     5.002     4.676  0.0000  0.0000  1.0000
 

 ---------------------------------------------------------------------------------

 No NMR shielding tensors so no spin-rotation constants.
 Leave Link  601 at Fri Feb 24 16:25:05 2017, MaxMem=   134217728 cpu:         0.1
 (Enter /projects/guscus/apps/gau/g09-e1/g09/l801.exe)
 Range of M.O.s used for correlation:     1    10
 NBasis=    10 NAE=     5 NBE=     5 NFC=     0 NFV=     0
 NROrb=     10 NOA=     5 NOB=     5 NVA=     5 NVB=     5
 Leave Link  801 at Fri Feb 24 16:25:05 2017, MaxMem=   134217728 cpu:         0.0
 (Enter /projects/guscus/apps/gau/g09-e1/g09/l914.exe)
 UHF ground state
 Doing stability rather than CIS.
 MDV=   134217728 DFT=F DoStab=T Mixed=F DoRPA=F DoScal=F NonHer=F
 Keep R1 and R2 ints in memory in symmetry-blocked form, NReq=802982.
 FoFCou: FMM=F IPFlag=           0 FMFlag=           0 FMFlg1=           0
         NFxFlg=           0 DoJE=F BraDBF=F KetDBF=F FulRan=T
         wScrn=  0.000000 ICntrl=     600 IOpCl=  0 I1Cent=           0 NGrid=           0
         NMat0=    1 NMatS0=     55 NMatT0=    0 NMatD0=    1 NMtDS0=    0 NMtDT0=    0
 Petite list used in FoFCou.
 Making orbital integer symmetry assigments:
 Orbital symmetries:
 Alpha Orbitals:
       Occupied  (BG) (BG) (BG) (BG) (BG)
       Virtual   (BG) (BG) (BG) (BG) (BG)
 Beta  Orbitals:
       Occupied  (BG) (BG) (BG) (BG) (BG)
       Virtual   (BG) (BG) (BG) (BG) (BG)
    12 initial guesses have been made.
 Convergence on wavefunction:    0.001000000000000
 Davidson Disk Diagonalization:  ConvIn= 1.00D-03 SkipCon=T Conv= 1.00D-03.
 Max sub-space:   200 roots to seek:    12 dimension of matrix:           50
 Iteration     1 Dimension    12 NMult     0 NNew     12
 CISAX will form    12 AO SS matrices at one time.
 NMat=    12 NSing=    12 JSym2X= 2.
 New state      1 was old state      8
 Excitation Energies [eV] at current iteration:
 Root      1 :    10.968482156044920
 Root      2 :    12.701080609599280
 Root      3 :    13.325518640270220
 Root      4 :    13.597755795688330
 Root      5 :    14.806946037430510
 Root      6 :    14.959421922409120
 Root      7 :    14.978988090200500
 Root      8 :    15.678135815516760
 Root      9 :    17.511991753332880
 Root     10 :    17.629298074043850
 Root     11 :    17.793093048560880
 Root     12 :    18.277342255336830
 Iteration     2 Dimension    24 NMult    12 NNew     12
 CISAX will form    12 AO SS matrices at one time.
 NMat=    12 NSing=    12 JSym2X= 2.
 Root      1 not converged, maximum delta is    0.220259432082061
 Excitation Energies [eV] at current iteration:
 Root      1 :     6.869660010055640   Change is   -4.098822145989280
 Root      2 :     8.360115965975252   Change is   -4.340964643624024
 Root      3 :    11.407434310313470   Change is   -3.399511727117043
 Root      4 :    12.646170872045440   Change is   -0.679347768224778
 Root      5 :    12.735261663625670   Change is   -0.862494132062661
 Root      6 :    14.249154125655880   Change is   -1.428981689860880
 Root      7 :    14.705773185046080   Change is   -0.253648737363043
 Root      8 :    14.721344914871940   Change is   -0.257643175328555
 Root      9 :    15.768144786985590   Change is   -1.743846966347295
 Root     10 :    15.967000597515880   Change is   -1.662297476527967
 Root     11 :    16.875378057013080   Change is   -0.917714991547799
 Root     12 :    17.213037350585160   Change is   -1.064304904751664
 Iteration     3 Dimension    27 NMult    24 NNew      3
 CISAX will form     3 AO SS matrices at one time.
 NMat=     3 NSing=     3 JSym2X= 2.
 Root      1 not converged, maximum delta is    0.029802505943399
 Excitation Energies [eV] at current iteration:
 Root      1 :     6.778365643724529   Change is   -0.091294366331112
 Root      2 :     7.709333031837137   Change is   -0.650782934138116
 Root      3 :     8.680212905316626   Change is   -2.727221404996840
 Iteration     4 Dimension    30 NMult    27 NNew      3
 CISAX will form     3 AO SS matrices at one time.
 NMat=     3 NSing=     3 JSym2X= 2.
 Root      1 not converged, maximum delta is    0.001737802206052
 Excitation Energies [eV] at current iteration:
 Root      1 :     6.777942577400799   Change is   -0.000423066323730
 Root      2 :     7.702420625199211   Change is   -0.006912406637926
 Root      3 :     8.666174781427543   Change is   -0.014038123889082
 Iteration     5 Dimension    33 NMult    30 NNew      3
 CISAX will form     3 AO SS matrices at one time.
 NMat=     3 NSing=     3 JSym2X= 2.
 Root      1 has converged.
 Excitation Energies [eV] at current iteration:
 Root      1 :     6.777936771694520   Change is   -0.000005805706279
 Root      2 :     7.699180487554117   Change is   -0.003240137645094
 Root      3 :     8.665719011847928   Change is   -0.000455769579616
 Convergence achieved on expansion vectors.
 ***********************************************************************
 Stability analysis using <AA,BB:AA,BB> singles matrix:
 ***********************************************************************

 Eigenvectors of the stability matrix:
 
 Eigenvector   1:  3.558-AG   Eigenvalue= 0.2490846  <S**2>=2.915
      1A -> 10A       -0.17760
      2A ->  9A       -0.16093
      3A ->  8A       -0.22609
      4A ->  7A        0.47482
      4A ->  9A        0.10309
      5A ->  7A       -0.32912
      1B -> 10B        0.17760
      2B ->  9B        0.16093
      3B ->  8B        0.22609
      4B ->  7B       -0.47482
      4B ->  9B       -0.10309
      5B ->  7B        0.32912
 SavETr:  write IOETrn=   770 NScale= 10 NData=  16 NLR=1 NState=    1 LETran=      28.
 The wavefunction is stable under the perturbations considered.
 Leave Link  914 at Fri Feb 24 16:25:06 2017, MaxMem=   134217728 cpu:         0.1
 (Enter /projects/guscus/apps/gau/g09-e1/g09/l508.exe)
 The wavefunction is already stable.
 Leave Link  508 at Fri Feb 24 16:25:06 2017, MaxMem=   134217728 cpu:         0.0
 (Enter /projects/guscus/apps/gau/g09-e1/g09/l601.exe)
 Copying SCF densities to generalized density rwf, IOpCl= 1 IROHF=0.

 **********************************************************************

            Population analysis using the SCF density.

 **********************************************************************

 Orbital symmetries:
 Alpha Orbitals:
       Occupied  (BG) (BG) (BG) (BG) (BG)
       Virtual   (BG) (BG) (BG) (BG) (BG)
 Beta  Orbitals:
       Occupied  (BG) (BG) (BG) (BG) (BG)
       Virtual   (BG) (BG) (BG) (BG) (BG)
 Unable to determine electronic state:  partially filled degenerate orbitals.
 Alpha  occ. eigenvalues --   -0.74304  -0.69704  -0.62040  -0.52563  -0.43522
 Alpha virt. eigenvalues --    0.17172   0.27697   0.37153   0.51593   0.66023
  Beta  occ. eigenvalues --   -0.74304  -0.69704  -0.62040  -0.52563  -0.43522
  Beta virt. eigenvalues --    0.17172   0.27697   0.37153   0.51593   0.66023
          Condensed to atoms (all electrons):
               1          2          3          4          5          6
     1  H    0.685007  -0.069071  -0.077633   0.523570   0.002162  -0.061831
     2  H   -0.069071   1.137872   0.001028  -0.065868   0.000002   0.001787
     3  H   -0.077633   0.001028   0.726625  -0.068289  -0.080521   0.558506
     4  H    0.523570  -0.065868  -0.068289   0.675012   0.001654  -0.075341
     5  H    0.002162   0.000002  -0.080521   0.001654   0.724534  -0.073132
     6  H   -0.061831   0.001787   0.558506  -0.075341  -0.073132   0.724534
     7  H   -0.000025  -0.000000   0.002021  -0.000010  -0.075341   0.001654
     8  H    0.001963  -0.000015  -0.064073   0.002021   0.558506  -0.080521
     9  H   -0.000000   0.000000  -0.000015  -0.000000   0.001787   0.000002
    10  H   -0.000031  -0.000000   0.001963  -0.000025  -0.061831   0.002162
               7          8          9         10
     1  H   -0.000025   0.001963  -0.000000  -0.000031
     2  H   -0.000000  -0.000015   0.000000  -0.000000
     3  H    0.002021  -0.064073  -0.000015   0.001963
     4  H   -0.000010   0.002021  -0.000000  -0.000025
     5  H   -0.075341   0.558506   0.001787  -0.061831
     6  H    0.001654  -0.080521   0.000002   0.002162
     7  H    0.675012  -0.068289  -0.065868   0.523570
     8  H   -0.068289   0.726625   0.001028  -0.077633
     9  H   -0.065868   0.001028   1.137872  -0.069071
    10  H    0.523570  -0.077633  -0.069071   0.685007
          Atomic-Atomic Spin Densities.
               1          2          3          4          5          6
     1  H    0.053739  -0.075515  -0.003378   0.036179   0.000105  -0.004478
     2  H   -0.075515   1.136206   0.002337  -0.071953  -0.000045   0.002945
     3  H   -0.003378   0.002337  -0.003069  -0.002781   0.000843   0.002793
     4  H    0.036179  -0.071953  -0.002781   0.040280   0.000103  -0.005347
     5  H    0.000105  -0.000045   0.000843   0.000103  -0.010834   0.000000
     6  H   -0.004478   0.002945   0.002793  -0.005347   0.000000   0.010834
     7  H    0.000001   0.000001  -0.000167   0.000000   0.005347  -0.000103
     8  H    0.000139  -0.000056   0.000000   0.000167  -0.002793  -0.000843
     9  H   -0.000001   0.000000   0.000056  -0.000001  -0.002945   0.000045
    10  H   -0.000000   0.000001  -0.000139  -0.000001   0.004478  -0.000105
               7          8          9         10
     1  H    0.000001   0.000139  -0.000001  -0.000000
     2  H    0.000001  -0.000056   0.000000   0.000001
     3  H   -0.000167   0.000000   0.000056  -0.000139
     4  H    0.000000   0.000167  -0.000001  -0.000001
     5  H    0.005347  -0.002793  -0.002945   0.004478
     6  H   -0.000103  -0.000843   0.000045  -0.000105
     7  H   -0.040280   0.002781   0.071953  -0.036179
     8  H    0.002781   0.003069  -0.002337   0.003378
     9  H    0.071953  -0.002337  -1.136206   0.075515
    10  H   -0.036179   0.003378   0.075515  -0.053739
 Mulliken charges and spin densities:
               1          2
     1  H   -0.004112   0.006792
     2  H   -0.005735   0.993921
     3  H    0.000389  -0.003506
     4  H    0.007277  -0.003353
     5  H    0.002180  -0.005740
     6  H    0.002180   0.005740
     7  H    0.007277   0.003353
     8  H    0.000389   0.003506
     9  H   -0.005735  -0.993921
    10  H   -0.004112  -0.006792
 Sum of Mulliken charges =  -0.00000   0.00000
 Mulliken charges and spin densities with hydrogens summed into heavy atoms:
               1          2
 Electronic spatial extent (au):  <R**2>=            256.8595
 Charge=             -0.0000 electrons
 Dipole moment (field-independent basis, Debye):
    X=             -0.0000    Y=              0.0000    Z=             -0.0000  Tot=              0.0000
 Quadrupole moment (field-independent basis, Debye-Ang):
   XX=            -12.2303   YY=            -18.2605   ZZ=            -12.9132
   XY=              2.4540   XZ=              0.0000   YZ=              0.0000
 Traceless Quadrupole moment (field-independent basis, Debye-Ang):
   XX=              2.2377   YY=             -3.7925   ZZ=              1.5548
   XY=              2.4540   XZ=              0.0000   YZ=              0.0000
 Octapole moment (field-independent basis, Debye-Ang**2):
  XXX=             -0.0000  YYY=              0.0000  ZZZ=             -0.0000  XYY=             -0.0000
  XXY=              0.0000  XXZ=             -0.0000  XZZ=             -0.0000  YZZ=              0.0000
  YYZ=             -0.0000  XYZ=              0.0000
 Hexadecapole moment (field-independent basis, Debye-Ang**3):
 XXXX=            -85.6562 YYYY=           -561.6058 ZZZZ=            -15.6201 XXXY=             84.8577
 XXXZ=             -0.0000 YYYX=            129.4652 YYYZ=              0.0000 ZZZX=             -0.0000
 ZZZY=              0.0000 XXYY=           -101.0576 XXZZ=            -17.4448 YYZZ=            -76.4072
 XXYZ=              0.0000 YYXZ=             -0.0000 ZZXY=             28.1940
 N-N= 1.104978156738D+01 E-N=-3.156317796270D+01  KE= 5.120205220417D+00
 Symmetry AG   KE= 2.232043544109D+00
 Symmetry BG   KE= 0.000000000000D+00
 Symmetry AU   KE= 0.000000000000D+00
 Symmetry BU   KE= 2.888161676308D+00
                          Isotropic Fermi Contact Couplings
        Atom                 a.u.       MegaHertz       Gauss      10(-4) cm-1
     1  H(1)               0.01761      39.34935      14.04083      13.12553
     2  H(1)               0.34262     765.73657     273.23384     255.42223
     3  H(1)              -0.00065      -1.45468      -0.51906      -0.48523
     4  H(1)               0.01380      30.83474      11.00260      10.28536
     5  H(1)              -0.00315      -7.04222      -2.51284      -2.34903
     6  H(1)               0.00315       7.04222       2.51284       2.34903
     7  H(1)              -0.01380     -30.83474     -11.00260     -10.28536
     8  H(1)               0.00065       1.45468       0.51906       0.48523
     9  H(1)              -0.34262    -765.73657    -273.23384    -255.42223
    10  H(1)              -0.01761     -39.34935     -14.04083     -13.12553
 --------------------------------------------------------
       Center         ----  Spin Dipole Couplings  ----
                      3XX-RR        3YY-RR        3ZZ-RR
 --------------------------------------------------------
     1   Atom       -0.009163      0.035435     -0.026272
     2   Atom        0.005114     -0.012279      0.007165
     3   Atom       -0.001251      0.006469     -0.005218
     4   Atom        0.000965      0.026806     -0.027772
     5   Atom        0.000823     -0.003706      0.002883
     6   Atom       -0.000823      0.003706     -0.002883
     7   Atom       -0.000965     -0.026806      0.027772
     8   Atom        0.001251     -0.006469      0.005218
     9   Atom       -0.005114      0.012279     -0.007165
    10   Atom        0.009163     -0.035435      0.026272
 --------------------------------------------------------
                        XY            XZ            YZ
 --------------------------------------------------------
     1   Atom        0.000123      0.000000     -0.000000
     2   Atom        0.004085      0.000000      0.000000
     3   Atom       -0.001619      0.000000     -0.000000
     4   Atom       -0.014966      0.000000     -0.000000
     5   Atom        0.004303      0.000000     -0.000000
     6   Atom       -0.004303      0.000000     -0.000000
     7   Atom        0.014966     -0.000000     -0.000000
     8   Atom        0.001619      0.000000     -0.000000
     9   Atom       -0.004085     -0.000000      0.000000
    10   Atom       -0.000123     -0.000000     -0.000000
 --------------------------------------------------------


 ---------------------------------------------------------------------------------
              Anisotropic Spin Dipole Couplings in Principal Axis System
 ---------------------------------------------------------------------------------

       Atom             a.u.   MegaHertz   Gauss  10(-4) cm-1        Axes

              Baa    -0.0263   -14.018    -5.002    -4.676  0.0000  0.0000  1.0000
     1 H(1)   Bbb    -0.0092    -4.889    -1.745    -1.631  1.0000 -0.0027  0.0000
              Bcc     0.0354    18.907     6.746     6.307  0.0027  1.0000  0.0000
 
              Baa    -0.0132    -7.038    -2.511    -2.348 -0.2178  0.9760  0.0000
     2 H(1)   Bbb     0.0060     3.215     1.147     1.072  0.9760  0.2178  0.0000
              Bcc     0.0072     3.823     1.364     1.275  0.0000  0.0000  1.0000
 
              Baa    -0.0052    -2.784    -0.993    -0.929  0.0000  0.0000  1.0000
     3 H(1)   Bbb    -0.0016    -0.842    -0.300    -0.281  0.9803  0.1973  0.0000
              Bcc     0.0068     3.625     1.294     1.209 -0.1973  0.9803  0.0000
 
              Baa    -0.0278   -14.818    -5.287    -4.943  0.0000  0.0000  1.0000
     4 H(1)   Bbb    -0.0059    -3.140    -1.121    -1.047  0.9093  0.4162  0.0000
              Bcc     0.0337    17.958     6.408     5.990 -0.4162  0.9093  0.0000
 
              Baa    -0.0063    -3.363    -1.200    -1.122 -0.5169  0.8561  0.0000
     5 H(1)   Bbb     0.0029     1.538     0.549     0.513  0.0000  0.0000  1.0000
              Bcc     0.0034     1.825     0.651     0.609  0.8561  0.5169  0.0000
 
              Baa    -0.0034    -1.825    -0.651    -0.609  0.8561  0.5169  0.0000
     6 H(1)   Bbb    -0.0029    -1.538    -0.549    -0.513  0.0000  0.0000  1.0000
              Bcc     0.0063     3.363     1.200     1.122 -0.5169  0.8561  0.0000
 
              Baa    -0.0337   -17.958    -6.408    -5.990 -0.4162  0.9093  0.0000
     7 H(1)   Bbb     0.0059     3.140     1.121     1.047  0.9093  0.4162  0.0000
              Bcc     0.0278    14.818     5.287     4.943  0.0000  0.0000  1.0000
 
              Baa    -0.0068    -3.625    -1.294    -1.209 -0.1973  0.9803  0.0000
     8 H(1)   Bbb     0.0016     0.842     0.300     0.281  0.9803  0.1973  0.0000
              Bcc     0.0052     2.784     0.993     0.929  0.0000  0.0000  1.0000
 
              Baa    -0.0072    -3.823    -1.364    -1.275  0.0000  0.0000  1.0000
     9 H(1)   Bbb    -0.0060    -3.215    -1.147    -1.072  0.9760  0.2178  0.0000
              Bcc     0.0132     7.038     2.511     2.348 -0.2178  0.9760  0.0000
 
              Baa    -0.0354   -18.907    -6.746    -6.307  0.0027  1.0000  0.0000
    10 H(1)   Bbb     0.0092     4.889     1.745     1.631  1.0000 -0.0027  0.0000
              Bcc     0.0263    14.018     5.002     4.676  0.0000  0.0000  1.0000
 

 ---------------------------------------------------------------------------------

 No NMR shielding tensors so no spin-rotation constants.
 Leave Link  601 at Fri Feb 24 16:25:06 2017, MaxMem=   134217728 cpu:         0.1
 (Enter /projects/guscus/apps/gau/g09-e1/g09/l9999.exe)

 Test job not archived.
 1\1\GINC-SULU\Stability\UHF\Gen\H10\LCJ1\24-Feb-2017\0\\#p uhf/gen scf
 (tight,novaracc,noincfock,fulldiag ) stable=opt guess=(read) geom=nocr
 owd test\\hf stability analysis of h10 triangular lattice, y= 0.353309
 42558887629 alpha= 12.199999999999999\\0,1\H\H,1,1.6718786524\H,1,1.67
 18786524,2,155.6\H,2,1.6718786524,1,24.4,3,0.,0\H,3,1.6718786524,1,180
 .,2,0.,0\H,4,1.6718786524,2,180.,1,0.,0\H,5,1.6718786524,3,180.,2,0.,0
 \H,6,1.6718786524,4,180.,1,0.,0\H,7,1.6718786524,5,180.,2,0.,0\H,8,1.6
 718786524,6,180.,1,0.,0\\Version=ES64L-G09RevE.01\HF=-5.1930242\S2=1.0
 00003\S2-1=0.\S2A=0.000303\RMSD=5.662e-09\Dipole=0.,0.,0.\Quadrupole=1
 .6636853,1.1559218,-2.8196071,0.,1.8244893,0.\PG=C02H [SGH(H10)]\\@


 GARLIC THEN HAVE POWER TO SAVE FROM DEATH
 BEAR WITH IT THOUGH IT MAKETH UNSAVORY BREATH,
 AND SCORN NOT GARLIC LIKE SOME THAT THINK
 IT ONLY MAKETH MEN WINK AND DRINK AND STINK.
   --  SIR JOHN HARRINGTON,
       "THE ENGLISHMAN'S DOCTOR", 1609
 Job cpu time:       0 days  0 hours  0 minutes  0.8 seconds.
 File lengths (MBytes):  RWF=     82 Int=      0 D2E=      0 Chk=      2 Scr=      2
 Normal termination of Gaussian 09 at Fri Feb 24 16:25:06 2017.
