 Entering Gaussian System, Link 0=g09
 AtFile(1): H.gbs
            H     0
            S   10   1.00
               1000.000000000000            0.000068713567
                316.227766000000            0.000169141320
                100.000000000000            0.000823394812
                 31.622776600000            0.003425569236
                 10.000000000000            0.013951996000
                  3.162277660000            0.056909313560
                  1.000000000000            0.198286399900
                  0.316227766000            0.496922426700
                  0.100000000000            0.369846276400
                  0.031622776600            0.003752720039
            ****
 Initial command:
 /projects/guscus/apps/gau/g09-e1/g09/l1.exe "/users/lcj1/gaussian/h10/2rows_uhf/ag2bu3/singlet/follow20/test/Gau-28570.inp" -scrdir="/users/lcj1/gaussian/h10/2rows_uhf/ag2bu3/singlet/follow20/test/"
 Entering Link 1 = /projects/guscus/apps/gau/g09-e1/g09/l1.exe PID=     28571.
  
 Copyright (c) 1988,1990,1992,1993,1995,1998,2003,2009,2015,
            Gaussian, Inc.  All Rights Reserved.
  
 This is part of the Gaussian(R) 09 program.  It is based on
 the Gaussian(R) 03 system (copyright 2003, Gaussian, Inc.),
 the Gaussian(R) 98 system (copyright 1998, Gaussian, Inc.),
 the Gaussian(R) 94 system (copyright 1995, Gaussian, Inc.),
 the Gaussian 92(TM) system (copyright 1992, Gaussian, Inc.),
 the Gaussian 90(TM) system (copyright 1990, Gaussian, Inc.),
 the Gaussian 88(TM) system (copyright 1988, Gaussian, Inc.),
 the Gaussian 86(TM) system (copyright 1986, Carnegie Mellon
 University), and the Gaussian 82(TM) system (copyright 1983,
 Carnegie Mellon University). Gaussian is a federally registered
 trademark of Gaussian, Inc.
  
 This software contains proprietary and confidential information,
 including trade secrets, belonging to Gaussian, Inc.
  
 This software is provided under written license and may be
 used, copied, transmitted, or stored only in accord with that
 written license.
  
 The following legend is applicable only to US Government
 contracts under FAR:
  
                    RESTRICTED RIGHTS LEGEND
  
 Use, reproduction and disclosure by the US Government is
 subject to restrictions as set forth in subparagraphs (a)
 and (c) of the Commercial Computer Software - Restricted
 Rights clause in FAR 52.227-19.
  
 Gaussian, Inc.
 340 Quinnipiac St., Bldg. 40, Wallingford CT 06492
  
  
 ---------------------------------------------------------------
 Warning -- This program may not be used in any manner that
 competes with the business of Gaussian, Inc. or will provide
 assistance to any competitor of Gaussian, Inc.  The licensee
 of this program is prohibited from giving any competitor of
 Gaussian, Inc. access to this program.  By using this program,
 the user acknowledges that Gaussian, Inc. is engaged in the
 business of creating and licensing software in the field of
 computational chemistry and represents and warrants to the
 licensee that it is not a competitor of Gaussian, Inc. and that
 it will not use this program in any manner prohibited above.
 ---------------------------------------------------------------
  

 Cite this work as:
 Gaussian 09, Revision E.01,
 M. J. Frisch, G. W. Trucks, H. B. Schlegel, G. E. Scuseria, 
 M. A. Robb, J. R. Cheeseman, G. Scalmani, V. Barone, B. Mennucci, 
 G. A. Petersson, H. Nakatsuji, M. Caricato, X. Li, H. P. Hratchian, 
 A. F. Izmaylov, J. Bloino, G. Zheng, J. L. Sonnenberg, M. Hada, 
 M. Ehara, K. Toyota, R. Fukuda, J. Hasegawa, M. Ishida, T. Nakajima, 
 Y. Honda, O. Kitao, H. Nakai, T. Vreven, J. A. Montgomery, Jr., 
 J. E. Peralta, F. Ogliaro, M. Bearpark, J. J. Heyd, E. Brothers, 
 K. N. Kudin, V. N. Staroverov, T. Keith, R. Kobayashi, J. Normand, 
 K. Raghavachari, A. Rendell, J. C. Burant, S. S. Iyengar, J. Tomasi, 
 M. Cossi, N. Rega, J. M. Millam, M. Klene, J. E. Knox, J. B. Cross, 
 V. Bakken, C. Adamo, J. Jaramillo, R. Gomperts, R. E. Stratmann, 
 O. Yazyev, A. J. Austin, R. Cammi, C. Pomelli, J. W. Ochterski, 
 R. L. Martin, K. Morokuma, V. G. Zakrzewski, G. A. Voth, 
 P. Salvador, J. J. Dannenberg, S. Dapprich, A. D. Daniels, 
 O. Farkas, J. B. Foresman, J. V. Ortiz, J. Cioslowski, 
 and D. J. Fox, Gaussian, Inc., Wallingford CT, 2013.
 
 ******************************************
 Gaussian 09:  ES64L-G09RevE.01 30-Nov-2015
                24-Feb-2017 
 ******************************************
 %chk=h10.chk
 ----------------------------------------------------------------------
 #p uhf/gen scf(tight,novaracc,noincfock,fulldiag ) stable=opt guess=(r
 ead) geom=nocrowd test
 ----------------------------------------------------------------------
 1/38=1/1;
 2/12=1,17=6,18=5,40=1/2;
 3/5=7,11=2,16=1,25=1,30=1,116=2/1,2,3;
 4/5=1/1;
 5/5=100002,16=1,32=2,38=6/2;
 6/7=2,8=2,9=2,10=2,28=1/1;
 8/6=1,10=90,11=11/1;
 9/8=-3,42=1,46=1/14;
 5/5=100002,8=3,16=1,17=40,32=2,38=6/8(-2);
 6/7=2,8=2,9=2,10=2,28=1/1;
 99/5=1,9=1/99;
 Leave Link    1 at Fri Feb 24 16:25:06 2017, MaxMem=           0 cpu:         0.0
 (Enter /projects/guscus/apps/gau/g09-e1/g09/l101.exe)
 ----------------------------------------------------------------------
 hf stability analysis of h10 triangular lattice, y= 0.3562845674507317
 8 alpha= 12.400000000000000
 ----------------------------------------------------------------------
 Symbolic Z-matrix:
 Charge =  0 Multiplicity = 1
 H
 H                    1     1.65918 
 H                    1     1.65918  2     155.2 
 H                    2     1.65918  1     24.8     3     0.       0
 H                    3     1.65918  1     180.     2     0.       0
 H                    4     1.65918  2     180.     1     0.       0
 H                    5     1.65918  3     180.     2     0.       0
 H                    6     1.65918  4     180.     1     0.       0
 H                    7     1.65918  5     180.     2     0.       0
 H                    8     1.65918  6     180.     1     0.       0
 
 NAtoms=     10 NQM=       10 NQMF=       0 NMMI=      0 NMMIF=      0
                NMic=       0 NMicF=      0.
                    Isotopes and Nuclear Properties:
 (Nuclear quadrupole moments (NQMom) in fm**2, nuclear magnetic moments (NMagM)
  in nuclear magnetons)

  Atom         1           2           3           4           5           6           7           8           9          10
 IAtWgt=           1           1           1           1           1           1           1           1           1           1
 AtmWgt=   1.0078250   1.0078250   1.0078250   1.0078250   1.0078250   1.0078250   1.0078250   1.0078250   1.0078250   1.0078250
 NucSpn=           1           1           1           1           1           1           1           1           1           1
 AtZEff=   0.0000000   0.0000000   0.0000000   0.0000000   0.0000000   0.0000000   0.0000000   0.0000000   0.0000000   0.0000000
 NQMom=    0.0000000   0.0000000   0.0000000   0.0000000   0.0000000   0.0000000   0.0000000   0.0000000   0.0000000   0.0000000
 NMagM=    2.7928460   2.7928460   2.7928460   2.7928460   2.7928460   2.7928460   2.7928460   2.7928460   2.7928460   2.7928460
 AtZNuc=   1.0000000   1.0000000   1.0000000   1.0000000   1.0000000   1.0000000   1.0000000   1.0000000   1.0000000   1.0000000
 Leave Link  101 at Fri Feb 24 16:25:06 2017, MaxMem=   134217728 cpu:         0.0
 (Enter /projects/guscus/apps/gau/g09-e1/g09/l202.exe)
                          Input orientation:                          
 ---------------------------------------------------------------------
 Center     Atomic      Atomic             Coordinates (Angstroms)
 Number     Number       Type             X           Y           Z
 ---------------------------------------------------------------------
      1          1           0        0.000000    0.000000    0.000000
      2          1           0        0.000000    0.000000    1.659180
      3          1           0        0.695947    0.000000   -1.506166
      4          1           0        0.695947    0.000000    0.153014
      5          1           0        1.391893    0.000000   -3.012332
      6          1           0        1.391893    0.000000   -1.353152
      7          1           0        2.087840    0.000000   -4.518499
      8          1           0        2.087840    0.000000   -2.859319
      9          1           0        2.783786    0.000000   -6.024665
     10          1           0        2.783786    0.000000   -4.365485
 ---------------------------------------------------------------------
                    Distance matrix (angstroms):
                    1          2          3          4          5
     1  H    0.000000
     2  H    1.659180   0.000000
     3  H    1.659180   3.240950   0.000000
     4  H    0.712569   1.659180   1.659180   0.000000
     5  H    3.318360   4.874464   1.659180   3.240950   0.000000
     6  H    1.941234   3.318360   0.712569   1.659180   1.659180
     7  H    4.977540   6.520950   3.318360   4.874464   1.659180
     8  H    3.540449   4.977540   1.941234   3.318360   0.712569
     9  H    6.636720   8.172572   4.977540   6.520950   3.318360
    10  H    5.177540   6.636720   3.540449   4.977540   1.941234
                    6          7          8          9         10
     6  H    0.000000
     7  H    3.240950   0.000000
     8  H    1.659180   1.659180   0.000000
     9  H    4.874464   1.659180   3.240950   0.000000
    10  H    3.318360   0.712569   1.659180   1.659180   0.000000
 Stoichiometry    H10
 Framework group  C2H[SGH(H10)]
 Deg. of freedom     9
 Full point group                 C2H     NOp   4
 Largest Abelian subgroup         C2H     NOp   4
 Largest concise Abelian subgroup C2      NOp   2
                         Standard orientation:                         
 ---------------------------------------------------------------------
 Center     Atomic      Atomic             Coordinates (Angstroms)
 Number     Number       Type             X           Y           Z
 ---------------------------------------------------------------------
      1          1           0        1.391893   -2.182742    0.000000
      2          1           0        1.391893   -3.841922    0.000000
      3          1           0        0.695947   -0.676576    0.000000
      4          1           0        0.695947   -2.335756    0.000000
      5          1           0        0.000000    0.829590    0.000000
      6          1           0       -0.000000   -0.829590   -0.000000
      7          1           0       -0.695947    2.335756    0.000000
      8          1           0       -0.695947    0.676576    0.000000
      9          1           0       -1.391893    3.841922    0.000000
     10          1           0       -1.391893    2.182742    0.000000
 ---------------------------------------------------------------------
 Rotational constants (GHZ):    457.6585110      8.2416439      8.0958515
 Leave Link  202 at Fri Feb 24 16:25:06 2017, MaxMem=   134217728 cpu:         0.0
 (Enter /projects/guscus/apps/gau/g09-e1/g09/l301.exe)
 General basis read from cards:  (5D, 7F)
 Centers:       1      2      3      4      5      6      7      8      9     10
 S 10 1.00
     Exponent=  1.0000000000D+03 Coefficients=  6.8713567000D-05
     Exponent=  3.1622776600D+02 Coefficients=  1.6914132000D-04
     Exponent=  1.0000000000D+02 Coefficients=  8.2339481200D-04
     Exponent=  3.1622776600D+01 Coefficients=  3.4255692360D-03
     Exponent=  1.0000000000D+01 Coefficients=  1.3951996000D-02
     Exponent=  3.1622776600D+00 Coefficients=  5.6909313560D-02
     Exponent=  1.0000000000D+00 Coefficients=  1.9828639990D-01
     Exponent=  3.1622776600D-01 Coefficients=  4.9692242670D-01
     Exponent=  1.0000000000D-01 Coefficients=  3.6984627640D-01
     Exponent=  3.1622776600D-02 Coefficients=  3.7527200390D-03
 ****
 Ernie: Thresh=  0.10000D-02 Tol=  0.10000D-05 Strict=F.
 There are     5 symmetry adapted cartesian basis functions of AG  symmetry.
 There are     0 symmetry adapted cartesian basis functions of BG  symmetry.
 There are     0 symmetry adapted cartesian basis functions of AU  symmetry.
 There are     5 symmetry adapted cartesian basis functions of BU  symmetry.
 There are     5 symmetry adapted basis functions of AG  symmetry.
 There are     0 symmetry adapted basis functions of BG  symmetry.
 There are     0 symmetry adapted basis functions of AU  symmetry.
 There are     5 symmetry adapted basis functions of BU  symmetry.
    10 basis functions,   100 primitive gaussians,    10 cartesian basis functions
     5 alpha electrons        5 beta electrons
       nuclear repulsion energy        11.0830586842 Hartrees.
 IExCor=    0 DFT=F Ex=HF Corr=None ExCW=0 ScaHFX=  1.000000
 ScaDFX=  1.000000  1.000000  1.000000  1.000000 ScalE2=  1.000000  1.000000
 IRadAn=      0 IRanWt=     -1 IRanGd=            0 ICorTp=0 IEmpDi=  4
 NAtoms=   10 NActive=   10 NUniq=    5 SFac= 4.00D+00 NAtFMM=   60 NAOKFM=F Big=F
 Integral buffers will be    131072 words long.
 Raffenetti 2 integral format.
 Two-electron integral symmetry is turned on.
 Leave Link  301 at Fri Feb 24 16:25:07 2017, MaxMem=   134217728 cpu:         0.0
 (Enter /projects/guscus/apps/gau/g09-e1/g09/l302.exe)
 NPDir=0 NMtPBC=     1 NCelOv=     1 NCel=       1 NClECP=     1 NCelD=      1
         NCelK=      1 NCelE2=     1 NClLst=     1 CellRange=     0.0.
 One-electron integrals computed using PRISM.
 One-electron integral symmetry used in STVInt
 NBasis=    10 RedAO= T EigKep=  1.63D-01  NBF=     5     0     0     5
 NBsUse=    10 1.00D-06 EigRej= -1.00D+00 NBFU=     5     0     0     5
 Leave Link  302 at Fri Feb 24 16:25:07 2017, MaxMem=   134217728 cpu:         0.0
 (Enter /projects/guscus/apps/gau/g09-e1/g09/l303.exe)
 DipDrv:  MaxL=1.
 Leave Link  303 at Fri Feb 24 16:25:07 2017, MaxMem=   134217728 cpu:         0.0
 (Enter /projects/guscus/apps/gau/g09-e1/g09/l401.exe)
 Initial guess from the checkpoint file:  "h10.chk"
 B after Tr=    -0.000000    0.000000    0.000000
         Rot=    0.999995   -0.000000   -0.000000   -0.003103 Ang=  -0.36 deg.
 Guess basis will be translated and rotated to current coordinates.
 JPrj=2 DoOrth=T DoCkMO=T.
 Initial guess orbital symmetries:
 Alpha Orbitals:
       Occupied  (BG) (BG) (BG) (BG) (BG)
       Virtual   (BG) (BG) (BG) (BG) (BG)
 Beta  Orbitals:
       Occupied  (BG) (BG) (BG) (BG) (BG)
       Virtual   (BG) (BG) (BG) (BG) (BG)
 Initial guess <Sx>= 0.0000 <Sy>= 0.0000 <Sz>= 0.0000 <S**2>= 1.0000 S= 0.6180
 Leave Link  401 at Fri Feb 24 16:25:07 2017, MaxMem=   134217728 cpu:         0.1
 (Enter /projects/guscus/apps/gau/g09-e1/g09/l502.exe)
 UHF open shell SCF:
 Using DIIS extrapolation, IDIIS=  1040.
 Integral symmetry usage will be decided dynamically.
 Keep R1 and R2 ints in memory in symmetry-blocked form, NReq=874343.
 IVT=       20217 IEndB=       20217 NGot=   134217728 MDV=   134195632
 LenX=   134195632 LenY=   134194750
 Requested convergence on RMS density matrix=1.00D-08 within 128 cycles.
 Requested convergence on MAX density matrix=1.00D-06.
 Requested convergence on             energy=1.00D-06.
 No special actions if energy rises.
 FoFCou: FMM=F IPFlag=           0 FMFlag=           0 FMFlg1=           0
         NFxFlg=           0 DoJE=F BraDBF=F KetDBF=F FulRan=T
         wScrn=  0.000000 ICntrl=     600 IOpCl=  0 I1Cent=           0 NGrid=           0
         NMat0=    1 NMatS0=     55 NMatT0=    0 NMatD0=    1 NMtDS0=    0 NMtDT0=    0
 Petite list used in FoFCou.
 An orbital has undefined symmetry, so N**3 symmetry is turned off.

 Cycle   1  Pass 1  IDiag  1:
 Density matrix breaks symmetry, PCut= 1.00D-04
 Density matrix has no symmetry -- integrals replicated.
 E= -5.19010886334351    
 DIIS: error= 3.70D-04 at cycle   1 NSaved=   1.
 NSaved= 1 IEnMin= 1 EnMin= -5.19010886334351     IErMin= 1 ErrMin= 3.70D-04
 ErrMax= 3.70D-04  0.00D+00 EMaxC= 1.00D-01 BMatC= 1.27D-05 BMatP= 1.27D-05
 IDIUse=3 WtCom= 9.96D-01 WtEn= 3.70D-03
 Coeff-Com:  0.100D+01
 Coeff-En:   0.100D+01
 Coeff:      0.100D+01
 Gap=     0.605 Goal=   None    Shift=    0.000
 Gap=     0.605 Goal=   None    Shift=    0.000
 RMSDP=4.65D-04 MaxDP=1.06D-03              OVMax= 0.00D+00

 Cycle   2  Pass 1  IDiag  1:
 Density matrix breaks symmetry, PCut= 1.00D-07
 Density matrix has no symmetry -- integrals replicated.
 E= -5.19011924044581     Delta-E=       -0.000010377102 Rises=F Damp=F
 DIIS: error= 1.09D-04 at cycle   2 NSaved=   2.
 NSaved= 2 IEnMin= 2 EnMin= -5.19011924044581     IErMin= 2 ErrMin= 1.09D-04
 ErrMax= 1.09D-04  0.00D+00 EMaxC= 1.00D-01 BMatC= 1.31D-06 BMatP= 1.27D-05
 IDIUse=3 WtCom= 9.99D-01 WtEn= 1.09D-03
 Coeff-Com: -0.423D+00 0.142D+01
 Coeff-En:   0.000D+00 0.100D+01
 Coeff:     -0.423D+00 0.142D+01
 Gap=     0.605 Goal=   None    Shift=    0.000
 Gap=     0.605 Goal=   None    Shift=    0.000
 RMSDP=1.94D-04 MaxDP=5.56D-04 DE=-1.04D-05 OVMax= 0.00D+00

 Cycle   3  Pass 1  IDiag  1:
 Density matrix breaks symmetry, PCut= 1.00D-07
 Density matrix has no symmetry -- integrals replicated.
 E= -5.19012052170387     Delta-E=       -0.000001281258 Rises=F Damp=F
 DIIS: error= 1.39D-05 at cycle   3 NSaved=   3.
 NSaved= 3 IEnMin= 3 EnMin= -5.19012052170387     IErMin= 3 ErrMin= 1.39D-05
 ErrMax= 1.39D-05  0.00D+00 EMaxC= 1.00D-01 BMatC= 2.99D-08 BMatP= 1.31D-06
 IDIUse=1 WtCom= 1.00D+00 WtEn= 0.00D+00
 Coeff-Com:  0.169D+00-0.611D+00 0.144D+01
 Coeff:      0.169D+00-0.611D+00 0.144D+01
 Gap=     0.605 Goal=   None    Shift=    0.000
 Gap=     0.605 Goal=   None    Shift=    0.000
 RMSDP=2.99D-05 MaxDP=1.02D-04 DE=-1.28D-06 OVMax= 0.00D+00

 Cycle   4  Pass 1  IDiag  1:
 Density matrix breaks symmetry, PCut= 1.00D-07
 Density matrix has no symmetry -- integrals replicated.
 E= -5.19012055276052     Delta-E=       -0.000000031057 Rises=F Damp=F
 DIIS: error= 7.88D-06 at cycle   4 NSaved=   4.
 NSaved= 4 IEnMin= 4 EnMin= -5.19012055276052     IErMin= 4 ErrMin= 7.88D-06
 ErrMax= 7.88D-06  0.00D+00 EMaxC= 1.00D-01 BMatC= 4.91D-09 BMatP= 2.99D-08
 IDIUse=1 WtCom= 1.00D+00 WtEn= 0.00D+00
 Coeff-Com: -0.193D+00 0.707D+00-0.183D+01 0.232D+01
 Coeff:     -0.193D+00 0.707D+00-0.183D+01 0.232D+01
 Gap=     0.605 Goal=   None    Shift=    0.000
 Gap=     0.605 Goal=   None    Shift=    0.000
 RMSDP=2.29D-05 MaxDP=8.21D-05 DE=-3.11D-08 OVMax= 0.00D+00

 Cycle   5  Pass 1  IDiag  1:
 Density matrix breaks symmetry, PCut= 1.00D-07
 Density matrix has no symmetry -- integrals replicated.
 E= -5.19012056038534     Delta-E=       -0.000000007625 Rises=F Damp=F
 DIIS: error= 2.28D-06 at cycle   5 NSaved=   5.
 NSaved= 5 IEnMin= 5 EnMin= -5.19012056038534     IErMin= 5 ErrMin= 2.28D-06
 ErrMax= 2.28D-06  0.00D+00 EMaxC= 1.00D-01 BMatC= 4.72D-10 BMatP= 4.91D-09
 IDIUse=1 WtCom= 1.00D+00 WtEn= 0.00D+00
 Coeff-Com:  0.699D-01-0.257D+00 0.694D+00-0.125D+01 0.174D+01
 Coeff:      0.699D-01-0.257D+00 0.694D+00-0.125D+01 0.174D+01
 Gap=     0.605 Goal=   None    Shift=    0.000
 Gap=     0.605 Goal=   None    Shift=    0.000
 RMSDP=9.58D-06 MaxDP=3.49D-05 DE=-7.62D-09 OVMax= 0.00D+00

 Cycle   6  Pass 1  IDiag  1:
 Density matrix breaks symmetry, PCut= 1.00D-07
 Density matrix has no symmetry -- integrals replicated.
 E= -5.19012056115024     Delta-E=       -0.000000000765 Rises=F Damp=F
 DIIS: error= 8.05D-08 at cycle   6 NSaved=   6.
 NSaved= 6 IEnMin= 6 EnMin= -5.19012056115024     IErMin= 6 ErrMin= 8.05D-08
 ErrMax= 8.05D-08  0.00D+00 EMaxC= 1.00D-01 BMatC= 6.67D-13 BMatP= 4.72D-10
 IDIUse=1 WtCom= 1.00D+00 WtEn= 0.00D+00
 Coeff-Com: -0.165D-01 0.607D-01-0.165D+00 0.303D+00-0.443D+00 0.126D+01
 Coeff:     -0.165D-01 0.607D-01-0.165D+00 0.303D+00-0.443D+00 0.126D+01
 Gap=     0.605 Goal=   None    Shift=    0.000
 Gap=     0.605 Goal=   None    Shift=    0.000
 RMSDP=1.94D-07 MaxDP=6.95D-07 DE=-7.65D-10 OVMax= 0.00D+00

 Cycle   7  Pass 1  IDiag  1:
 Density matrix breaks symmetry, PCut= 1.00D-07
 Density matrix has no symmetry -- integrals replicated.
 E= -5.19012056115085     Delta-E=       -0.000000000001 Rises=F Damp=F
 DIIS: error= 1.50D-08 at cycle   7 NSaved=   7.
 NSaved= 7 IEnMin= 7 EnMin= -5.19012056115085     IErMin= 7 ErrMin= 1.50D-08
 ErrMax= 1.50D-08  0.00D+00 EMaxC= 1.00D-01 BMatC= 2.06D-14 BMatP= 6.67D-13
 IDIUse=1 WtCom= 1.00D+00 WtEn= 0.00D+00
 Coeff-Com:  0.517D-02-0.190D-01 0.516D-01-0.953D-01 0.140D+00-0.460D+00
 Coeff-Com:  0.138D+01
 Coeff:      0.517D-02-0.190D-01 0.516D-01-0.953D-01 0.140D+00-0.460D+00
 Coeff:      0.138D+01
 Gap=     0.605 Goal=   None    Shift=    0.000
 Gap=     0.605 Goal=   None    Shift=    0.000
 RMSDP=3.06D-08 MaxDP=1.44D-07 DE=-6.18D-13 OVMax= 0.00D+00

 Cycle   8  Pass 1  IDiag  1:
 Density matrix breaks symmetry, PCut= 1.00D-07
 Density matrix has no symmetry -- integrals replicated.
 E= -5.19012056115088     Delta-E=       -0.000000000000 Rises=F Damp=F
 DIIS: error= 7.88D-09 at cycle   8 NSaved=   8.
 NSaved= 8 IEnMin= 8 EnMin= -5.19012056115088     IErMin= 8 ErrMin= 7.88D-09
 ErrMax= 7.88D-09  0.00D+00 EMaxC= 1.00D-01 BMatC= 3.95D-15 BMatP= 2.06D-14
 IDIUse=1 WtCom= 1.00D+00 WtEn= 0.00D+00
 Coeff-Com: -0.469D-02 0.172D-01-0.468D-01 0.866D-01-0.127D+00 0.429D+00
 Coeff-Com: -0.154D+01 0.219D+01
 Coeff:     -0.469D-02 0.172D-01-0.468D-01 0.866D-01-0.127D+00 0.429D+00
 Coeff:     -0.154D+01 0.219D+01
 Gap=     0.605 Goal=   None    Shift=    0.000
 Gap=     0.605 Goal=   None    Shift=    0.000
 RMSDP=1.82D-08 MaxDP=6.85D-08 DE=-2.13D-14 OVMax= 0.00D+00

 Cycle   9  Pass 1  IDiag  1:
 Density matrix breaks symmetry, PCut= 1.00D-07
 Density matrix has no symmetry -- integrals replicated.
 E= -5.19012056115087     Delta-E=        0.000000000000 Rises=F Damp=F
 DIIS: error= 1.99D-09 at cycle   9 NSaved=   9.
 NSaved= 9 IEnMin= 8 EnMin= -5.19012056115088     IErMin= 9 ErrMin= 1.99D-09
 ErrMax= 1.99D-09  0.00D+00 EMaxC= 1.00D-01 BMatC= 3.07D-16 BMatP= 3.95D-15
 IDIUse=1 WtCom= 1.00D+00 WtEn= 0.00D+00
 Coeff-Com:  0.194D-02-0.712D-02 0.194D-01-0.358D-01 0.527D-01-0.180D+00
 Coeff-Com:  0.673D+00-0.124D+01 0.172D+01
 Coeff:      0.194D-02-0.712D-02 0.194D-01-0.358D-01 0.527D-01-0.180D+00
 Coeff:      0.673D+00-0.124D+01 0.172D+01
 Gap=     0.605 Goal=   None    Shift=    0.000
 Gap=     0.605 Goal=   None    Shift=    0.000
 RMSDP=6.71D-09 MaxDP=2.56D-08 DE= 3.55D-15 OVMax= 0.00D+00

 Density matrix breaks symmetry, PCut= 1.00D-07
 Density matrix has no symmetry -- integrals replicated.
 SCF Done:  E(UHF) =  -5.19012056115     A.U. after    9 cycles
            NFock=  9  Conv=0.67D-08     -V/T= 2.0104
 <Sx>= 0.0000 <Sy>= 0.0000 <Sz>= 0.0000 <S**2>= 1.0000 S= 0.6180
 <L.S>= 0.000000000000E+00
 KE= 5.136479051706D+00 PE=-3.165769655792D+01 EE= 1.024803826088D+01
 Annihilation of the first spin contaminant:
 S**2 before annihilation     1.0000,   after     0.0004
 Leave Link  502 at Fri Feb 24 16:25:07 2017, MaxMem=   134217728 cpu:         0.1
 (Enter /projects/guscus/apps/gau/g09-e1/g09/l601.exe)
 Copying SCF densities to generalized density rwf, IOpCl= 1 IROHF=0.

 **********************************************************************

            Population analysis using the SCF density.

 **********************************************************************

 Orbital symmetries:
 Alpha Orbitals:
       Occupied  (BG) (BG) (BG) (BG) (BG)
       Virtual   (BG) (BG) (BG) (BG) (BG)
 Beta  Orbitals:
       Occupied  (BG) (BG) (BG) (BG) (BG)
       Virtual   (BG) (BG) (BG) (BG) (BG)
 Unable to determine electronic state:  partially filled degenerate orbitals.
 Alpha  occ. eigenvalues --   -0.74399  -0.69701  -0.61869  -0.52157  -0.43130
 Alpha virt. eigenvalues --    0.17347   0.27095   0.36650   0.51264   0.65888
  Beta  occ. eigenvalues --   -0.74399  -0.69701  -0.61869  -0.52157  -0.43130
  Beta virt. eigenvalues --    0.17347   0.27095   0.36650   0.51264   0.65888
          Condensed to atoms (all electrons):
               1          2          3          4          5          6
     1  H    0.690815  -0.071239  -0.080586   0.524977   0.002327  -0.064069
     2  H   -0.071239   1.142894   0.001044  -0.067615   0.000004   0.001898
     3  H   -0.080586   0.001044   0.733577  -0.070235  -0.083643   0.561476
     4  H    0.524977  -0.067615  -0.070235   0.678576   0.001741  -0.077958
     5  H    0.002327   0.000004  -0.083643   0.001741   0.731434  -0.075535
     6  H   -0.064069   0.001898   0.561476  -0.077958  -0.075535   0.731434
     7  H   -0.000028  -0.000001   0.002160  -0.000010  -0.077958   0.001741
     8  H    0.002119  -0.000016  -0.066428   0.002160   0.561476  -0.083643
     9  H   -0.000000   0.000000  -0.000016  -0.000001   0.001898   0.000004
    10  H   -0.000035  -0.000000   0.002119  -0.000028  -0.064069   0.002327
               7          8          9         10
     1  H   -0.000028   0.002119  -0.000000  -0.000035
     2  H   -0.000001  -0.000016   0.000000  -0.000000
     3  H    0.002160  -0.066428  -0.000016   0.002119
     4  H   -0.000010   0.002160  -0.000001  -0.000028
     5  H   -0.077958   0.561476   0.001898  -0.064069
     6  H    0.001741  -0.083643   0.000004   0.002327
     7  H    0.678576  -0.070235  -0.067615   0.524977
     8  H   -0.070235   0.733577   0.001044  -0.080586
     9  H   -0.067615   0.001044   1.142894  -0.071239
    10  H    0.524977  -0.080586  -0.071239   0.690815
          Atomic-Atomic Spin Densities.
               1          2          3          4          5          6
     1  H    0.057246  -0.078946  -0.003653   0.037965   0.000118  -0.004902
     2  H   -0.078946   1.140846   0.002539  -0.074902  -0.000051   0.003217
     3  H   -0.003653   0.002539  -0.003659  -0.002950   0.000982   0.003020
     4  H    0.037965  -0.074902  -0.002950   0.041845   0.000115  -0.005821
     5  H    0.000118  -0.000051   0.000982   0.000115  -0.012120  -0.000000
     6  H   -0.004902   0.003217   0.003020  -0.005821  -0.000000   0.012120
     7  H    0.000001   0.000001  -0.000189   0.000000   0.005821  -0.000115
     8  H    0.000159  -0.000064   0.000000   0.000189  -0.003020  -0.000982
     9  H   -0.000001   0.000000   0.000064  -0.000001  -0.003217   0.000051
    10  H   -0.000000   0.000001  -0.000159  -0.000001   0.004902  -0.000118
               7          8          9         10
     1  H    0.000001   0.000159  -0.000001  -0.000000
     2  H    0.000001  -0.000064   0.000000   0.000001
     3  H   -0.000189   0.000000   0.000064  -0.000159
     4  H    0.000000   0.000189  -0.000001  -0.000001
     5  H    0.005821  -0.003020  -0.003217   0.004902
     6  H   -0.000115  -0.000982   0.000051  -0.000118
     7  H   -0.041845   0.002950   0.074902  -0.037965
     8  H    0.002950   0.003659  -0.002539   0.003653
     9  H    0.074902  -0.002539  -1.140846   0.078946
    10  H   -0.037965   0.003653   0.078946  -0.057246
 Mulliken charges and spin densities:
               1          2
     1  H   -0.004281   0.007987
     2  H   -0.006970   0.992641
     3  H    0.000532  -0.004005
     4  H    0.008392  -0.003561
     5  H    0.002326  -0.006470
     6  H    0.002326   0.006470
     7  H    0.008392   0.003561
     8  H    0.000532   0.004005
     9  H   -0.006970  -0.992641
    10  H   -0.004281  -0.007987
 Sum of Mulliken charges =  -0.00000   0.00000
 Mulliken charges and spin densities with hydrogens summed into heavy atoms:
               1          2
 Electronic spatial extent (au):  <R**2>=            253.5719
 Charge=             -0.0000 electrons
 Dipole moment (field-independent basis, Debye):
    X=             -0.0000    Y=             -0.0000    Z=             -0.0000  Tot=              0.0000
 Quadrupole moment (field-independent basis, Debye-Ang):
   XX=            -12.2555   YY=            -18.4001   ZZ=            -12.8980
   XY=              2.5663   XZ=              0.0000   YZ=              0.0000
 Traceless Quadrupole moment (field-independent basis, Debye-Ang):
   XX=              2.2623   YY=             -3.8822   ZZ=              1.6199
   XY=              2.5663   XZ=              0.0000   YZ=              0.0000
 Octapole moment (field-independent basis, Debye-Ang**2):
  XXX=              0.0000  YYY=             -0.0000  ZZZ=             -0.0000  XYY=              0.0000
  XXY=             -0.0000  XXZ=             -0.0000  XZZ=             -0.0000  YZZ=             -0.0000
  YYZ=             -0.0000  XYZ=              0.0000
 Hexadecapole moment (field-independent basis, Debye-Ang**3):
 XXXX=            -86.8178 YYYY=           -553.5674 ZZZZ=            -15.5891 XXXY=             84.9676
 XXXZ=             -0.0000 YYYX=            130.2654 YYYZ=              0.0000 ZZZX=             -0.0000
 ZZZY=              0.0000 XXYY=           -100.5441 XXZZ=            -17.6270 YYZZ=            -74.9591
 XXYZ=              0.0000 YYXZ=             -0.0000 ZZXY=             28.1186
 N-N= 1.108305868419D+01 E-N=-3.165769655851D+01  KE= 5.136479051706D+00
 Symmetry AG   KE= 2.235752853069D+00
 Symmetry BG   KE= 0.000000000000D+00
 Symmetry AU   KE= 0.000000000000D+00
 Symmetry BU   KE= 2.900726198636D+00
                          Isotropic Fermi Contact Couplings
        Atom                 a.u.       MegaHertz       Gauss      10(-4) cm-1
     1  H(1)               0.01861      41.58247      14.83766      13.87042
     2  H(1)               0.34344     767.55810     273.88381     256.02982
     3  H(1)              -0.00081      -1.80140      -0.64278      -0.60088
     4  H(1)               0.01425      31.84540      11.36323      10.62248
     5  H(1)              -0.00351      -7.84337      -2.79871      -2.61627
     6  H(1)               0.00351       7.84337       2.79871       2.61627
     7  H(1)              -0.01425     -31.84540     -11.36323     -10.62248
     8  H(1)               0.00081       1.80140       0.64278       0.60088
     9  H(1)              -0.34344    -767.55810    -273.88381    -256.02982
    10  H(1)              -0.01861     -41.58247     -14.83766     -13.87042
 --------------------------------------------------------
       Center         ----  Spin Dipole Couplings  ----
                      3XX-RR        3YY-RR        3ZZ-RR
 --------------------------------------------------------
     1   Atom       -0.009043      0.035663     -0.026620
     2   Atom        0.005229     -0.012659      0.007431
     3   Atom       -0.001102      0.006583     -0.005481
     4   Atom        0.001694      0.026631     -0.028326
     5   Atom        0.000804     -0.003694      0.002890
     6   Atom       -0.000804      0.003694     -0.002890
     7   Atom       -0.001694     -0.026631      0.028326
     8   Atom        0.001102     -0.006583      0.005481
     9   Atom       -0.005229      0.012659     -0.007431
    10   Atom        0.009043     -0.035663      0.026620
 --------------------------------------------------------
                        XY            XZ            YZ
 --------------------------------------------------------
     1   Atom        0.000175      0.000000      0.000000
     2   Atom        0.004289      0.000000     -0.000000
     3   Atom       -0.001690      0.000000     -0.000000
     4   Atom       -0.015064      0.000000      0.000000
     5   Atom        0.004480      0.000000     -0.000000
     6   Atom       -0.004480      0.000000     -0.000000
     7   Atom        0.015064      0.000000     -0.000000
     8   Atom        0.001690      0.000000     -0.000000
     9   Atom       -0.004289     -0.000000      0.000000
    10   Atom       -0.000175      0.000000     -0.000000
 --------------------------------------------------------


 ---------------------------------------------------------------------------------
              Anisotropic Spin Dipole Couplings in Principal Axis System
 ---------------------------------------------------------------------------------

       Atom             a.u.   MegaHertz   Gauss  10(-4) cm-1        Axes

              Baa    -0.0266   -14.203    -5.068    -4.738  0.0000  0.0000  1.0000
     1 H(1)   Bbb    -0.0090    -4.825    -1.722    -1.610  1.0000 -0.0039  0.0000
              Bcc     0.0357    19.028     6.790     6.347  0.0039  1.0000 -0.0000
 
              Baa    -0.0136    -7.275    -2.596    -2.427 -0.2217  0.9751  0.0000
     2 H(1)   Bbb     0.0062     3.310     1.181     1.104  0.9751  0.2217  0.0000
              Bcc     0.0074     3.965     1.415     1.322  0.0000  0.0000  1.0000
 
              Baa    -0.0055    -2.924    -1.043    -0.975  0.0000  0.0000  1.0000
     3 H(1)   Bbb    -0.0015    -0.778    -0.277    -0.259  0.9786  0.2057  0.0000
              Bcc     0.0069     3.702     1.321     1.235 -0.2057  0.9786  0.0000
 
              Baa    -0.0283   -15.113    -5.393    -5.041  0.0000  0.0000  1.0000
     4 H(1)   Bbb    -0.0054    -2.877    -1.026    -0.960  0.9049  0.4257 -0.0000
              Bcc     0.0337    17.990     6.419     6.001 -0.4257  0.9049  0.0000
 
              Baa    -0.0065    -3.446    -1.229    -1.149 -0.5250  0.8511  0.0000
     5 H(1)   Bbb     0.0029     1.542     0.550     0.514  0.0000  0.0000  1.0000
              Bcc     0.0036     1.903     0.679     0.635  0.8511  0.5250  0.0000
 
              Baa    -0.0036    -1.903    -0.679    -0.635  0.8511  0.5250  0.0000
     6 H(1)   Bbb    -0.0029    -1.542    -0.550    -0.514  0.0000  0.0000  1.0000
              Bcc     0.0065     3.446     1.229     1.149 -0.5250  0.8511  0.0000
 
              Baa    -0.0337   -17.990    -6.419    -6.001 -0.4257  0.9049  0.0000
     7 H(1)   Bbb     0.0054     2.877     1.026     0.960  0.9049  0.4257  0.0000
              Bcc     0.0283    15.113     5.393     5.041  0.0000  0.0000  1.0000
 
              Baa    -0.0069    -3.702    -1.321    -1.235 -0.2057  0.9786  0.0000
     8 H(1)   Bbb     0.0015     0.778     0.277     0.259  0.9786  0.2057  0.0000
              Bcc     0.0055     2.924     1.043     0.975  0.0000  0.0000  1.0000
 
              Baa    -0.0074    -3.965    -1.415    -1.322  0.0000  0.0000  1.0000
     9 H(1)   Bbb    -0.0062    -3.310    -1.181    -1.104  0.9751  0.2217  0.0000
              Bcc     0.0136     7.275     2.596     2.427 -0.2217  0.9751  0.0000
 
              Baa    -0.0357   -19.028    -6.790    -6.347  0.0039  1.0000  0.0000
    10 H(1)   Bbb     0.0090     4.825     1.722     1.610  1.0000 -0.0039  0.0000
              Bcc     0.0266    14.203     5.068     4.738  0.0000  0.0000  1.0000
 

 ---------------------------------------------------------------------------------

 No NMR shielding tensors so no spin-rotation constants.
 Leave Link  601 at Fri Feb 24 16:25:07 2017, MaxMem=   134217728 cpu:         0.1
 (Enter /projects/guscus/apps/gau/g09-e1/g09/l801.exe)
 Range of M.O.s used for correlation:     1    10
 NBasis=    10 NAE=     5 NBE=     5 NFC=     0 NFV=     0
 NROrb=     10 NOA=     5 NOB=     5 NVA=     5 NVB=     5
 Leave Link  801 at Fri Feb 24 16:25:07 2017, MaxMem=   134217728 cpu:         0.0
 (Enter /projects/guscus/apps/gau/g09-e1/g09/l914.exe)
 UHF ground state
 Doing stability rather than CIS.
 MDV=   134217728 DFT=F DoStab=T Mixed=F DoRPA=F DoScal=F NonHer=F
 Keep R1 and R2 ints in memory in symmetry-blocked form, NReq=802982.
 FoFCou: FMM=F IPFlag=           0 FMFlag=           0 FMFlg1=           0
         NFxFlg=           0 DoJE=F BraDBF=F KetDBF=F FulRan=T
         wScrn=  0.000000 ICntrl=     600 IOpCl=  0 I1Cent=           0 NGrid=           0
         NMat0=    1 NMatS0=     55 NMatT0=    0 NMatD0=    1 NMtDS0=    0 NMtDT0=    0
 Petite list used in FoFCou.
 Making orbital integer symmetry assigments:
 Orbital symmetries:
 Alpha Orbitals:
       Occupied  (BG) (BG) (BG) (BG) (BG)
       Virtual   (BG) (BG) (BG) (BG) (BG)
 Beta  Orbitals:
       Occupied  (BG) (BG) (BG) (BG) (BG)
       Virtual   (BG) (BG) (BG) (BG) (BG)
    12 initial guesses have been made.
 Convergence on wavefunction:    0.001000000000000
 Davidson Disk Diagonalization:  ConvIn= 1.00D-03 SkipCon=T Conv= 1.00D-03.
 Max sub-space:   200 roots to seek:    12 dimension of matrix:           50
 Iteration     1 Dimension    12 NMult     0 NNew     12
 CISAX will form    12 AO SS matrices at one time.
 NMat=    12 NSing=    12 JSym2X= 2.
 New state      1 was old state      5
 Excitation Energies [eV] at current iteration:
 Root      1 :    10.550987966678130
 Root      2 :    12.261687103409420
 Root      3 :    13.383504622314420
 Root      4 :    13.493765065736110
 Root      5 :    14.539220006248660
 Root      6 :    14.965288836542160
 Root      7 :    15.064318163274270
 Root      8 :    15.391082508977720
 Root      9 :    17.162486006820180
 Root     10 :    17.347838345250400
 Root     11 :    17.565938441073890
 Root     12 :    18.527394234455530
 Iteration     2 Dimension    24 NMult    12 NNew     12
 CISAX will form    12 AO SS matrices at one time.
 NMat=    12 NSing=    12 JSym2X= 2.
 Root      1 not converged, maximum delta is    0.212316991943275
 Excitation Energies [eV] at current iteration:
 Root      1 :     6.587006229834602   Change is   -3.963981736843526
 Root      2 :     7.877654693556106   Change is   -4.384032409853313
 Root      3 :    11.160340856332500   Change is   -3.378879149916155
 Root      4 :    12.541898041514920   Change is   -0.841606580799498
 Root      5 :    12.613181382348340   Change is   -0.880583683387769
 Root      6 :    13.808821774831210   Change is   -1.156467061710949
 Root      7 :    14.623555665540310   Change is   -0.767526843437416
 Root      8 :    14.666364419947570   Change is   -0.397953743326699
 Root      9 :    15.146474899521790   Change is   -2.419463541552094
 Root     10 :    15.723301967762650   Change is   -1.624536377487753
 Root     11 :    16.546382607070910   Change is   -0.616103399749277
 Root     12 :    17.254341913988090   Change is   -1.273052320467444
 Iteration     3 Dimension    27 NMult    24 NNew      3
 CISAX will form     3 AO SS matrices at one time.
 NMat=     3 NSing=     3 JSym2X= 2.
 Root      1 not converged, maximum delta is    0.027623381612218
 Excitation Energies [eV] at current iteration:
 Root      1 :     6.509422463931032   Change is   -0.077583765903570
 Root      2 :     7.467116158937975   Change is   -0.410538534618131
 Root      3 :     8.487123317033788   Change is   -2.673217539298712
 Iteration     4 Dimension    30 NMult    27 NNew      3
 CISAX will form     3 AO SS matrices at one time.
 NMat=     3 NSing=     3 JSym2X= 2.
 Root      1 not converged, maximum delta is    0.001808005098431
 Excitation Energies [eV] at current iteration:
 Root      1 :     6.508992237872510   Change is   -0.000430226058522
 Root      2 :     7.464227457394398   Change is   -0.002888701543577
 Root      3 :     8.468278392967147   Change is   -0.018844924066642
 Iteration     5 Dimension    33 NMult    30 NNew      3
 CISAX will form     3 AO SS matrices at one time.
 NMat=     3 NSing=     3 JSym2X= 2.
 Root      1 has converged.
 Excitation Energies [eV] at current iteration:
 Root      1 :     6.508985718440531   Change is   -0.000006519431980
 Root      2 :     7.464145604648188   Change is   -0.000081852746210
 Root      3 :     8.467899403622383   Change is   -0.000378989344763
 Convergence achieved on expansion vectors.
 ***********************************************************************
 Stability analysis using <AA,BB:AA,BB> singles matrix:
 ***********************************************************************

 Eigenvectors of the stability matrix:
 
 Eigenvector   1:  3.555-AG   Eigenvalue= 0.2392008  <S**2>=2.910
      1A -> 10A       -0.17483
      2A ->  9A       -0.15829
      3A ->  8A       -0.22261
      4A ->  7A        0.46810
      4A ->  9A        0.10241
      5A ->  7A       -0.34242
      1B -> 10B        0.17483
      2B ->  9B        0.15829
      3B ->  8B        0.22261
      4B ->  7B       -0.46810
      4B ->  9B       -0.10241
      5B ->  7B        0.34242
 SavETr:  write IOETrn=   770 NScale= 10 NData=  16 NLR=1 NState=    1 LETran=      28.
 The wavefunction is stable under the perturbations considered.
 Leave Link  914 at Fri Feb 24 16:25:08 2017, MaxMem=   134217728 cpu:         0.1
 (Enter /projects/guscus/apps/gau/g09-e1/g09/l508.exe)
 The wavefunction is already stable.
 Leave Link  508 at Fri Feb 24 16:25:08 2017, MaxMem=   134217728 cpu:         0.0
 (Enter /projects/guscus/apps/gau/g09-e1/g09/l601.exe)
 Copying SCF densities to generalized density rwf, IOpCl= 1 IROHF=0.

 **********************************************************************

            Population analysis using the SCF density.

 **********************************************************************

 Orbital symmetries:
 Alpha Orbitals:
       Occupied  (BG) (BG) (BG) (BG) (BG)
       Virtual   (BG) (BG) (BG) (BG) (BG)
 Beta  Orbitals:
       Occupied  (BG) (BG) (BG) (BG) (BG)
       Virtual   (BG) (BG) (BG) (BG) (BG)
 Unable to determine electronic state:  partially filled degenerate orbitals.
 Alpha  occ. eigenvalues --   -0.74399  -0.69701  -0.61869  -0.52157  -0.43130
 Alpha virt. eigenvalues --    0.17347   0.27095   0.36650   0.51264   0.65888
  Beta  occ. eigenvalues --   -0.74399  -0.69701  -0.61869  -0.52157  -0.43130
  Beta virt. eigenvalues --    0.17347   0.27095   0.36650   0.51264   0.65888
          Condensed to atoms (all electrons):
               1          2          3          4          5          6
     1  H    0.690815  -0.071239  -0.080586   0.524977   0.002327  -0.064069
     2  H   -0.071239   1.142894   0.001044  -0.067615   0.000004   0.001898
     3  H   -0.080586   0.001044   0.733577  -0.070235  -0.083643   0.561476
     4  H    0.524977  -0.067615  -0.070235   0.678576   0.001741  -0.077958
     5  H    0.002327   0.000004  -0.083643   0.001741   0.731434  -0.075535
     6  H   -0.064069   0.001898   0.561476  -0.077958  -0.075535   0.731434
     7  H   -0.000028  -0.000001   0.002160  -0.000010  -0.077958   0.001741
     8  H    0.002119  -0.000016  -0.066428   0.002160   0.561476  -0.083643
     9  H   -0.000000   0.000000  -0.000016  -0.000001   0.001898   0.000004
    10  H   -0.000035  -0.000000   0.002119  -0.000028  -0.064069   0.002327
               7          8          9         10
     1  H   -0.000028   0.002119  -0.000000  -0.000035
     2  H   -0.000001  -0.000016   0.000000  -0.000000
     3  H    0.002160  -0.066428  -0.000016   0.002119
     4  H   -0.000010   0.002160  -0.000001  -0.000028
     5  H   -0.077958   0.561476   0.001898  -0.064069
     6  H    0.001741  -0.083643   0.000004   0.002327
     7  H    0.678576  -0.070235  -0.067615   0.524977
     8  H   -0.070235   0.733577   0.001044  -0.080586
     9  H   -0.067615   0.001044   1.142894  -0.071239
    10  H    0.524977  -0.080586  -0.071239   0.690815
          Atomic-Atomic Spin Densities.
               1          2          3          4          5          6
     1  H    0.057246  -0.078946  -0.003653   0.037965   0.000118  -0.004902
     2  H   -0.078946   1.140846   0.002539  -0.074902  -0.000051   0.003217
     3  H   -0.003653   0.002539  -0.003659  -0.002950   0.000982   0.003020
     4  H    0.037965  -0.074902  -0.002950   0.041845   0.000115  -0.005821
     5  H    0.000118  -0.000051   0.000982   0.000115  -0.012120  -0.000000
     6  H   -0.004902   0.003217   0.003020  -0.005821  -0.000000   0.012120
     7  H    0.000001   0.000001  -0.000189   0.000000   0.005821  -0.000115
     8  H    0.000159  -0.000064   0.000000   0.000189  -0.003020  -0.000982
     9  H   -0.000001   0.000000   0.000064  -0.000001  -0.003217   0.000051
    10  H   -0.000000   0.000001  -0.000159  -0.000001   0.004902  -0.000118
               7          8          9         10
     1  H    0.000001   0.000159  -0.000001  -0.000000
     2  H    0.000001  -0.000064   0.000000   0.000001
     3  H   -0.000189   0.000000   0.000064  -0.000159
     4  H    0.000000   0.000189  -0.000001  -0.000001
     5  H    0.005821  -0.003020  -0.003217   0.004902
     6  H   -0.000115  -0.000982   0.000051  -0.000118
     7  H   -0.041845   0.002950   0.074902  -0.037965
     8  H    0.002950   0.003659  -0.002539   0.003653
     9  H    0.074902  -0.002539  -1.140846   0.078946
    10  H   -0.037965   0.003653   0.078946  -0.057246
 Mulliken charges and spin densities:
               1          2
     1  H   -0.004281   0.007987
     2  H   -0.006970   0.992641
     3  H    0.000532  -0.004005
     4  H    0.008392  -0.003561
     5  H    0.002326  -0.006470
     6  H    0.002326   0.006470
     7  H    0.008392   0.003561
     8  H    0.000532   0.004005
     9  H   -0.006970  -0.992641
    10  H   -0.004281  -0.007987
 Sum of Mulliken charges =  -0.00000   0.00000
 Mulliken charges and spin densities with hydrogens summed into heavy atoms:
               1          2
 Electronic spatial extent (au):  <R**2>=            253.5719
 Charge=             -0.0000 electrons
 Dipole moment (field-independent basis, Debye):
    X=             -0.0000    Y=             -0.0000    Z=             -0.0000  Tot=              0.0000
 Quadrupole moment (field-independent basis, Debye-Ang):
   XX=            -12.2555   YY=            -18.4001   ZZ=            -12.8980
   XY=              2.5663   XZ=              0.0000   YZ=              0.0000
 Traceless Quadrupole moment (field-independent basis, Debye-Ang):
   XX=              2.2623   YY=             -3.8822   ZZ=              1.6199
   XY=              2.5663   XZ=              0.0000   YZ=              0.0000
 Octapole moment (field-independent basis, Debye-Ang**2):
  XXX=              0.0000  YYY=             -0.0000  ZZZ=             -0.0000  XYY=              0.0000
  XXY=             -0.0000  XXZ=             -0.0000  XZZ=             -0.0000  YZZ=             -0.0000
  YYZ=             -0.0000  XYZ=              0.0000
 Hexadecapole moment (field-independent basis, Debye-Ang**3):
 XXXX=            -86.8178 YYYY=           -553.5674 ZZZZ=            -15.5891 XXXY=             84.9676
 XXXZ=             -0.0000 YYYX=            130.2654 YYYZ=              0.0000 ZZZX=             -0.0000
 ZZZY=              0.0000 XXYY=           -100.5441 XXZZ=            -17.6270 YYZZ=            -74.9591
 XXYZ=              0.0000 YYXZ=             -0.0000 ZZXY=             28.1186
 N-N= 1.108305868419D+01 E-N=-3.165769655851D+01  KE= 5.136479051706D+00
 Symmetry AG   KE= 2.235752853069D+00
 Symmetry BG   KE= 0.000000000000D+00
 Symmetry AU   KE= 0.000000000000D+00
 Symmetry BU   KE= 2.900726198636D+00
                          Isotropic Fermi Contact Couplings
        Atom                 a.u.       MegaHertz       Gauss      10(-4) cm-1
     1  H(1)               0.01861      41.58247      14.83766      13.87042
     2  H(1)               0.34344     767.55810     273.88381     256.02982
     3  H(1)              -0.00081      -1.80140      -0.64278      -0.60088
     4  H(1)               0.01425      31.84540      11.36323      10.62248
     5  H(1)              -0.00351      -7.84337      -2.79871      -2.61627
     6  H(1)               0.00351       7.84337       2.79871       2.61627
     7  H(1)              -0.01425     -31.84540     -11.36323     -10.62248
     8  H(1)               0.00081       1.80140       0.64278       0.60088
     9  H(1)              -0.34344    -767.55810    -273.88381    -256.02982
    10  H(1)              -0.01861     -41.58247     -14.83766     -13.87042
 --------------------------------------------------------
       Center         ----  Spin Dipole Couplings  ----
                      3XX-RR        3YY-RR        3ZZ-RR
 --------------------------------------------------------
     1   Atom       -0.009043      0.035663     -0.026620
     2   Atom        0.005229     -0.012659      0.007431
     3   Atom       -0.001102      0.006583     -0.005481
     4   Atom        0.001694      0.026631     -0.028326
     5   Atom        0.000804     -0.003694      0.002890
     6   Atom       -0.000804      0.003694     -0.002890
     7   Atom       -0.001694     -0.026631      0.028326
     8   Atom        0.001102     -0.006583      0.005481
     9   Atom       -0.005229      0.012659     -0.007431
    10   Atom        0.009043     -0.035663      0.026620
 --------------------------------------------------------
                        XY            XZ            YZ
 --------------------------------------------------------
     1   Atom        0.000175      0.000000      0.000000
     2   Atom        0.004289      0.000000     -0.000000
     3   Atom       -0.001690      0.000000     -0.000000
     4   Atom       -0.015064      0.000000      0.000000
     5   Atom        0.004480      0.000000     -0.000000
     6   Atom       -0.004480      0.000000     -0.000000
     7   Atom        0.015064      0.000000     -0.000000
     8   Atom        0.001690      0.000000     -0.000000
     9   Atom       -0.004289     -0.000000      0.000000
    10   Atom       -0.000175      0.000000     -0.000000
 --------------------------------------------------------


 ---------------------------------------------------------------------------------
              Anisotropic Spin Dipole Couplings in Principal Axis System
 ---------------------------------------------------------------------------------

       Atom             a.u.   MegaHertz   Gauss  10(-4) cm-1        Axes

              Baa    -0.0266   -14.203    -5.068    -4.738  0.0000  0.0000  1.0000
     1 H(1)   Bbb    -0.0090    -4.825    -1.722    -1.610  1.0000 -0.0039  0.0000
              Bcc     0.0357    19.028     6.790     6.347  0.0039  1.0000 -0.0000
 
              Baa    -0.0136    -7.275    -2.596    -2.427 -0.2217  0.9751  0.0000
     2 H(1)   Bbb     0.0062     3.310     1.181     1.104  0.9751  0.2217  0.0000
              Bcc     0.0074     3.965     1.415     1.322  0.0000  0.0000  1.0000
 
              Baa    -0.0055    -2.924    -1.043    -0.975  0.0000  0.0000  1.0000
     3 H(1)   Bbb    -0.0015    -0.778    -0.277    -0.259  0.9786  0.2057  0.0000
              Bcc     0.0069     3.702     1.321     1.235 -0.2057  0.9786  0.0000
 
              Baa    -0.0283   -15.113    -5.393    -5.041  0.0000  0.0000  1.0000
     4 H(1)   Bbb    -0.0054    -2.877    -1.026    -0.960  0.9049  0.4257 -0.0000
              Bcc     0.0337    17.990     6.419     6.001 -0.4257  0.9049  0.0000
 
              Baa    -0.0065    -3.446    -1.229    -1.149 -0.5250  0.8511  0.0000
     5 H(1)   Bbb     0.0029     1.542     0.550     0.514  0.0000  0.0000  1.0000
              Bcc     0.0036     1.903     0.679     0.635  0.8511  0.5250  0.0000
 
              Baa    -0.0036    -1.903    -0.679    -0.635  0.8511  0.5250  0.0000
     6 H(1)   Bbb    -0.0029    -1.542    -0.550    -0.514  0.0000  0.0000  1.0000
              Bcc     0.0065     3.446     1.229     1.149 -0.5250  0.8511  0.0000
 
              Baa    -0.0337   -17.990    -6.419    -6.001 -0.4257  0.9049  0.0000
     7 H(1)   Bbb     0.0054     2.877     1.026     0.960  0.9049  0.4257  0.0000
              Bcc     0.0283    15.113     5.393     5.041  0.0000  0.0000  1.0000
 
              Baa    -0.0069    -3.702    -1.321    -1.235 -0.2057  0.9786  0.0000
     8 H(1)   Bbb     0.0015     0.778     0.277     0.259  0.9786  0.2057  0.0000
              Bcc     0.0055     2.924     1.043     0.975  0.0000  0.0000  1.0000
 
              Baa    -0.0074    -3.965    -1.415    -1.322  0.0000  0.0000  1.0000
     9 H(1)   Bbb    -0.0062    -3.310    -1.181    -1.104  0.9751  0.2217  0.0000
              Bcc     0.0136     7.275     2.596     2.427 -0.2217  0.9751  0.0000
 
              Baa    -0.0357   -19.028    -6.790    -6.347  0.0039  1.0000  0.0000
    10 H(1)   Bbb     0.0090     4.825     1.722     1.610  1.0000 -0.0039  0.0000
              Bcc     0.0266    14.203     5.068     4.738  0.0000  0.0000  1.0000
 

 ---------------------------------------------------------------------------------

 No NMR shielding tensors so no spin-rotation constants.
 Leave Link  601 at Fri Feb 24 16:25:08 2017, MaxMem=   134217728 cpu:         0.1
 (Enter /projects/guscus/apps/gau/g09-e1/g09/l9999.exe)

 Test job not archived.
 1\1\GINC-SULU\Stability\UHF\Gen\H10\LCJ1\24-Feb-2017\0\\#p uhf/gen scf
 (tight,novaracc,noincfock,fulldiag ) stable=opt guess=(read) geom=nocr
 owd test\\hf stability analysis of h10 triangular lattice, y= 0.356284
 56745073178 alpha= 12.400000000000000\\0,1\H\H,1,1.6591799886\H,1,1.65
 91799886,2,155.2\H,2,1.6591799886,1,24.8,3,0.,0\H,3,1.6591799886,1,180
 .,2,0.,0\H,4,1.6591799886,2,180.,1,0.,0\H,5,1.6591799886,3,180.,2,0.,0
 \H,6,1.6591799886,4,180.,1,0.,0\H,7,1.6591799886,5,180.,2,0.,0\H,8,1.6
 591799886,6,180.,1,0.,0\\Version=ES64L-G09RevE.01\HF=-5.1901206\S2=1.0
 00006\S2-1=0.\S2A=0.000393\RMSD=6.713e-09\Dipole=0.,0.,0.\Quadrupole=1
 .6819866,1.2043291,-2.8863157,0.,1.9080034,0.\PG=C02H [SGH(H10)]\\@


 I KNOW YOU BELIEVE YOU UNDERSTAND WHAT YOU THINK I SAID,
 BUT I AM NOT SURE YOU REALIZE THAT WHAT YOU HEARD IS NOT WHAT I MEANT.
 Job cpu time:       0 days  0 hours  0 minutes  0.8 seconds.
 File lengths (MBytes):  RWF=     82 Int=      0 D2E=      0 Chk=      2 Scr=      2
 Normal termination of Gaussian 09 at Fri Feb 24 16:25:08 2017.
