 Entering Gaussian System, Link 0=g09
 AtFile(1): H.gbs
            H     0
            S   10   1.00
               1000.000000000000            0.000068713567
                316.227766000000            0.000169141320
                100.000000000000            0.000823394812
                 31.622776600000            0.003425569236
                 10.000000000000            0.013951996000
                  3.162277660000            0.056909313560
                  1.000000000000            0.198286399900
                  0.316227766000            0.496922426700
                  0.100000000000            0.369846276400
                  0.031622776600            0.003752720039
            ****
 Initial command:
 /projects/guscus/apps/gau/g09-e1/g09/l1.exe "/users/lcj1/gaussian/h10/2rows_uhf/ag2bu3/singlet/follow20/test/Gau-29771.inp" -scrdir="/users/lcj1/gaussian/h10/2rows_uhf/ag2bu3/singlet/follow20/test/"
 Entering Link 1 = /projects/guscus/apps/gau/g09-e1/g09/l1.exe PID=     29772.
  
 Copyright (c) 1988,1990,1992,1993,1995,1998,2003,2009,2015,
            Gaussian, Inc.  All Rights Reserved.
  
 This is part of the Gaussian(R) 09 program.  It is based on
 the Gaussian(R) 03 system (copyright 2003, Gaussian, Inc.),
 the Gaussian(R) 98 system (copyright 1998, Gaussian, Inc.),
 the Gaussian(R) 94 system (copyright 1995, Gaussian, Inc.),
 the Gaussian 92(TM) system (copyright 1992, Gaussian, Inc.),
 the Gaussian 90(TM) system (copyright 1990, Gaussian, Inc.),
 the Gaussian 88(TM) system (copyright 1988, Gaussian, Inc.),
 the Gaussian 86(TM) system (copyright 1986, Carnegie Mellon
 University), and the Gaussian 82(TM) system (copyright 1983,
 Carnegie Mellon University). Gaussian is a federally registered
 trademark of Gaussian, Inc.
  
 This software contains proprietary and confidential information,
 including trade secrets, belonging to Gaussian, Inc.
  
 This software is provided under written license and may be
 used, copied, transmitted, or stored only in accord with that
 written license.
  
 The following legend is applicable only to US Government
 contracts under FAR:
  
                    RESTRICTED RIGHTS LEGEND
  
 Use, reproduction and disclosure by the US Government is
 subject to restrictions as set forth in subparagraphs (a)
 and (c) of the Commercial Computer Software - Restricted
 Rights clause in FAR 52.227-19.
  
 Gaussian, Inc.
 340 Quinnipiac St., Bldg. 40, Wallingford CT 06492
  
  
 ---------------------------------------------------------------
 Warning -- This program may not be used in any manner that
 competes with the business of Gaussian, Inc. or will provide
 assistance to any competitor of Gaussian, Inc.  The licensee
 of this program is prohibited from giving any competitor of
 Gaussian, Inc. access to this program.  By using this program,
 the user acknowledges that Gaussian, Inc. is engaged in the
 business of creating and licensing software in the field of
 computational chemistry and represents and warrants to the
 licensee that it is not a competitor of Gaussian, Inc. and that
 it will not use this program in any manner prohibited above.
 ---------------------------------------------------------------
  

 Cite this work as:
 Gaussian 09, Revision E.01,
 M. J. Frisch, G. W. Trucks, H. B. Schlegel, G. E. Scuseria, 
 M. A. Robb, J. R. Cheeseman, G. Scalmani, V. Barone, B. Mennucci, 
 G. A. Petersson, H. Nakatsuji, M. Caricato, X. Li, H. P. Hratchian, 
 A. F. Izmaylov, J. Bloino, G. Zheng, J. L. Sonnenberg, M. Hada, 
 M. Ehara, K. Toyota, R. Fukuda, J. Hasegawa, M. Ishida, T. Nakajima, 
 Y. Honda, O. Kitao, H. Nakai, T. Vreven, J. A. Montgomery, Jr., 
 J. E. Peralta, F. Ogliaro, M. Bearpark, J. J. Heyd, E. Brothers, 
 K. N. Kudin, V. N. Staroverov, T. Keith, R. Kobayashi, J. Normand, 
 K. Raghavachari, A. Rendell, J. C. Burant, S. S. Iyengar, J. Tomasi, 
 M. Cossi, N. Rega, J. M. Millam, M. Klene, J. E. Knox, J. B. Cross, 
 V. Bakken, C. Adamo, J. Jaramillo, R. Gomperts, R. E. Stratmann, 
 O. Yazyev, A. J. Austin, R. Cammi, C. Pomelli, J. W. Ochterski, 
 R. L. Martin, K. Morokuma, V. G. Zakrzewski, G. A. Voth, 
 P. Salvador, J. J. Dannenberg, S. Dapprich, A. D. Daniels, 
 O. Farkas, J. B. Foresman, J. V. Ortiz, J. Cioslowski, 
 and D. J. Fox, Gaussian, Inc., Wallingford CT, 2013.
 
 ******************************************
 Gaussian 09:  ES64L-G09RevE.01 30-Nov-2015
                24-Feb-2017 
 ******************************************
 %chk=h10.chk
 ----------------------------------------------------------------------
 #p uhf/gen scf(tight,novaracc,noincfock,fulldiag ) stable=opt guess=(r
 ead) geom=nocrowd test
 ----------------------------------------------------------------------
 1/38=1/1;
 2/12=1,17=6,18=5,40=1/2;
 3/5=7,11=2,16=1,25=1,30=1,116=2/1,2,3;
 4/5=1/1;
 5/5=100002,16=1,32=2,38=6/2;
 6/7=2,8=2,9=2,10=2,28=1/1;
 8/6=1,10=90,11=11/1;
 9/8=-3,42=1,46=1/14;
 5/5=100002,8=3,16=1,17=40,32=2,38=6/8(-2);
 6/7=2,8=2,9=2,10=2,28=1/1;
 99/5=1,9=1/99;
 Leave Link    1 at Fri Feb 24 16:27:41 2017, MaxMem=           0 cpu:         0.0
 (Enter /projects/guscus/apps/gau/g09-e1/g09/l101.exe)
 ----------------------------------------------------------------------
 hf stability analysis of h10 triangular lattice, y= 0.5353495790625147
 9 alpha= 26.399999999999999
 ----------------------------------------------------------------------
 Symbolic Z-matrix:
 Charge =  0 Multiplicity = 1
 H
 H                    1     1.20402 
 H                    1     1.20402  2     127.2 
 H                    2     1.20402  1     52.8     3     0.       0
 H                    3     1.20402  1     180.     2     0.       0
 H                    4     1.20402  2     180.     1     0.       0
 H                    5     1.20402  3     180.     2     0.       0
 H                    6     1.20402  4     180.     1     0.       0
 H                    7     1.20402  5     180.     2     0.       0
 H                    8     1.20402  6     180.     1     0.       0
 
 NAtoms=     10 NQM=       10 NQMF=       0 NMMI=      0 NMMIF=      0
                NMic=       0 NMicF=      0.
                    Isotopes and Nuclear Properties:
 (Nuclear quadrupole moments (NQMom) in fm**2, nuclear magnetic moments (NMagM)
  in nuclear magnetons)

  Atom         1           2           3           4           5           6           7           8           9          10
 IAtWgt=           1           1           1           1           1           1           1           1           1           1
 AtmWgt=   1.0078250   1.0078250   1.0078250   1.0078250   1.0078250   1.0078250   1.0078250   1.0078250   1.0078250   1.0078250
 NucSpn=           1           1           1           1           1           1           1           1           1           1
 AtZEff=   0.0000000   0.0000000   0.0000000   0.0000000   0.0000000   0.0000000   0.0000000   0.0000000   0.0000000   0.0000000
 NQMom=    0.0000000   0.0000000   0.0000000   0.0000000   0.0000000   0.0000000   0.0000000   0.0000000   0.0000000   0.0000000
 NMagM=    2.7928460   2.7928460   2.7928460   2.7928460   2.7928460   2.7928460   2.7928460   2.7928460   2.7928460   2.7928460
 AtZNuc=   1.0000000   1.0000000   1.0000000   1.0000000   1.0000000   1.0000000   1.0000000   1.0000000   1.0000000   1.0000000
 Leave Link  101 at Fri Feb 24 16:27:41 2017, MaxMem=   134217728 cpu:         0.0
 (Enter /projects/guscus/apps/gau/g09-e1/g09/l202.exe)
                          Input orientation:                          
 ---------------------------------------------------------------------
 Center     Atomic      Atomic             Coordinates (Angstroms)
 Number     Number       Type             X           Y           Z
 ---------------------------------------------------------------------
      1          1           0        0.000000    0.000000    0.000000
      2          1           0        0.000000    0.000000    1.204020
      3          1           0        0.959038    0.000000   -0.727949
      4          1           0        0.959038    0.000000    0.476070
      5          1           0        1.918076    0.000000   -1.455899
      6          1           0        1.918076    0.000000   -0.251879
      7          1           0        2.877113    0.000000   -2.183848
      8          1           0        2.877113    0.000000   -0.979828
      9          1           0        3.836151    0.000000   -2.911797
     10          1           0        3.836151    0.000000   -1.707777
 ---------------------------------------------------------------------
                    Distance matrix (angstroms):
                    1          2          3          4          5
     1  H    0.000000
     2  H    1.204020   0.000000
     3  H    1.204020   2.156909   0.000000
     4  H    1.070699   1.204020   1.204020   0.000000
     5  H    2.408040   3.279357   1.204020   2.156909   0.000000
     6  H    1.934543   2.408040   1.070699   1.204020   1.204020
     7  H    3.612059   4.444708   2.408040   3.279357   1.204020
     8  H    3.039382   3.612059   1.934543   2.408040   1.070699
     9  H    4.816079   5.626367   3.612059   4.444708   2.408040
    10  H    4.199114   4.816079   3.039382   3.612059   1.934543
                    6          7          8          9         10
     6  H    0.000000
     7  H    2.156909   0.000000
     8  H    1.204020   1.204020   0.000000
     9  H    3.279357   1.204020   2.156909   0.000000
    10  H    2.408040   1.070699   1.204020   1.204020   0.000000
 Stoichiometry    H10
 Framework group  C2H[SGH(H10)]
 Deg. of freedom     9
 Full point group                 C2H     NOp   4
 Largest Abelian subgroup         C2H     NOp   4
 Largest concise Abelian subgroup C2      NOp   2
                         Standard orientation:                         
 ---------------------------------------------------------------------
 Center     Atomic      Atomic             Coordinates (Angstroms)
 Number     Number       Type             X           Y           Z
 ---------------------------------------------------------------------
      1          1           0        1.918076   -0.853889    0.000000
      2          1           0        1.918076   -2.057909    0.000000
      3          1           0        0.959038   -0.125939    0.000000
      4          1           0        0.959038   -1.329959    0.000000
      5          1           0        0.000000    0.602010    0.000000
      6          1           0       -0.000000   -0.602010    0.000000
      7          1           0       -0.959038    1.329959   -0.000000
      8          1           0       -0.959038    0.125939    0.000000
      9          1           0       -1.918076    2.057909   -0.000000
     10          1           0       -1.918076    0.853889    0.000000
 ---------------------------------------------------------------------
 Rotational constants (GHZ):    228.8617370     16.4809481     15.3738368
 Leave Link  202 at Fri Feb 24 16:27:41 2017, MaxMem=   134217728 cpu:         0.0
 (Enter /projects/guscus/apps/gau/g09-e1/g09/l301.exe)
 General basis read from cards:  (5D, 7F)
 Centers:       1      2      3      4      5      6      7      8      9     10
 S 10 1.00
     Exponent=  1.0000000000D+03 Coefficients=  6.8713567000D-05
     Exponent=  3.1622776600D+02 Coefficients=  1.6914132000D-04
     Exponent=  1.0000000000D+02 Coefficients=  8.2339481200D-04
     Exponent=  3.1622776600D+01 Coefficients=  3.4255692360D-03
     Exponent=  1.0000000000D+01 Coefficients=  1.3951996000D-02
     Exponent=  3.1622776600D+00 Coefficients=  5.6909313560D-02
     Exponent=  1.0000000000D+00 Coefficients=  1.9828639990D-01
     Exponent=  3.1622776600D-01 Coefficients=  4.9692242670D-01
     Exponent=  1.0000000000D-01 Coefficients=  3.6984627640D-01
     Exponent=  3.1622776600D-02 Coefficients=  3.7527200390D-03
 ****
 Ernie: Thresh=  0.10000D-02 Tol=  0.10000D-05 Strict=F.
 There are     5 symmetry adapted cartesian basis functions of AG  symmetry.
 There are     0 symmetry adapted cartesian basis functions of BG  symmetry.
 There are     0 symmetry adapted cartesian basis functions of AU  symmetry.
 There are     5 symmetry adapted cartesian basis functions of BU  symmetry.
 There are     5 symmetry adapted basis functions of AG  symmetry.
 There are     0 symmetry adapted basis functions of BG  symmetry.
 There are     0 symmetry adapted basis functions of AU  symmetry.
 There are     5 symmetry adapted basis functions of BU  symmetry.
    10 basis functions,   100 primitive gaussians,    10 cartesian basis functions
     5 alpha electrons        5 beta electrons
       nuclear repulsion energy        12.9073338919 Hartrees.
 IExCor=    0 DFT=F Ex=HF Corr=None ExCW=0 ScaHFX=  1.000000
 ScaDFX=  1.000000  1.000000  1.000000  1.000000 ScalE2=  1.000000  1.000000
 IRadAn=      0 IRanWt=     -1 IRanGd=            0 ICorTp=0 IEmpDi=  4
 NAtoms=   10 NActive=   10 NUniq=    5 SFac= 4.00D+00 NAtFMM=   60 NAOKFM=F Big=F
 Integral buffers will be    131072 words long.
 Raffenetti 2 integral format.
 Two-electron integral symmetry is turned on.
 Leave Link  301 at Fri Feb 24 16:27:41 2017, MaxMem=   134217728 cpu:         0.0
 (Enter /projects/guscus/apps/gau/g09-e1/g09/l302.exe)
 NPDir=0 NMtPBC=     1 NCelOv=     1 NCel=       1 NClECP=     1 NCelD=      1
         NCelK=      1 NCelE2=     1 NClLst=     1 CellRange=     0.0.
 One-electron integrals computed using PRISM.
 One-electron integral symmetry used in STVInt
 NBasis=    10 RedAO= T EigKep=  1.94D-01  NBF=     5     0     0     5
 NBsUse=    10 1.00D-06 EigRej= -1.00D+00 NBFU=     5     0     0     5
 Leave Link  302 at Fri Feb 24 16:27:41 2017, MaxMem=   134217728 cpu:         0.0
 (Enter /projects/guscus/apps/gau/g09-e1/g09/l303.exe)
 DipDrv:  MaxL=1.
 Leave Link  303 at Fri Feb 24 16:27:41 2017, MaxMem=   134217728 cpu:         0.0
 (Enter /projects/guscus/apps/gau/g09-e1/g09/l401.exe)
 Initial guess from the checkpoint file:  "h10.chk"
 B after Tr=    -0.000000    0.000000    0.000000
         Rot=    0.999995   -0.000000   -0.000000   -0.003103 Ang=  -0.36 deg.
 Guess basis will be translated and rotated to current coordinates.
 JPrj=2 DoOrth=T DoCkMO=T.
 Initial guess orbital symmetries:
 Alpha Orbitals:
       Occupied  (BG) (BG) (BG) (BG) (BG)
       Virtual   (BG) (BG) (BG) (BG) (BG)
 Beta  Orbitals:
       Occupied  (BG) (BG) (BG) (BG) (BG)
       Virtual   (BG) (BG) (BG) (BG) (BG)
 Initial guess <Sx>= 0.0000 <Sy>= 0.0000 <Sz>= 0.0000 <S**2>= 0.9547 S= 0.5976
 Leave Link  401 at Fri Feb 24 16:27:41 2017, MaxMem=   134217728 cpu:         0.1
 (Enter /projects/guscus/apps/gau/g09-e1/g09/l502.exe)
 UHF open shell SCF:
 Using DIIS extrapolation, IDIIS=  1040.
 Integral symmetry usage will be decided dynamically.
 Keep R1 and R2 ints in memory in symmetry-blocked form, NReq=878571.
 IVT=       20217 IEndB=       20217 NGot=   134217728 MDV=   134195632
 LenX=   134195632 LenY=   134194750
 Requested convergence on RMS density matrix=1.00D-08 within 128 cycles.
 Requested convergence on MAX density matrix=1.00D-06.
 Requested convergence on             energy=1.00D-06.
 No special actions if energy rises.
 FoFCou: FMM=F IPFlag=           0 FMFlag=           0 FMFlg1=           0
         NFxFlg=           0 DoJE=F BraDBF=F KetDBF=F FulRan=T
         wScrn=  0.000000 ICntrl=     600 IOpCl=  0 I1Cent=           0 NGrid=           0
         NMat0=    1 NMatS0=     55 NMatT0=    0 NMatD0=    1 NMtDS0=    0 NMtDT0=    0
 Petite list used in FoFCou.
 An orbital has undefined symmetry, so N**3 symmetry is turned off.

 Cycle   1  Pass 1  IDiag  1:
 Density matrix breaks symmetry, PCut= 1.00D-04
 Density matrix has no symmetry -- integrals replicated.
 E= -4.87680499090857    
 DIIS: error= 5.91D-04 at cycle   1 NSaved=   1.
 NSaved= 1 IEnMin= 1 EnMin= -4.87680499090857     IErMin= 1 ErrMin= 5.91D-04
 ErrMax= 5.91D-04  0.00D+00 EMaxC= 1.00D-01 BMatC= 1.79D-05 BMatP= 1.79D-05
 IDIUse=3 WtCom= 9.94D-01 WtEn= 5.91D-03
 Coeff-Com:  0.100D+01
 Coeff-En:   0.100D+01
 Coeff:      0.100D+01
 Gap=     0.402 Goal=   None    Shift=    0.000
 Gap=     0.402 Goal=   None    Shift=    0.000
 RMSDP=9.12D-04 MaxDP=2.08D-03              OVMax= 0.00D+00

 Cycle   2  Pass 1  IDiag  1:
 Density matrix breaks symmetry, PCut= 1.00D-07
 Density matrix has no symmetry -- integrals replicated.
 E= -4.87682265454012     Delta-E=       -0.000017663632 Rises=F Damp=F
 DIIS: error= 2.08D-04 at cycle   2 NSaved=   2.
 NSaved= 2 IEnMin= 2 EnMin= -4.87682265454012     IErMin= 2 ErrMin= 2.08D-04
 ErrMax= 2.08D-04  0.00D+00 EMaxC= 1.00D-01 BMatC= 3.93D-06 BMatP= 1.79D-05
 IDIUse=3 WtCom= 9.98D-01 WtEn= 2.08D-03
 Coeff-Com: -0.511D+00 0.151D+01
 Coeff-En:   0.000D+00 0.100D+01
 Coeff:     -0.510D+00 0.151D+01
 Gap=     0.401 Goal=   None    Shift=    0.000
 Gap=     0.401 Goal=   None    Shift=    0.000
 RMSDP=7.24D-04 MaxDP=1.73D-03 DE=-1.77D-05 OVMax= 0.00D+00

 Cycle   3  Pass 1  IDiag  1:
 Density matrix breaks symmetry, PCut= 1.00D-07
 Density matrix has no symmetry -- integrals replicated.
 E= -4.87682953388024     Delta-E=       -0.000006879340 Rises=F Damp=F
 DIIS: error= 9.87D-05 at cycle   3 NSaved=   3.
 NSaved= 3 IEnMin= 3 EnMin= -4.87682953388024     IErMin= 3 ErrMin= 9.87D-05
 ErrMax= 9.87D-05  0.00D+00 EMaxC= 1.00D-01 BMatC= 1.09D-06 BMatP= 3.93D-06
 IDIUse=1 WtCom= 1.00D+00 WtEn= 0.00D+00
 Coeff-Com:  0.172D+00-0.789D+00 0.162D+01
 Coeff:      0.172D+00-0.789D+00 0.162D+01
 Gap=     0.400 Goal=   None    Shift=    0.000
 Gap=     0.400 Goal=   None    Shift=    0.000
 RMSDP=4.72D-04 MaxDP=1.21D-03 DE=-6.88D-06 OVMax= 0.00D+00

 Cycle   4  Pass 1  IDiag  1:
 Density matrix breaks symmetry, PCut= 1.00D-07
 Density matrix has no symmetry -- integrals replicated.
 E= -4.87683209819209     Delta-E=       -0.000002564312 Rises=F Damp=F
 DIIS: error= 5.18D-05 at cycle   4 NSaved=   4.
 NSaved= 4 IEnMin= 4 EnMin= -4.87683209819209     IErMin= 4 ErrMin= 5.18D-05
 ErrMax= 5.18D-05  0.00D+00 EMaxC= 1.00D-01 BMatC= 3.83D-07 BMatP= 1.09D-06
 IDIUse=1 WtCom= 1.00D+00 WtEn= 0.00D+00
 Coeff-Com:  0.131D+00-0.263D+00-0.686D+00 0.182D+01
 Coeff:      0.131D+00-0.263D+00-0.686D+00 0.182D+01
 Gap=     0.400 Goal=   None    Shift=    0.000
 Gap=     0.400 Goal=   None    Shift=    0.000
 RMSDP=4.58D-04 MaxDP=1.16D-03 DE=-2.56D-06 OVMax= 0.00D+00

 Cycle   5  Pass 1  IDiag  1:
 Density matrix breaks symmetry, PCut= 1.00D-07
 Density matrix has no symmetry -- integrals replicated.
 E= -4.87683338542853     Delta-E=       -0.000001287236 Rises=F Damp=F
 DIIS: error= 2.84D-05 at cycle   5 NSaved=   5.
 NSaved= 5 IEnMin= 5 EnMin= -4.87683338542853     IErMin= 5 ErrMin= 2.84D-05
 ErrMax= 2.84D-05  0.00D+00 EMaxC= 1.00D-01 BMatC= 7.55D-08 BMatP= 3.83D-07
 IDIUse=1 WtCom= 1.00D+00 WtEn= 0.00D+00
 Coeff-Com: -0.109D+00 0.321D+00 0.256D-01-0.109D+01 0.185D+01
 Coeff:     -0.109D+00 0.321D+00 0.256D-01-0.109D+01 0.185D+01
 Gap=     0.400 Goal=   None    Shift=    0.000
 Gap=     0.400 Goal=   None    Shift=    0.000
 RMSDP=2.33D-04 MaxDP=7.30D-04 DE=-1.29D-06 OVMax= 0.00D+00

 Cycle   6  Pass 1  IDiag  1:
 Density matrix breaks symmetry, PCut= 1.00D-07
 Density matrix has no symmetry -- integrals replicated.
 E= -4.87683364624427     Delta-E=       -0.000000260816 Rises=F Damp=F
 DIIS: error= 1.60D-05 at cycle   6 NSaved=   6.
 NSaved= 6 IEnMin= 6 EnMin= -4.87683364624427     IErMin= 6 ErrMin= 1.60D-05
 ErrMax= 1.60D-05  0.00D+00 EMaxC= 1.00D-01 BMatC= 1.91D-08 BMatP= 7.55D-08
 IDIUse=1 WtCom= 1.00D+00 WtEn= 0.00D+00
 Coeff-Com:  0.134D+00-0.416D+00 0.955D-01 0.125D+01-0.263D+01 0.257D+01
 Coeff:      0.134D+00-0.416D+00 0.955D-01 0.125D+01-0.263D+01 0.257D+01
 Gap=     0.400 Goal=   None    Shift=    0.000
 Gap=     0.400 Goal=   None    Shift=    0.000
 RMSDP=1.00D-04 MaxDP=2.98D-04 DE=-2.61D-07 OVMax= 0.00D+00

 Cycle   7  Pass 1  IDiag  1:
 Density matrix breaks symmetry, PCut= 1.00D-07
 Density matrix has no symmetry -- integrals replicated.
 E= -4.87683372416676     Delta-E=       -0.000000077922 Rises=F Damp=F
 DIIS: error= 1.15D-05 at cycle   7 NSaved=   7.
 NSaved= 7 IEnMin= 7 EnMin= -4.87683372416676     IErMin= 7 ErrMin= 1.15D-05
 ErrMax= 1.15D-05  0.00D+00 EMaxC= 1.00D-01 BMatC= 7.39D-09 BMatP= 1.91D-08
 IDIUse=1 WtCom= 1.00D+00 WtEn= 0.00D+00
 Coeff-Com: -0.131D+00 0.416D+00-0.119D+00-0.119D+01 0.260D+01-0.325D+01
 Coeff-Com:  0.268D+01
 Coeff:     -0.131D+00 0.416D+00-0.119D+00-0.119D+01 0.260D+01-0.325D+01
 Coeff:      0.268D+01
 Gap=     0.400 Goal=   None    Shift=    0.000
 Gap=     0.400 Goal=   None    Shift=    0.000
 RMSDP=9.26D-05 MaxDP=2.59D-04 DE=-7.79D-08 OVMax= 0.00D+00

 Cycle   8  Pass 1  IDiag  1:
 Density matrix breaks symmetry, PCut= 1.00D-07
 Density matrix has no symmetry -- integrals replicated.
 E= -4.87683376762760     Delta-E=       -0.000000043461 Rises=F Damp=F
 DIIS: error= 7.57D-06 at cycle   8 NSaved=   8.
 NSaved= 8 IEnMin= 8 EnMin= -4.87683376762760     IErMin= 8 ErrMin= 7.57D-06
 ErrMax= 7.57D-06  0.00D+00 EMaxC= 1.00D-01 BMatC= 2.38D-09 BMatP= 7.39D-09
 IDIUse=1 WtCom= 1.00D+00 WtEn= 0.00D+00
 Coeff-Com:  0.194D+00-0.617D+00 0.158D+00 0.182D+01-0.397D+01 0.534D+01
 Coeff-Com: -0.538D+01 0.347D+01
 Coeff:      0.194D+00-0.617D+00 0.158D+00 0.182D+01-0.397D+01 0.534D+01
 Coeff:     -0.538D+01 0.347D+01
 Gap=     0.400 Goal=   None    Shift=    0.000
 Gap=     0.400 Goal=   None    Shift=    0.000
 RMSDP=7.87D-05 MaxDP=2.65D-04 DE=-4.35D-08 OVMax= 0.00D+00

 Cycle   9  Pass 1  IDiag  1:
 Density matrix breaks symmetry, PCut= 1.00D-07
 Density matrix has no symmetry -- integrals replicated.
 E= -4.87683378612649     Delta-E=       -0.000000018499 Rises=F Damp=F
 DIIS: error= 2.75D-06 at cycle   9 NSaved=   9.
 NSaved= 9 IEnMin= 9 EnMin= -4.87683378612649     IErMin= 9 ErrMin= 2.75D-06
 ErrMax= 2.75D-06  0.00D+00 EMaxC= 1.00D-01 BMatC= 4.16D-10 BMatP= 2.38D-09
 IDIUse=1 WtCom= 1.00D+00 WtEn= 0.00D+00
 Coeff-Com: -0.175D+00 0.559D+00-0.161D+00-0.161D+01 0.356D+01-0.482D+01
 Coeff-Com:  0.498D+01-0.365D+01 0.232D+01
 Coeff:     -0.175D+00 0.559D+00-0.161D+00-0.161D+01 0.356D+01-0.482D+01
 Coeff:      0.498D+01-0.365D+01 0.232D+01
 Gap=     0.400 Goal=   None    Shift=    0.000
 Gap=     0.400 Goal=   None    Shift=    0.000
 RMSDP=3.21D-05 MaxDP=1.05D-04 DE=-1.85D-08 OVMax= 0.00D+00

 Cycle  10  Pass 1  IDiag  1:
 Density matrix breaks symmetry, PCut= 1.00D-07
 Density matrix has no symmetry -- integrals replicated.
 E= -4.87683378870490     Delta-E=       -0.000000002578 Rises=F Damp=F
 DIIS: error= 7.56D-07 at cycle  10 NSaved=  10.
 NSaved=10 IEnMin=10 EnMin= -4.87683378870490     IErMin=10 ErrMin= 7.56D-07
 ErrMax= 7.56D-07  0.00D+00 EMaxC= 1.00D-01 BMatC= 4.51D-11 BMatP= 4.16D-10
 IDIUse=1 WtCom= 1.00D+00 WtEn= 0.00D+00
 Coeff-Com:  0.119D+00-0.381D+00 0.106D+00 0.110D+01-0.243D+01 0.328D+01
 Coeff-Com: -0.339D+01 0.253D+01-0.193D+01 0.198D+01
 Coeff:      0.119D+00-0.381D+00 0.106D+00 0.110D+01-0.243D+01 0.328D+01
 Coeff:     -0.339D+01 0.253D+01-0.193D+01 0.198D+01
 Gap=     0.400 Goal=   None    Shift=    0.000
 Gap=     0.400 Goal=   None    Shift=    0.000
 RMSDP=6.74D-06 MaxDP=2.08D-05 DE=-2.58D-09 OVMax= 0.00D+00

 Cycle  11  Pass 1  IDiag  1:
 Density matrix breaks symmetry, PCut= 1.00D-07
 Density matrix has no symmetry -- integrals replicated.
 E= -4.87683378885749     Delta-E=       -0.000000000153 Rises=F Damp=F
 DIIS: error= 1.78D-07 at cycle  11 NSaved=  11.
 NSaved=11 IEnMin=11 EnMin= -4.87683378885749     IErMin=11 ErrMin= 1.78D-07
 ErrMax= 1.78D-07  0.00D+00 EMaxC= 1.00D-01 BMatC= 2.76D-12 BMatP= 4.51D-11
 IDIUse=1 WtCom= 1.00D+00 WtEn= 0.00D+00
 Coeff-Com: -0.813D-01 0.259D+00-0.714D-01-0.753D+00 0.165D+01-0.224D+01
 Coeff-Com:  0.230D+01-0.173D+01 0.135D+01-0.156D+01 0.186D+01
 Coeff:     -0.813D-01 0.259D+00-0.714D-01-0.753D+00 0.165D+01-0.224D+01
 Coeff:      0.230D+01-0.173D+01 0.135D+01-0.156D+01 0.186D+01
 Gap=     0.400 Goal=   None    Shift=    0.000
 Gap=     0.400 Goal=   None    Shift=    0.000
 RMSDP=1.23D-06 MaxDP=3.55D-06 DE=-1.53D-10 OVMax= 0.00D+00

 Cycle  12  Pass 1  IDiag  1:
 Density matrix breaks symmetry, PCut= 1.00D-07
 Density matrix has no symmetry -- integrals replicated.
 E= -4.87683378886420     Delta-E=       -0.000000000007 Rises=F Damp=F
 DIIS: error= 4.02D-08 at cycle  12 NSaved=  12.
 NSaved=12 IEnMin=12 EnMin= -4.87683378886420     IErMin=12 ErrMin= 4.02D-08
 ErrMax= 4.02D-08  0.00D+00 EMaxC= 1.00D-01 BMatC= 2.13D-13 BMatP= 2.76D-12
 IDIUse=1 WtCom= 1.00D+00 WtEn= 0.00D+00
 Coeff-Com:  0.300D-01-0.954D-01 0.260D-01 0.278D+00-0.610D+00 0.824D+00
 Coeff-Com: -0.846D+00 0.633D+00-0.502D+00 0.606D+00-0.931D+00 0.159D+01
 Coeff:      0.300D-01-0.954D-01 0.260D-01 0.278D+00-0.610D+00 0.824D+00
 Coeff:     -0.846D+00 0.633D+00-0.502D+00 0.606D+00-0.931D+00 0.159D+01
 Gap=     0.400 Goal=   None    Shift=    0.000
 Gap=     0.400 Goal=   None    Shift=    0.000
 RMSDP=3.13D-07 MaxDP=8.09D-07 DE=-6.71D-12 OVMax= 0.00D+00

 Cycle  13  Pass 1  IDiag  1:
 Density matrix breaks symmetry, PCut= 1.00D-07
 Density matrix has no symmetry -- integrals replicated.
 E= -4.87683378886469     Delta-E=       -0.000000000000 Rises=F Damp=F
 DIIS: error= 1.86D-08 at cycle  13 NSaved=  13.
 NSaved=13 IEnMin=13 EnMin= -4.87683378886469     IErMin=13 ErrMin= 1.86D-08
 ErrMax= 1.86D-08  0.00D+00 EMaxC= 1.00D-01 BMatC= 1.91D-14 BMatP= 2.13D-13
 IDIUse=1 WtCom= 1.00D+00 WtEn= 0.00D+00
 Coeff-Com: -0.103D-02 0.327D-02-0.753D-03-0.997D-02 0.213D-01-0.279D-01
 Coeff-Com:  0.271D-01-0.191D-01 0.158D-01-0.233D-01 0.879D-01-0.498D+00
 Coeff-Com:  0.143D+01
 Coeff:     -0.103D-02 0.327D-02-0.753D-03-0.997D-02 0.213D-01-0.279D-01
 Coeff:      0.271D-01-0.191D-01 0.158D-01-0.233D-01 0.879D-01-0.498D+00
 Coeff:      0.143D+01
 Gap=     0.400 Goal=   None    Shift=    0.000
 Gap=     0.400 Goal=   None    Shift=    0.000
 RMSDP=1.01D-07 MaxDP=2.63D-07 DE=-4.97D-13 OVMax= 0.00D+00

 Cycle  14  Pass 1  IDiag  1:
 Density matrix breaks symmetry, PCut= 1.00D-07
 Density matrix has no symmetry -- integrals replicated.
 E= -4.87683378886473     Delta-E=       -0.000000000000 Rises=F Damp=F
 DIIS: error= 4.87D-09 at cycle  14 NSaved=  14.
 NSaved=14 IEnMin=14 EnMin= -4.87683378886473     IErMin=14 ErrMin= 4.87D-09
 ErrMax= 4.87D-09  0.00D+00 EMaxC= 1.00D-01 BMatC= 2.01D-15 BMatP= 1.91D-14
 IDIUse=1 WtCom= 1.00D+00 WtEn= 0.00D+00
 Coeff-Com:  0.163D-02-0.519D-02 0.132D-02 0.154D-01-0.334D-01 0.444D-01
 Coeff-Com: -0.444D-01 0.323D-01-0.258D-01 0.333D-01-0.827D-01 0.383D+00
 Coeff-Com: -0.120D+01 0.188D+01
 Coeff:      0.163D-02-0.519D-02 0.132D-02 0.154D-01-0.334D-01 0.444D-01
 Coeff:     -0.444D-01 0.323D-01-0.258D-01 0.333D-01-0.827D-01 0.383D+00
 Coeff:     -0.120D+01 0.188D+01
 Gap=     0.400 Goal=   None    Shift=    0.000
 Gap=     0.400 Goal=   None    Shift=    0.000
 RMSDP=2.29D-08 MaxDP=8.07D-08 DE=-3.91D-14 OVMax= 0.00D+00

 Cycle  15  Pass 1  IDiag  1:
 Density matrix breaks symmetry, PCut= 1.00D-07
 Density matrix has no symmetry -- integrals replicated.
 E= -4.87683378886475     Delta-E=       -0.000000000000 Rises=F Damp=F
 DIIS: error= 1.95D-09 at cycle  15 NSaved=  15.
 NSaved=15 IEnMin=15 EnMin= -4.87683378886475     IErMin=15 ErrMin= 1.95D-09
 ErrMax= 1.95D-09  0.00D+00 EMaxC= 1.00D-01 BMatC= 2.13D-16 BMatP= 2.01D-15
 IDIUse=1 WtCom= 1.00D+00 WtEn= 0.00D+00
 Coeff-Com: -0.164D-03 0.502D-03-0.346D-04-0.180D-02 0.351D-02-0.401D-02
 Coeff-Com:  0.291D-02-0.125D-02 0.130D-02-0.384D-02 0.364D-01-0.290D+00
 Coeff-Com:  0.106D+01-0.195D+01 0.214D+01
 Coeff:     -0.164D-03 0.502D-03-0.346D-04-0.180D-02 0.351D-02-0.401D-02
 Coeff:      0.291D-02-0.125D-02 0.130D-02-0.384D-02 0.364D-01-0.290D+00
 Coeff:      0.106D+01-0.195D+01 0.214D+01
 Gap=     0.400 Goal=   None    Shift=    0.000
 Gap=     0.400 Goal=   None    Shift=    0.000
 RMSDP=7.48D-09 MaxDP=3.30D-08 DE=-1.78D-14 OVMax= 0.00D+00

 Density matrix breaks symmetry, PCut= 1.00D-07
 Density matrix has no symmetry -- integrals replicated.
 SCF Done:  E(UHF) =  -4.87683378886     A.U. after   15 cycles
            NFock= 15  Conv=0.75D-08     -V/T= 1.9487
 <Sx>= 0.0000 <Sy>= 0.0000 <Sz>= 0.0000 <S**2>= 0.9474 S= 0.5942
 <L.S>= 0.000000000000E+00
 KE= 5.140316077450D+00 PE=-3.509754254521D+01 EE= 1.217305878698D+01
 Annihilation of the first spin contaminant:
 S**2 before annihilation     0.9474,   after     1.0500
 Leave Link  502 at Fri Feb 24 16:27:42 2017, MaxMem=   134217728 cpu:         0.1
 (Enter /projects/guscus/apps/gau/g09-e1/g09/l601.exe)
 Copying SCF densities to generalized density rwf, IOpCl= 1 IROHF=0.

 **********************************************************************

            Population analysis using the SCF density.

 **********************************************************************

 Orbital symmetries:
 Alpha Orbitals:
       Occupied  (BG) (BG) (BG) (BG) (BG)
       Virtual   (BG) (BG) (BG) (BG) (BG)
 Beta  Orbitals:
       Occupied  (BG) (BG) (BG) (BG) (BG)
       Virtual   (BG) (BG) (BG) (BG) (BG)
 Unable to determine electronic state:  partially filled degenerate orbitals.
 Alpha  occ. eigenvalues --   -0.84559  -0.72339  -0.56241  -0.33836  -0.33580
 Alpha virt. eigenvalues --    0.06439   0.17807   0.26141   0.45836   0.58084
  Beta  occ. eigenvalues --   -0.84559  -0.72339  -0.56241  -0.33836  -0.33580
  Beta virt. eigenvalues --    0.06439   0.17807   0.26141   0.45836   0.58084
          Condensed to atoms (all electrons):
               1          2          3          4          5          6
     1  H    0.796387   0.144844   0.126244  -0.042447   0.013618  -0.135269
     2  H    0.144844   0.968751  -0.127928   0.098407   0.002927  -0.044188
     3  H    0.126244  -0.127928   1.244947  -0.093328   0.085774   0.071478
     4  H   -0.042447   0.098407  -0.093328   0.813448  -0.085225   0.251550
     5  H    0.013618   0.002927   0.085774  -0.085225   0.956620  -0.142389
     6  H   -0.135269  -0.044188   0.071478   0.251550  -0.142389   0.956620
     7  H    0.004364   0.001112  -0.009409  -0.007059   0.251550  -0.085225
     8  H   -0.006050   0.009391  -0.161990  -0.009409   0.071478   0.085774
     9  H   -0.000231  -0.000234   0.009391   0.001112  -0.044188   0.002927
    10  H    0.000253  -0.000231  -0.006050   0.004364  -0.135269   0.013618
               7          8          9         10
     1  H    0.004364  -0.006050  -0.000231   0.000253
     2  H    0.001112   0.009391  -0.000234  -0.000231
     3  H   -0.009409  -0.161990   0.009391  -0.006050
     4  H   -0.007059  -0.009409   0.001112   0.004364
     5  H    0.251550   0.071478  -0.044188  -0.135269
     6  H   -0.085225   0.085774   0.002927   0.013618
     7  H    0.813448  -0.093328   0.098407  -0.042447
     8  H   -0.093328   1.244947  -0.127928   0.126244
     9  H    0.098407  -0.127928   0.968751   0.144844
    10  H   -0.042447   0.126244   0.144844   0.796387
          Atomic-Atomic Spin Densities.
               1          2          3          4          5          6
     1  H    0.598840   0.010110   0.067271  -0.168225   0.023328  -0.118378
     2  H    0.010110  -0.541686   0.016072   0.082417  -0.007857   0.015624
     3  H    0.067271   0.016072   0.325067  -0.264847   0.131020  -0.108599
     4  H   -0.168225   0.082417  -0.264847   0.439672  -0.022836   0.163867
     5  H    0.023328  -0.007857   0.131020  -0.022836  -0.405947  -0.000000
     6  H   -0.118378   0.015624  -0.108599   0.163867  -0.000000   0.405947
     7  H    0.001909  -0.000251  -0.011789  -0.000000  -0.163867   0.022836
     8  H    0.006496  -0.001051   0.000000   0.011789   0.108599  -0.131020
     9  H   -0.000578   0.000000   0.001051   0.000251  -0.015624   0.007857
    10  H   -0.000000   0.000578  -0.006496  -0.001909   0.118378  -0.023328
               7          8          9         10
     1  H    0.001909   0.006496  -0.000578  -0.000000
     2  H   -0.000251  -0.001051   0.000000   0.000578
     3  H   -0.011789   0.000000   0.001051  -0.006496
     4  H   -0.000000   0.011789   0.000251  -0.001909
     5  H   -0.163867   0.108599  -0.015624   0.118378
     6  H    0.022836  -0.131020   0.007857  -0.023328
     7  H   -0.439672   0.264847  -0.082417   0.168225
     8  H    0.264847  -0.325067  -0.016072  -0.067271
     9  H   -0.082417  -0.016072   0.541686  -0.010110
    10  H    0.168225  -0.067271  -0.010110  -0.598840
 Mulliken charges and spin densities:
               1          2
     1  H    0.098287   0.420773
     2  H   -0.052850  -0.426045
     3  H   -0.139129   0.148752
     4  H    0.068587   0.240178
     5  H    0.025106  -0.234805
     6  H    0.025106   0.234805
     7  H    0.068587  -0.240178
     8  H   -0.139129  -0.148752
     9  H   -0.052850   0.426045
    10  H    0.098287  -0.420773
 Sum of Mulliken charges =  -0.00000   0.00000
 Mulliken charges and spin densities with hydrogens summed into heavy atoms:
               1          2
 Electronic spatial extent (au):  <R**2>=            147.9319
 Charge=             -0.0000 electrons
 Dipole moment (field-independent basis, Debye):
    X=             -0.0000    Y=              0.0000    Z=             -0.0000  Tot=              0.0000
 Quadrupole moment (field-independent basis, Debye-Ang):
   XX=            -14.0083   YY=            -15.3277   ZZ=            -12.9692
   XY=              0.3798   XZ=             -0.0000   YZ=              0.0000
 Traceless Quadrupole moment (field-independent basis, Debye-Ang):
   XX=              0.0934   YY=             -1.2260   ZZ=              1.1326
   XY=              0.3798   XZ=             -0.0000   YZ=              0.0000
 Octapole moment (field-independent basis, Debye-Ang**2):
  XXX=             -0.0000  YYY=              0.0000  ZZZ=             -0.0000  XYY=             -0.0000
  XXY=              0.0000  XXZ=             -0.0000  XZZ=             -0.0000  YZZ=              0.0000
  YYZ=             -0.0000  XYZ=             -0.0000
 Hexadecapole moment (field-independent basis, Debye-Ang**3):
 XXXX=           -171.9687 YYYY=           -146.6042 ZZZZ=            -15.6916 XXXY=             64.5703
 XXXZ=             -0.0000 YYYX=             66.8219 YYYZ=              0.0000 ZZZX=             -0.0000
 ZZZY=              0.0000 XXYY=            -59.8473 XXZZ=            -30.2912 YYZZ=            -25.1719
 XXYZ=              0.0000 YYXZ=             -0.0000 ZZXY=             18.8318
 N-N= 1.290733389192D+01 E-N=-3.509754254792D+01  KE= 5.140316077450D+00
 Symmetry AG   KE= 1.952709075817D+00
 Symmetry BG   KE= 0.000000000000D+00
 Symmetry AU   KE= 0.000000000000D+00
 Symmetry BU   KE= 3.187607001633D+00
                          Isotropic Fermi Contact Couplings
        Atom                 a.u.       MegaHertz       Gauss      10(-4) cm-1
     1  H(1)               0.16565     370.20689     132.09902     123.48773
     2  H(1)              -0.15488    -346.15086    -123.51523    -115.46350
     3  H(1)               0.07902     176.60455      63.01689      58.90894
     4  H(1)               0.11121     248.55385      88.69019      82.90864
     5  H(1)              -0.10847    -242.42574     -86.50353     -80.86452
     6  H(1)               0.10847     242.42574      86.50353      80.86452
     7  H(1)              -0.11121    -248.55385     -88.69019     -82.90864
     8  H(1)              -0.07902    -176.60455     -63.01689     -58.90894
     9  H(1)               0.15488     346.15086     123.51523     115.46350
    10  H(1)              -0.16565    -370.20689    -132.09902    -123.48773
 --------------------------------------------------------
       Center         ----  Spin Dipole Couplings  ----
                      3XX-RR        3YY-RR        3ZZ-RR
 --------------------------------------------------------
     1   Atom        0.023869     -0.031570      0.007702
     2   Atom        0.002287      0.043744     -0.046031
     3   Atom        0.037809     -0.013504     -0.024304
     4   Atom        0.050929     -0.035063     -0.015865
     5   Atom        0.008108      0.000146     -0.008254
     6   Atom       -0.008108     -0.000146      0.008254
     7   Atom       -0.050929      0.035063      0.015865
     8   Atom       -0.037809      0.013504      0.024304
     9   Atom       -0.002287     -0.043744      0.046031
    10   Atom       -0.023869      0.031570     -0.007702
 --------------------------------------------------------
                        XY            XZ            YZ
 --------------------------------------------------------
     1   Atom        0.008733      0.000000      0.000000
     2   Atom       -0.020500      0.000000     -0.000000
     3   Atom        0.016746      0.000000      0.000000
     4   Atom        0.037475     -0.000000     -0.000000
     5   Atom       -0.016050      0.000000      0.000000
     6   Atom        0.016050     -0.000000      0.000000
     7   Atom       -0.037475      0.000000      0.000000
     8   Atom       -0.016746      0.000000     -0.000000
     9   Atom        0.020500     -0.000000      0.000000
    10   Atom       -0.008733     -0.000000     -0.000000
 --------------------------------------------------------


 ---------------------------------------------------------------------------------
              Anisotropic Spin Dipole Couplings in Principal Axis System
 ---------------------------------------------------------------------------------

       Atom             a.u.   MegaHertz   Gauss  10(-4) cm-1        Axes

              Baa    -0.0329   -17.561    -6.266    -5.858 -0.1520  0.9884  0.0000
     1 H(1)   Bbb     0.0077     4.109     1.466     1.371  0.0000  0.0000  1.0000
              Bcc     0.0252    13.452     4.800     4.487  0.9884  0.1520 -0.0000
 
              Baa    -0.0460   -24.560    -8.764    -8.192  0.0000  0.0000  1.0000
     2 H(1)   Bbb    -0.0061    -3.275    -1.169    -1.092  0.9249  0.3801  0.0000
              Bcc     0.0522    27.835     9.932     9.285 -0.3801  0.9249  0.0000
 
              Baa    -0.0243   -12.968    -4.627    -4.326  0.0000  0.0000  1.0000
     3 H(1)   Bbb    -0.0185    -9.863    -3.519    -3.290 -0.2851  0.9585 -0.0000
              Bcc     0.0428    22.831     8.147     7.616  0.9585  0.2851  0.0000
 
              Baa    -0.0491   -26.199    -9.348    -8.739 -0.3508  0.9364 -0.0000
     4 H(1)   Bbb    -0.0159    -8.465    -3.021    -2.824  0.0000  0.0000  1.0000
              Bcc     0.0650    34.664    12.369    11.563  0.9364  0.3508  0.0000
 
              Baa    -0.0124    -6.621    -2.363    -2.209  0.6161  0.7876 -0.0000
     5 H(1)   Bbb    -0.0083    -4.404    -1.571    -1.469  0.0000  0.0000  1.0000
              Bcc     0.0207    11.025     3.934     3.678  0.7876 -0.6161  0.0000
 
              Baa    -0.0207   -11.025    -3.934    -3.678  0.7876 -0.6161  0.0000
     6 H(1)   Bbb     0.0083     4.404     1.571     1.469  0.0000  0.0000  1.0000
              Bcc     0.0124     6.621     2.363     2.209  0.6161  0.7876  0.0000
 
              Baa    -0.0650   -34.664   -12.369   -11.563  0.9364  0.3508  0.0000
     7 H(1)   Bbb     0.0159     8.465     3.021     2.824  0.0000  0.0000  1.0000
              Bcc     0.0491    26.199     9.348     8.739 -0.3508  0.9364 -0.0000
 
              Baa    -0.0428   -22.831    -8.147    -7.616  0.9585  0.2851  0.0000
     8 H(1)   Bbb     0.0185     9.863     3.519     3.290 -0.2851  0.9585 -0.0000
              Bcc     0.0243    12.968     4.627     4.326  0.0000  0.0000  1.0000
 
              Baa    -0.0522   -27.835    -9.932    -9.285 -0.3801  0.9249  0.0000
     9 H(1)   Bbb     0.0061     3.275     1.169     1.092  0.9249  0.3801  0.0000
              Bcc     0.0460    24.560     8.764     8.192  0.0000  0.0000  1.0000
 
              Baa    -0.0252   -13.452    -4.800    -4.487  0.9884  0.1520  0.0000
    10 H(1)   Bbb    -0.0077    -4.109    -1.466    -1.371  0.0000  0.0000  1.0000
              Bcc     0.0329    17.561     6.266     5.858 -0.1520  0.9884 -0.0000
 

 ---------------------------------------------------------------------------------

 No NMR shielding tensors so no spin-rotation constants.
 Leave Link  601 at Fri Feb 24 16:27:42 2017, MaxMem=   134217728 cpu:         0.1
 (Enter /projects/guscus/apps/gau/g09-e1/g09/l801.exe)
 Range of M.O.s used for correlation:     1    10
 NBasis=    10 NAE=     5 NBE=     5 NFC=     0 NFV=     0
 NROrb=     10 NOA=     5 NOB=     5 NVA=     5 NVB=     5
 Leave Link  801 at Fri Feb 24 16:27:42 2017, MaxMem=   134217728 cpu:         0.0
 (Enter /projects/guscus/apps/gau/g09-e1/g09/l914.exe)
 UHF ground state
 Doing stability rather than CIS.
 MDV=   134217728 DFT=F DoStab=T Mixed=F DoRPA=F DoScal=F NonHer=F
 Keep R1 and R2 ints in memory in symmetry-blocked form, NReq=802982.
 FoFCou: FMM=F IPFlag=           0 FMFlag=           0 FMFlg1=           0
         NFxFlg=           0 DoJE=F BraDBF=F KetDBF=F FulRan=T
         wScrn=  0.000000 ICntrl=     600 IOpCl=  0 I1Cent=           0 NGrid=           0
         NMat0=    1 NMatS0=     55 NMatT0=    0 NMatD0=    1 NMtDS0=    0 NMtDT0=    0
 Petite list used in FoFCou.
 Making orbital integer symmetry assigments:
 Orbital symmetries:
 Alpha Orbitals:
       Occupied  (BG) (BG) (BG) (BG) (BG)
       Virtual   (BG) (BG) (BG) (BG) (BG)
 Beta  Orbitals:
       Occupied  (BG) (BG) (BG) (BG) (BG)
       Virtual   (BG) (BG) (BG) (BG) (BG)
    12 initial guesses have been made.
 Convergence on wavefunction:    0.001000000000000
 Davidson Disk Diagonalization:  ConvIn= 1.00D-03 SkipCon=T Conv= 1.00D-03.
 Max sub-space:   200 roots to seek:    12 dimension of matrix:           50
 Iteration     1 Dimension    12 NMult     0 NNew     12
 CISAX will form    12 AO SS matrices at one time.
 NMat=    12 NSing=    12 JSym2X= 2.
 Excitation Energies [eV] at current iteration:
 Root      1 :     2.126820903809106
 Root      2 :     3.288264808435115
 Root      3 :     4.048940952573174
 Root      4 :     4.392540993078930
 Root      5 :     4.780650636159489
 Root      6 :     6.858518124881729
 Root      7 :     7.024820067348459
 Root      8 :     8.953903843247524
 Root      9 :     9.700811710514731
 Root     10 :     9.987579821577793
 Root     11 :    12.066218306435320
 Root     12 :    13.399561836440160
 Iteration     2 Dimension    24 NMult    12 NNew     12
 CISAX will form    12 AO SS matrices at one time.
 NMat=    12 NSing=    12 JSym2X= 2.
 Root      1 not converged, maximum delta is    0.124578055191951
 Excitation Energies [eV] at current iteration:
 Root      1 :     1.264576213770984   Change is   -0.862244690038122
 Root      2 :     2.647009310628031   Change is   -0.641255497807084
 Root      3 :     2.968249850496728   Change is   -1.080691102076446
 Root      4 :     3.310078963972151   Change is   -1.082462029106778
 Root      5 :     3.636561464201719   Change is   -1.144089171957770
 Root      6 :     5.739448757179086   Change is   -1.119069367702643
 Root      7 :     5.774122381261888   Change is   -1.250697686086571
 Root      8 :     6.599513219010483   Change is   -2.354390624237042
 Root      9 :     8.219613784574335   Change is   -1.767966037003457
 Root     10 :     8.476359269303121   Change is   -1.224452441211610
 Root     11 :     9.021598488287555   Change is   -3.044619818147764
 Root     12 :    11.799244087156040   Change is   -1.600317749284119
 Iteration     3 Dimension    27 NMult    24 NNew      3
 CISAX will form     3 AO SS matrices at one time.
 NMat=     3 NSing=     3 JSym2X= 2.
 Root      1 not converged, maximum delta is    0.016311793449993
 Excitation Energies [eV] at current iteration:
 Root      1 :     1.242114839082111   Change is   -0.022461374688873
 Root      2 :     2.595230147496877   Change is   -0.051779163131155
 Root      3 :     2.912439260571446   Change is   -0.055810589925282
 Iteration     4 Dimension    30 NMult    27 NNew      3
 CISAX will form     3 AO SS matrices at one time.
 NMat=     3 NSing=     3 JSym2X= 2.
 Root      1 not converged, maximum delta is    0.001632081497100
 Excitation Energies [eV] at current iteration:
 Root      1 :     1.241772894831747   Change is   -0.000341944250364
 Root      2 :     2.591476486647688   Change is   -0.003753660849189
 Root      3 :     2.910702182760551   Change is   -0.001737077810895
 Iteration     5 Dimension    33 NMult    30 NNew      3
 CISAX will form     3 AO SS matrices at one time.
 NMat=     3 NSing=     3 JSym2X= 2.
 Root      1 has converged.
 Excitation Energies [eV] at current iteration:
 Root      1 :     1.241748173141601   Change is   -0.000024721690146
 Root      2 :     2.591326125439430   Change is   -0.000150361208258
 Root      3 :     2.910665251839099   Change is   -0.000036930921452
 Convergence achieved on expansion vectors.
 ***********************************************************************
 Stability analysis using <AA,BB:AA,BB> singles matrix:
 ***********************************************************************

 Eigenvectors of the stability matrix:
 
 Eigenvector   1:  2.851-AG   Eigenvalue= 0.0456334  <S**2>=1.782
      3A ->  8A        0.13017
      4A ->  6A        0.14901
      5A ->  6A        0.61377
      5A ->  7A        0.24103
      3B ->  8B        0.13017
      4B ->  6B        0.14901
      5B ->  6B        0.61377
      5B ->  7B        0.24103
 SavETr:  write IOETrn=   770 NScale= 10 NData=  16 NLR=1 NState=    1 LETran=      28.
 The wavefunction is stable under the perturbations considered.
 Leave Link  914 at Fri Feb 24 16:27:42 2017, MaxMem=   134217728 cpu:         0.1
 (Enter /projects/guscus/apps/gau/g09-e1/g09/l508.exe)
 The wavefunction is already stable.
 Leave Link  508 at Fri Feb 24 16:27:42 2017, MaxMem=   134217728 cpu:         0.0
 (Enter /projects/guscus/apps/gau/g09-e1/g09/l601.exe)
 Copying SCF densities to generalized density rwf, IOpCl= 1 IROHF=0.

 **********************************************************************

            Population analysis using the SCF density.

 **********************************************************************

 Orbital symmetries:
 Alpha Orbitals:
       Occupied  (BG) (BG) (BG) (BG) (BG)
       Virtual   (BG) (BG) (BG) (BG) (BG)
 Beta  Orbitals:
       Occupied  (BG) (BG) (BG) (BG) (BG)
       Virtual   (BG) (BG) (BG) (BG) (BG)
 Unable to determine electronic state:  partially filled degenerate orbitals.
 Alpha  occ. eigenvalues --   -0.84559  -0.72339  -0.56241  -0.33836  -0.33580
 Alpha virt. eigenvalues --    0.06439   0.17807   0.26141   0.45836   0.58084
  Beta  occ. eigenvalues --   -0.84559  -0.72339  -0.56241  -0.33836  -0.33580
  Beta virt. eigenvalues --    0.06439   0.17807   0.26141   0.45836   0.58084
          Condensed to atoms (all electrons):
               1          2          3          4          5          6
     1  H    0.796387   0.144844   0.126244  -0.042447   0.013618  -0.135269
     2  H    0.144844   0.968751  -0.127928   0.098407   0.002927  -0.044188
     3  H    0.126244  -0.127928   1.244947  -0.093328   0.085774   0.071478
     4  H   -0.042447   0.098407  -0.093328   0.813448  -0.085225   0.251550
     5  H    0.013618   0.002927   0.085774  -0.085225   0.956620  -0.142389
     6  H   -0.135269  -0.044188   0.071478   0.251550  -0.142389   0.956620
     7  H    0.004364   0.001112  -0.009409  -0.007059   0.251550  -0.085225
     8  H   -0.006050   0.009391  -0.161990  -0.009409   0.071478   0.085774
     9  H   -0.000231  -0.000234   0.009391   0.001112  -0.044188   0.002927
    10  H    0.000253  -0.000231  -0.006050   0.004364  -0.135269   0.013618
               7          8          9         10
     1  H    0.004364  -0.006050  -0.000231   0.000253
     2  H    0.001112   0.009391  -0.000234  -0.000231
     3  H   -0.009409  -0.161990   0.009391  -0.006050
     4  H   -0.007059  -0.009409   0.001112   0.004364
     5  H    0.251550   0.071478  -0.044188  -0.135269
     6  H   -0.085225   0.085774   0.002927   0.013618
     7  H    0.813448  -0.093328   0.098407  -0.042447
     8  H   -0.093328   1.244947  -0.127928   0.126244
     9  H    0.098407  -0.127928   0.968751   0.144844
    10  H   -0.042447   0.126244   0.144844   0.796387
          Atomic-Atomic Spin Densities.
               1          2          3          4          5          6
     1  H    0.598840   0.010110   0.067271  -0.168225   0.023328  -0.118378
     2  H    0.010110  -0.541686   0.016072   0.082417  -0.007857   0.015624
     3  H    0.067271   0.016072   0.325067  -0.264847   0.131020  -0.108599
     4  H   -0.168225   0.082417  -0.264847   0.439672  -0.022836   0.163867
     5  H    0.023328  -0.007857   0.131020  -0.022836  -0.405947  -0.000000
     6  H   -0.118378   0.015624  -0.108599   0.163867  -0.000000   0.405947
     7  H    0.001909  -0.000251  -0.011789  -0.000000  -0.163867   0.022836
     8  H    0.006496  -0.001051   0.000000   0.011789   0.108599  -0.131020
     9  H   -0.000578   0.000000   0.001051   0.000251  -0.015624   0.007857
    10  H   -0.000000   0.000578  -0.006496  -0.001909   0.118378  -0.023328
               7          8          9         10
     1  H    0.001909   0.006496  -0.000578  -0.000000
     2  H   -0.000251  -0.001051   0.000000   0.000578
     3  H   -0.011789   0.000000   0.001051  -0.006496
     4  H   -0.000000   0.011789   0.000251  -0.001909
     5  H   -0.163867   0.108599  -0.015624   0.118378
     6  H    0.022836  -0.131020   0.007857  -0.023328
     7  H   -0.439672   0.264847  -0.082417   0.168225
     8  H    0.264847  -0.325067  -0.016072  -0.067271
     9  H   -0.082417  -0.016072   0.541686  -0.010110
    10  H    0.168225  -0.067271  -0.010110  -0.598840
 Mulliken charges and spin densities:
               1          2
     1  H    0.098287   0.420773
     2  H   -0.052850  -0.426045
     3  H   -0.139129   0.148752
     4  H    0.068587   0.240178
     5  H    0.025106  -0.234805
     6  H    0.025106   0.234805
     7  H    0.068587  -0.240178
     8  H   -0.139129  -0.148752
     9  H   -0.052850   0.426045
    10  H    0.098287  -0.420773
 Sum of Mulliken charges =  -0.00000   0.00000
 Mulliken charges and spin densities with hydrogens summed into heavy atoms:
               1          2
 Electronic spatial extent (au):  <R**2>=            147.9319
 Charge=             -0.0000 electrons
 Dipole moment (field-independent basis, Debye):
    X=             -0.0000    Y=              0.0000    Z=             -0.0000  Tot=              0.0000
 Quadrupole moment (field-independent basis, Debye-Ang):
   XX=            -14.0083   YY=            -15.3277   ZZ=            -12.9692
   XY=              0.3798   XZ=             -0.0000   YZ=              0.0000
 Traceless Quadrupole moment (field-independent basis, Debye-Ang):
   XX=              0.0934   YY=             -1.2260   ZZ=              1.1326
   XY=              0.3798   XZ=             -0.0000   YZ=              0.0000
 Octapole moment (field-independent basis, Debye-Ang**2):
  XXX=             -0.0000  YYY=              0.0000  ZZZ=             -0.0000  XYY=             -0.0000
  XXY=              0.0000  XXZ=             -0.0000  XZZ=             -0.0000  YZZ=              0.0000
  YYZ=             -0.0000  XYZ=             -0.0000
 Hexadecapole moment (field-independent basis, Debye-Ang**3):
 XXXX=           -171.9687 YYYY=           -146.6042 ZZZZ=            -15.6916 XXXY=             64.5703
 XXXZ=             -0.0000 YYYX=             66.8219 YYYZ=              0.0000 ZZZX=             -0.0000
 ZZZY=              0.0000 XXYY=            -59.8473 XXZZ=            -30.2912 YYZZ=            -25.1719
 XXYZ=              0.0000 YYXZ=             -0.0000 ZZXY=             18.8318
 N-N= 1.290733389192D+01 E-N=-3.509754254792D+01  KE= 5.140316077450D+00
 Symmetry AG   KE= 1.952709075817D+00
 Symmetry BG   KE= 0.000000000000D+00
 Symmetry AU   KE= 0.000000000000D+00
 Symmetry BU   KE= 3.187607001633D+00
                          Isotropic Fermi Contact Couplings
        Atom                 a.u.       MegaHertz       Gauss      10(-4) cm-1
     1  H(1)               0.16565     370.20689     132.09902     123.48773
     2  H(1)              -0.15488    -346.15086    -123.51523    -115.46350
     3  H(1)               0.07902     176.60455      63.01689      58.90894
     4  H(1)               0.11121     248.55385      88.69019      82.90864
     5  H(1)              -0.10847    -242.42574     -86.50353     -80.86452
     6  H(1)               0.10847     242.42574      86.50353      80.86452
     7  H(1)              -0.11121    -248.55385     -88.69019     -82.90864
     8  H(1)              -0.07902    -176.60455     -63.01689     -58.90894
     9  H(1)               0.15488     346.15086     123.51523     115.46350
    10  H(1)              -0.16565    -370.20689    -132.09902    -123.48773
 --------------------------------------------------------
       Center         ----  Spin Dipole Couplings  ----
                      3XX-RR        3YY-RR        3ZZ-RR
 --------------------------------------------------------
     1   Atom        0.023869     -0.031570      0.007702
     2   Atom        0.002287      0.043744     -0.046031
     3   Atom        0.037809     -0.013504     -0.024304
     4   Atom        0.050929     -0.035063     -0.015865
     5   Atom        0.008108      0.000146     -0.008254
     6   Atom       -0.008108     -0.000146      0.008254
     7   Atom       -0.050929      0.035063      0.015865
     8   Atom       -0.037809      0.013504      0.024304
     9   Atom       -0.002287     -0.043744      0.046031
    10   Atom       -0.023869      0.031570     -0.007702
 --------------------------------------------------------
                        XY            XZ            YZ
 --------------------------------------------------------
     1   Atom        0.008733      0.000000      0.000000
     2   Atom       -0.020500      0.000000     -0.000000
     3   Atom        0.016746      0.000000      0.000000
     4   Atom        0.037475     -0.000000     -0.000000
     5   Atom       -0.016050      0.000000      0.000000
     6   Atom        0.016050     -0.000000      0.000000
     7   Atom       -0.037475      0.000000      0.000000
     8   Atom       -0.016746      0.000000     -0.000000
     9   Atom        0.020500     -0.000000      0.000000
    10   Atom       -0.008733     -0.000000     -0.000000
 --------------------------------------------------------


 ---------------------------------------------------------------------------------
              Anisotropic Spin Dipole Couplings in Principal Axis System
 ---------------------------------------------------------------------------------

       Atom             a.u.   MegaHertz   Gauss  10(-4) cm-1        Axes

              Baa    -0.0329   -17.561    -6.266    -5.858 -0.1520  0.9884  0.0000
     1 H(1)   Bbb     0.0077     4.109     1.466     1.371  0.0000  0.0000  1.0000
              Bcc     0.0252    13.452     4.800     4.487  0.9884  0.1520 -0.0000
 
              Baa    -0.0460   -24.560    -8.764    -8.192  0.0000  0.0000  1.0000
     2 H(1)   Bbb    -0.0061    -3.275    -1.169    -1.092  0.9249  0.3801  0.0000
              Bcc     0.0522    27.835     9.932     9.285 -0.3801  0.9249  0.0000
 
              Baa    -0.0243   -12.968    -4.627    -4.326  0.0000  0.0000  1.0000
     3 H(1)   Bbb    -0.0185    -9.863    -3.519    -3.290 -0.2851  0.9585 -0.0000
              Bcc     0.0428    22.831     8.147     7.616  0.9585  0.2851  0.0000
 
              Baa    -0.0491   -26.199    -9.348    -8.739 -0.3508  0.9364 -0.0000
     4 H(1)   Bbb    -0.0159    -8.465    -3.021    -2.824  0.0000  0.0000  1.0000
              Bcc     0.0650    34.664    12.369    11.563  0.9364  0.3508  0.0000
 
              Baa    -0.0124    -6.621    -2.363    -2.209  0.6161  0.7876 -0.0000
     5 H(1)   Bbb    -0.0083    -4.404    -1.571    -1.469  0.0000  0.0000  1.0000
              Bcc     0.0207    11.025     3.934     3.678  0.7876 -0.6161  0.0000
 
              Baa    -0.0207   -11.025    -3.934    -3.678  0.7876 -0.6161  0.0000
     6 H(1)   Bbb     0.0083     4.404     1.571     1.469  0.0000  0.0000  1.0000
              Bcc     0.0124     6.621     2.363     2.209  0.6161  0.7876  0.0000
 
              Baa    -0.0650   -34.664   -12.369   -11.563  0.9364  0.3508  0.0000
     7 H(1)   Bbb     0.0159     8.465     3.021     2.824  0.0000  0.0000  1.0000
              Bcc     0.0491    26.199     9.348     8.739 -0.3508  0.9364 -0.0000
 
              Baa    -0.0428   -22.831    -8.147    -7.616  0.9585  0.2851  0.0000
     8 H(1)   Bbb     0.0185     9.863     3.519     3.290 -0.2851  0.9585 -0.0000
              Bcc     0.0243    12.968     4.627     4.326  0.0000  0.0000  1.0000
 
              Baa    -0.0522   -27.835    -9.932    -9.285 -0.3801  0.9249  0.0000
     9 H(1)   Bbb     0.0061     3.275     1.169     1.092  0.9249  0.3801  0.0000
              Bcc     0.0460    24.560     8.764     8.192  0.0000  0.0000  1.0000
 
              Baa    -0.0252   -13.452    -4.800    -4.487  0.9884  0.1520  0.0000
    10 H(1)   Bbb    -0.0077    -4.109    -1.466    -1.371  0.0000  0.0000  1.0000
              Bcc     0.0329    17.561     6.266     5.858 -0.1520  0.9884 -0.0000
 

 ---------------------------------------------------------------------------------

 No NMR shielding tensors so no spin-rotation constants.
 Leave Link  601 at Fri Feb 24 16:27:43 2017, MaxMem=   134217728 cpu:         0.1
 (Enter /projects/guscus/apps/gau/g09-e1/g09/l9999.exe)

 Test job not archived.
 1\1\GINC-SULU\Stability\UHF\Gen\H10\LCJ1\24-Feb-2017\0\\#p uhf/gen scf
 (tight,novaracc,noincfock,fulldiag ) stable=opt guess=(read) geom=nocr
 owd test\\hf stability analysis of h10 triangular lattice, y= 0.535349
 57906251479 alpha= 26.399999999999999\\0,1\H\H,1,1.2040198129\H,1,1.20
 40198129,2,127.2\H,2,1.2040198129,1,52.8,3,0.,0\H,3,1.2040198129,1,180
 .,2,0.,0\H,4,1.2040198129,2,180.,1,0.,0\H,5,1.2040198129,3,180.,2,0.,0
 \H,6,1.2040198129,4,180.,1,0.,0\H,7,1.2040198129,5,180.,2,0.,0\H,8,1.2
 040198129,6,180.,1,0.,0\\Version=ES64L-G09RevE.01\HF=-4.8768338\S2=0.9
 4737\S2-1=0.\S2A=1.049966\RMSD=7.484e-09\Dipole=0.,0.,0.\Quadrupole=0.
 0694619,0.8420391,-0.911501,0.,0.2823366,0.\PG=C02H [SGH(H10)]\\@


 I DO NOT DEFINE TIME, SPACE, PLACE, AND MOTION, AS BEING WELL KNOWN TO ALL.
                                            -- NEWTON (1642-1726), PRINCIPIA
 Job cpu time:       0 days  0 hours  0 minutes  0.9 seconds.
 File lengths (MBytes):  RWF=     82 Int=      0 D2E=      0 Chk=      2 Scr=      2
 Normal termination of Gaussian 09 at Fri Feb 24 16:27:43 2017.
