 Entering Gaussian System, Link 0=gdv
 AtFile(1): H.gbs
            H     0
            S   10   1.00
               1000.000000000000            0.000068713567
                316.227766000000            0.000169141320
                100.000000000000            0.000823394812
                 31.622776600000            0.003425569236
                 10.000000000000            0.013951996000
                  3.162277660000            0.056909313560
                  1.000000000000            0.198286399900
                  0.316227766000            0.496922426700
                  0.100000000000            0.369846276400
                  0.031622776600            0.003752720039
            ****
 Initial command:
 /users/lcj1/GHF_hess/exe-dir/l1.exe "/users/lcj1/GHF_hess/h10_2rows/Gau-15132.inp" -scrdir="/users/lcj1/GHF_hess/h10_2rows/"
 Entering Link 1 = /users/lcj1/GHF_hess/exe-dir/l1.exe PID=     15133.
  
 Copyright (c) 1988,1990,1992,1993,1995,1998,2003,2009,2012,
            Gaussian, Inc.  All Rights Reserved.
  
 This is the private, development version of
 the Gaussian(R) DV system of programs. It is based on
 the Gaussian(R) 09 system (copyright 2009, Gaussian, Inc.),
 the Gaussian(R) 03 system (copyright 2003, Gaussian, Inc.),
 the Gaussian(R) 98 system (copyright 1998, Gaussian, Inc.),
 the Gaussian(R) 94 system (copyright 1995, Gaussian, Inc.),
 the Gaussian 92(TM) system (copyright 1992, Gaussian, Inc.),
 the Gaussian 90(TM) system (copyright 1990, Gaussian, Inc.),
 the Gaussian 88(TM) system (copyright 1988, Gaussian, Inc.),
 the Gaussian 86(TM) system (copyright 1986, Carnegie Mellon
 University), and the Gaussian 82(TM) system (copyright 1983,
 Carnegie Mellon University). Gaussian is a federally registered
 trademark of Gaussian, Inc.
  
 This software contains proprietary and confidential information,
 including trade secrets, belonging to Gaussian, Inc.
  
 This software is provided under written license and may be
 used, copied, transmitted, or stored only in accord with that
 written license.
  
 The following legend is applicable only to US Government
 contracts under FAR:
  
                    RESTRICTED RIGHTS LEGEND
  
 Use, reproduction and disclosure by the US Government is
 subject to restrictions as set forth in subparagraphs (a)
 and (c) of the Commercial Computer Software - Restricted
 Rights clause in FAR 52.227-19.
  
 Gaussian, Inc.
 340 Quinnipiac St., Bldg. 40, Wallingford CT 06492
  
  
 ---------------------------------------------------------------
 Warning -- This program may not be used in any manner that
 competes with the business of Gaussian, Inc. or will provide
 assistance to any competitor of Gaussian, Inc.  The licensee
 of this program is prohibited from giving any competitor of
 Gaussian, Inc. access to this program.  By using this program,
 the user acknowledges that Gaussian, Inc. is engaged in the
 business of creating and licensing software in the field of
 computational chemistry and represents and warrants to the
 licensee that it is not a competitor of Gaussian, Inc. and that
 it will not use this program in any manner prohibited above.
 ---------------------------------------------------------------
  

 Cite this work as:
 Gaussian Development Version, Revision H.21,
 M. J. Frisch, G. W. Trucks, H. B. Schlegel, G. E. Scuseria, 
 M. A. Robb, J. R. Cheeseman, G. Scalmani, V. Barone, B. Mennucci, 
 G. A. Petersson, H. Nakatsuji, M. Caricato, X. Li, H. P. Hratchian, 
 A. F. Izmaylov, J. Bloino, G. Zheng, J. L. Sonnenberg, W. Liang, 
 M. Hada, M. Ehara, K. Toyota, R. Fukuda, J. Hasegawa, M. Ishida, 
 T. Nakajima, Y. Honda, O. Kitao, H. Nakai, T. Vreven, 
 J. A. Montgomery, Jr., J. E. Peralta, F. Ogliaro, M. Bearpark, 
 J. J. Heyd, E. Brothers, K. N. Kudin, V. N. Staroverov, T. Keith, 
 R. Kobayashi, J. Normand, K. Raghavachari, A. Rendell, J. C. Burant, 
 S. S. Iyengar, J. Tomasi, M. Cossi, N. Rega, J. M. Millam, M. Klene, 
 J. E. Knox, J. B. Cross, V. Bakken, C. Adamo, J. Jaramillo, 
 R. Gomperts, R. E. Stratmann, O. Yazyev, A. J. Austin, R. Cammi, 
 C. Pomelli, J. W. Ochterski, R. L. Martin, K. Morokuma, 
 V. G. Zakrzewski, G. A. Voth, P. Salvador, J. J. Dannenberg, 
 S. Dapprich, P. V. Parandekar, N. J. Mayhall, A. D. Daniels, 
 O. Farkas, J. B. Foresman, J. V. Ortiz, J. Cioslowski, 
 and D. J. Fox, Gaussian, Inc., Wallingford CT, 2010.
 
 ******************************************
 Gaussian DV:  EM64L-GDVRevH.21 13-May-2012
                27-Feb-2017 
 ******************************************
 %chk=h10.chk
 ----------------------------------------------------------------------
 #ghf/gen scf(tight,novaracc,noincfock,fulldiag) stable guess=read geom
 =nocrowd use=l802 use=l902 test
 ----------------------------------------------------------------------
 ********************************************
   THE COMPLEX ERI TRANSFORMATION WITH L802  
        COMPLEX STABILITY WITH L902          
 ********************************************
 1/38=1/1;
 2/12=1,17=6,18=5,40=1/2;
 3/5=7,16=1,25=20,28=1,116=7/1,2,3,20;
 4/5=1/1;
 5/5=100001,16=1,32=2,38=6/2;
 8/6=1,10=90,11=11/1,2;
 9/8=4,13=1/1,2;
 6/7=2,8=2,9=2,10=2,28=1/1;
 99/5=1,9=1/99;
 ----------------------------------------------------------------------
 hf stability analysis of h10 triangular lattice, y= 1.2509902265939778
  alpha= 69.750000000000000
 ----------------------------------------------------------------------
 Symbolic Z-Matrix:
 Charge =  0 Multiplicity = 1
 H
 H                    1     1.33341 
 H                    1     1.33341  2     40.5 
 H                    2     1.33341  1     139.5    3     0.       0
 H                    3     1.33341  1     180.     2     0.       0
 H                    4     1.33341  2     180.     1     0.       0
 H                    5     1.33341  3     180.     2     0.       0
 H                    6     1.33341  4     180.     1     0.       0
 H                    7     1.33341  5     180.     2     0.       0
 H                    8     1.33341  6     180.     1     0.       0
 
                          Input orientation:                          
 ---------------------------------------------------------------------
 Center     Atomic      Atomic             Coordinates (Angstroms)
 Number     Number       Type             X           Y           Z
 ---------------------------------------------------------------------
      1          1           0        0.000000    0.000000    0.000000
      2          1           0        0.000000    0.000000    1.333406
      3          1           0        0.865978    0.000000    1.013930
      4          1           0        0.865978    0.000000    2.347336
      5          1           0        1.731956    0.000000    2.027860
      6          1           0        1.731956    0.000000    3.361266
      7          1           0        2.597934    0.000000    3.041790
      8          1           0        2.597934    0.000000    4.375197
      9          1           0        3.463912    0.000000    4.055720
     10          1           0        3.463912    0.000000    5.389127
 ---------------------------------------------------------------------
                    Distance matrix (angstroms):
                    1          2          3          4          5
     1  H    0.000000
     2  H    1.333406   0.000000
     3  H    1.333406   0.923029   0.000000
     4  H    2.501980   1.333406   1.333406   0.000000
     5  H    2.666813   1.865995   1.333406   0.923029   0.000000
     6  H    3.781241   2.666813   2.501980   1.333406   1.333406
     7  H    4.000219   3.109315   2.666813   1.865995   1.333406
     8  H    5.088380   4.000219   3.781241   2.666813   2.501980
     9  H    5.333625   4.405642   4.000219   3.109315   2.666813
    10  H    6.406354   5.333625   5.088380   4.000219   3.781241
                    6          7          8          9         10
     6  H    0.000000
     7  H    0.923029   0.000000
     8  H    1.333406   1.333406   0.000000
     9  H    1.865995   1.333406   0.923029   0.000000
    10  H    2.666813   2.501980   1.333406   1.333406   0.000000
 Stoichiometry    H10
 Framework group  C2H[SGH(H10)]
 Deg. of freedom     9
 Full point group                 C2H     NOp   4
 Largest Abelian subgroup         C2H     NOp   4
 Largest concise Abelian subgroup C2      NOp   2
                         Standard orientation:                         
 ---------------------------------------------------------------------
 Center     Atomic      Atomic             Coordinates (Angstroms)
 Number     Number       Type             X           Y           Z
 ---------------------------------------------------------------------
      1          1           0        1.731956    2.694563    0.000000
      2          1           0        1.731956    1.361157    0.000000
      3          1           0        0.865978    1.680633    0.000000
      4          1           0        0.865978    0.347227    0.000000
      5          1           0        0.000000    0.666703    0.000000
      6          1           0        0.000000   -0.666703    0.000000
      7          1           0       -0.865978   -0.347227    0.000000
      8          1           0       -0.865978   -1.680633    0.000000
      9          1           0       -1.731956   -1.361157    0.000000
     10          1           0       -1.731956   -2.694563    0.000000
 ---------------------------------------------------------------------
 Rotational constants (GHZ):    287.8001089     13.1058245     12.5350062
 General basis read from cards:  (5D, 7F)
 There are     5 symmetry adapted cartesian basis functions of AG  symmetry.
 There are     0 symmetry adapted cartesian basis functions of BG  symmetry.
 There are     0 symmetry adapted cartesian basis functions of AU  symmetry.
 There are     5 symmetry adapted cartesian basis functions of BU  symmetry.
 There are     5 symmetry adapted basis functions of AG  symmetry.
 There are     0 symmetry adapted basis functions of BG  symmetry.
 There are     0 symmetry adapted basis functions of AU  symmetry.
 There are     5 symmetry adapted basis functions of BU  symmetry.
    10 basis functions,   100 primitive gaussians,    10 cartesian basis functions
     5 alpha electrons        5 beta electrons
       nuclear repulsion energy        12.2382960768 Hartrees.
 NAtoms=   10 NActive=   10 NUniq=    5 SFac= 4.00D+00 NAtFMM=   60 NAOKFM=F Big=F
 Integral buffers will be    131072 words long.
 Regular integral format.
 Two-electron integral symmetry is turned off.
 One-electron integrals computed using PRISM.
 NBasis=    10 RedAO= T EigKep=  1.86D-01  NBF=     5     0     0     5
 NBsUse=    10 1.00D-06 EigRej= -1.00D+00 NBFU=     5     0     0     5
 IOp(28)                       1
                        1                       0
                        2                       1
                        3                       1
                        4                      20
                        5                       0
                        6                       0
                        7                      10
                        8                       1
                        9                       4
                       10                       0
                       11              1073741824
                       12                      20
                       13                       2
                       14                  131070
                       15                       1
                       16                       1
                       17                  131073
                       18                       0
                       19                       0
                       20                       0
                       21                       2
                       22                  131070
                       23                       0
                       24                       0
                       25                       0
                       26                       0
                       27                   65535
                       28                       2
                       29                  131072
                       30                       0
 IHMeth                       1
 ib3: ISMode =                        0                       4
 Enter DskPsm, NBasis=  10 NBas6D=  10 NShell=  10 IDoSP=4.
 Out2e will use a cutoff of  1.00D-10
 FoFCou: FMM=F IPFlag=           0 FMFlag=           0 FMFlg1=           0
         NFxFlg=           0 DoJE=F BraDBF=F KetDBF=F FulRan=T
         wScrn=  0.000000 ICntrl=     600 IOpCl=  9 I1Cent=           0 NGrid=           0
         NMat0=    0 NMatS0=      0 NMatT0=    0 NMatD0=    0 NMtDS0=    0 NMtDT0=    0
 Symmetry not used in FoFCou.
 Entering PrmDigJobTyp =                      20
 LenSav and NKeep                       0                       0
 Entered Stor2E with KNTT1,2                       2                  131070
 Leave Stor2X
 Entering PrmDigJobTyp =                      20
 LenSav and NKeep                       0                       0
 Entered Stor2E with KNTT1,2                       2                  131056
 Leave Stor2X
 Entering PrmDigJobTyp =                      20
 LenSav and NKeep                       0                       0
 Entered Stor2E with KNTT1,2                       2                  131042
 Leave Stor2X
 Entering PrmDigJobTyp =                      20
 LenSav and NKeep                       0                       0
 Entered Stor2E with KNTT1,2                       2                  131028
 Leave Stor2X
 Entering PrmDigJobTyp =                      20
 LenSav and NKeep                       0                       0
 Entered Stor2E with KNTT1,2                       2                  131014
 Leave Stor2X
 Entering PrmDigJobTyp =                      20
 LenSav and NKeep                       0                       0
 Entered Stor2E with KNTT1,2                       2                  131000
 Leave Stor2X
 Entering PrmDigJobTyp =                      20
 LenSav and NKeep                       0                       0
 Entered Stor2E with KNTT1,2                       2                  130986
 Leave Stor2X
 Entering PrmDigJobTyp =                      20
 LenSav and NKeep                       0                       0
 Entered Stor2E with KNTT1,2                       2                  130972
 Leave Stor2X
 Entering PrmDigJobTyp =                      20
 LenSav and NKeep                       0                       0
 Entered Stor2E with KNTT1,2                       2                  130960
 Leave Stor2X
 Entering PrmDigJobTyp =                      20
 LenSav and NKeep                       0                       0
 Entered Stor2E with KNTT1,2                       2                  130944
 Leave Stor2X
 Entering PrmDigJobTyp =                      20
 LenSav and NKeep                       0                       0
 Entered Stor2E with KNTT1,2                       2                  130928
 Leave Stor2X
 Entering PrmDigJobTyp =                      20
 LenSav and NKeep                       0                       0
 Entered Stor2E with KNTT1,2                       2                  130912
 Leave Stor2X
 Entering PrmDigJobTyp =                      20
 LenSav and NKeep                       0                       0
 Entered Stor2E with KNTT1,2                       2                  130896
 Leave Stor2X
 Entering PrmDigJobTyp =                      20
 LenSav and NKeep                       0                       0
 Entered Stor2E with KNTT1,2                       2                  130880
 Leave Stor2X
 Entering PrmDigJobTyp =                      20
 LenSav and NKeep                       0                       0
 Entered Stor2E with KNTT1,2                       2                  130864
 Leave Stor2X
 Entering PrmDigJobTyp =                      20
 LenSav and NKeep                       0                       0
 Entered Stor2E with KNTT1,2                       2                  130848
 Leave Stor2X
 Entering PrmDigJobTyp =                      20
 LenSav and NKeep                       0                       0
 Entered Stor2E with KNTT1,2                       2                  130832
 Leave Stor2X
 Entering PrmDigJobTyp =                      20
 LenSav and NKeep                       0                       0
 Entered Stor2E with KNTT1,2                       2                  130816
 Leave Stor2X
 Entering PrmDigJobTyp =                      20
 LenSav and NKeep                       0                       0
 Entered Stor2E with KNTT1,2                       2                  130800
 Leave Stor2X
 Entering PrmDigJobTyp =                      20
 LenSav and NKeep                       0                       0
 Entered Stor2E with KNTT1,2                       2                  130784
 Leave Stor2X
 Entering PrmDigJobTyp =                      20
 LenSav and NKeep                       0                       0
 Entered Stor2E with KNTT1,2                       2                  130768
 Leave Stor2X
 Entering PrmDigJobTyp =                      20
 LenSav and NKeep                       0                       0
 Entered Stor2E with KNTT1,2                       2                  130752
 Leave Stor2X
 Entering PrmDigJobTyp =                      20
 LenSav and NKeep                       0                       0
 Entered Stor2E with KNTT1,2                       2                  130736
 Leave Stor2X
 Entering PrmDigJobTyp =                      20
 LenSav and NKeep                       0                       0
 Entered Stor2E with KNTT1,2                       2                  130720
 Leave Stor2X
 Entering PrmDigJobTyp =                      20
 LenSav and NKeep                       0                       0
 Entered Stor2E with KNTT1,2                       2                  130704
 Leave Stor2X
 Entering PrmDigJobTyp =                      20
 LenSav and NKeep                       0                       0
 Entered Stor2E with KNTT1,2                       2                  130700
 Leave Stor2X
 Entering PrmDigJobTyp =                      20
 LenSav and NKeep                       0                       0
 Entered Stor2E with KNTT1,2                       8                  130684
 Leave Stor2X
 Entering PrmDigJobTyp =                      20
 LenSav and NKeep                       0                       0
 Entered Stor2E with KNTT1,2                      18                  130672
 Leave Stor2X
 Entering PrmDigJobTyp =                      20
 LenSav and NKeep                       0                       0
 Entered Stor2E with KNTT1,2                      32                  130664
 Leave Stor2X
 Entering PrmDigJobTyp =                      20
 LenSav and NKeep                       0                       0
 Entered Stor2E with KNTT1,2                      46                  130656
 Leave Stor2X
 Entering PrmDigJobTyp =                      20
 LenSav and NKeep                       0                       0
 Entered Stor2E with KNTT1,2                      60                  130648
 Leave Stor2X
 Entering PrmDigJobTyp =                      20
 LenSav and NKeep                       0                       0
 Entered Stor2E with KNTT1,2                      76                  130642
 Leave Stor2X
 Entering PrmDigJobTyp =                      20
 LenSav and NKeep                       0                       0
 Entered Stor2E with KNTT1,2                      94                  130638
 Leave Stor2X
 Entering PrmDigJobTyp =                      20
 LenSav and NKeep                       0                       0
 Entered Stor2E with KNTT1,2                     114                  130636
 Leave Stor2X
 Entering PrmDigJobTyp =                      20
 LenSav and NKeep                       0                       0
 Entered Stor2E with KNTT1,2                     114                  130630
 Leave Stor2X
 Entering PrmDigJobTyp =                      20
 LenSav and NKeep                       0                       0
 Entered Stor2E with KNTT1,2                     114                  130616
 Leave Stor2X
 Entering PrmDigJobTyp =                      20
 LenSav and NKeep                       0                       0
 Entered Stor2E with KNTT1,2                     114                  130602
 Leave Stor2X
 Entering PrmDigJobTyp =                      20
 LenSav and NKeep                       0                       0
 Entered Stor2E with KNTT1,2                     114                  130588
 Leave Stor2X
 Entering PrmDigJobTyp =                      20
 LenSav and NKeep                       0                       0
 Entered Stor2E with KNTT1,2                     114                  130574
 Leave Stor2X
 Entering PrmDigJobTyp =                      20
 LenSav and NKeep                       0                       0
 Entered Stor2E with KNTT1,2                     114                  130560
 Leave Stor2X
 Entering PrmDigJobTyp =                      20
 LenSav and NKeep                       0                       0
 Entered Stor2E with KNTT1,2                     114                  130550
 Leave Stor2X
 Entering PrmDigJobTyp =                      20
 LenSav and NKeep                       0                       0
 Entered Stor2E with KNTT1,2                     124                  130540
 Leave Stor2X
 Entering PrmDigJobTyp =                      20
 LenSav and NKeep                       0                       0
 Entered Stor2E with KNTT1,2                     134                  130530
 Leave Stor2X
 Entering PrmDigJobTyp =                      20
 LenSav and NKeep                       0                       0
 Entered Stor2E with KNTT1,2                     152                  130528
 Leave Stor2X
 Entering PrmDigJobTyp =                      20
 LenSav and NKeep                       0                       0
 Entered Stor2E with KNTT1,2                     160                  130516
 Leave Stor2X
 Entering PrmDigJobTyp =                      20
 LenSav and NKeep                       0                       0
 Entered Stor2E with KNTT1,2                     174                  130510
 Leave Stor2X
 Entering PrmDigJobTyp =                      20
 LenSav and NKeep                       0                       0
 Entered Stor2E with KNTT1,2                     174                  130506
 Leave Stor2X
 Entering PrmDigJobTyp =                      20
 LenSav and NKeep                       0                       0
 Entered Stor2E with KNTT1,2                     186                  130498
 Leave Stor2X
 Entering PrmDigJobTyp =                      20
 LenSav and NKeep                       0                       0
 Entered Stor2E with KNTT1,2                     186                  130478
 Leave Stor2X
 Entering PrmDigJobTyp =                      20
 LenSav and NKeep                       0                       0
 Entered Stor2E with KNTT1,2                     186                  130458
 Leave Stor2X
 Entering PrmDigJobTyp =                      20
 LenSav and NKeep                       0                       0
 Entered Stor2E with KNTT1,2                     186                  130438
 Leave Stor2X
 Entering PrmDigJobTyp =                      20
 LenSav and NKeep                       0                       0
 Entered Stor2E with KNTT1,2                     186                  130418
 Leave Stor2X
 Entering PrmDigJobTyp =                      20
 LenSav and NKeep                       0                       0
 Entered Stor2E with KNTT1,2                     204                  130408
 Leave Stor2X
 Entering PrmDigJobTyp =                      20
 LenSav and NKeep                       0                       0
 Entered Stor2E with KNTT1,2                     220                  130396
 Leave Stor2X
 Entering PrmDigJobTyp =                      20
 LenSav and NKeep                       0                       0
 Entered Stor2E with KNTT1,2                     236                  130384
 Leave Stor2X
 Entering PrmDigJobTyp =                      20
 LenSav and NKeep                       0                       0
 Entered Stor2E with KNTT1,2                     246                  130374
 Leave Stor2X
 Entering PrmDigJobTyp =                      20
 LenSav and NKeep                       0                       0
 Entered Stor2E with KNTT1,2                     262                  130364
 Leave Stor2X
 Entering PrmDigJobTyp =                      20
 LenSav and NKeep                       0                       0
 Entered Stor2E with KNTT1,2                     266                  130362
 Leave Stor2X
 Entering PrmDigJobTyp =                      20
 LenSav and NKeep                       0                       0
 Entered Stor2E with KNTT1,2                     278                  130354
 Leave Stor2X
 Entering PrmDigJobTyp =                      20
 LenSav and NKeep                       0                       0
 Entered Stor2E with KNTT1,2                     278                  130334
 Leave Stor2X
 Entering PrmDigJobTyp =                      20
 LenSav and NKeep                       0                       0
 Entered Stor2E with KNTT1,2                     278                  130314
 Leave Stor2X
 Entering PrmDigJobTyp =                      20
 LenSav and NKeep                       0                       0
 Entered Stor2E with KNTT1,2                     278                  130294
 Leave Stor2X
 Entering PrmDigJobTyp =                      20
 LenSav and NKeep                       0                       0
 Entered Stor2E with KNTT1,2                     278                  130274
 Leave Stor2X
 Entering PrmDigJobTyp =                      20
 LenSav and NKeep                       0                       0
 Entered Stor2E with KNTT1,2                     278                  130254
 Leave Stor2X
 Entering PrmDigJobTyp =                      20
 LenSav and NKeep                       0                       0
 Entered Stor2E with KNTT1,2                     278                  130234
 Leave Stor2X
 Entering PrmDigJobTyp =                      20
 LenSav and NKeep                       0                       0
 Entered Stor2E with KNTT1,2                     294                  130222
 Leave Stor2X
 Entering PrmDigJobTyp =                      20
 LenSav and NKeep                       0                       0
 Entered Stor2E with KNTT1,2                     312                  130212
 Leave Stor2X
 Entering PrmDigJobTyp =                      20
 LenSav and NKeep                       0                       0
 Entered Stor2E with KNTT1,2                     328                  130200
 Leave Stor2X
 Entering PrmDigJobTyp =                      20
 LenSav and NKeep                       0                       0
 Entered Stor2E with KNTT1,2                     346                  130190
 Leave Stor2X
 Entering PrmDigJobTyp =                      20
 LenSav and NKeep                       0                       0
 Entered Stor2E with KNTT1,2                     364                  130180
 Leave Stor2X
 Entering PrmDigJobTyp =                      20
 LenSav and NKeep                       0                       0
 Entered Stor2E with KNTT1,2                     370                  130170
 Leave Stor2X
 Entering PrmDigJobTyp =                      20
 LenSav and NKeep                       0                       0
 Entered Stor2E with KNTT1,2                     386                  130160
 Leave Stor2X
 Entering PrmDigJobTyp =                      20
 LenSav and NKeep                       0                       0
 Entered Stor2E with KNTT1,2                     398                  130150
 Leave Stor2X
 Entering PrmDigJobTyp =                      20
 LenSav and NKeep                       0                       0
 Entered Stor2E with KNTT1,2                     418                  130136
 Leave Stor2X
 Entering PrmDigJobTyp =                      20
 LenSav and NKeep                       0                       0
 Entered Stor2E with KNTT1,2                     426                  130130
 Leave Stor2X
 Entering PrmDigJobTyp =                      20
 LenSav and NKeep                       0                       0
 Entered Stor2E with KNTT1,2                     448                  130116
 Leave Stor2X
 Entering PrmDigJobTyp =                      20
 LenSav and NKeep                       0                       0
 Entered Stor2E with KNTT1,2                     452                  130114
 Leave Stor2X
 Entering PrmDigJobTyp =                      20
 LenSav and NKeep                       0                       0
 Entered Stor2E with KNTT1,2                     452                  130098
 Leave Stor2X
 Entering PrmDigJobTyp =                      20
 LenSav and NKeep                       0                       0
 Entered Stor2E with KNTT1,2                     452                  130082
 Leave Stor2X
 Entering PrmDigJobTyp =                      20
 LenSav and NKeep                       0                       0
 Entered Stor2E with KNTT1,2                     452                  130066
 Leave Stor2X
 Entering PrmDigJobTyp =                      20
 LenSav and NKeep                       0                       0
 Entered Stor2E with KNTT1,2                     452                  130054
 Leave Stor2X
 Entering PrmDigJobTyp =                      20
 LenSav and NKeep                       0                       0
 Entered Stor2E with KNTT1,2                     466                  130044
 Leave Stor2X
 Entering PrmDigJobTyp =                      20
 LenSav and NKeep                       0                       0
 Entered Stor2E with KNTT1,2                     478                  130032
 Leave Stor2X
 Entering PrmDigJobTyp =                      20
 LenSav and NKeep                       0                       0
 Entered Stor2E with KNTT1,2                     496                  130026
 Leave Stor2X
 Entering PrmDigJobTyp =                      20
 LenSav and NKeep                       0                       0
 Entered Stor2E with KNTT1,2                     498                  130022
 Leave Stor2X
 Entering PrmDigJobTyp =                      20
 LenSav and NKeep                       0                       0
 Entered Stor2E with KNTT1,2                     510                  130012
 Leave Stor2X
 Entering PrmDigJobTyp =                      20
 LenSav and NKeep                       0                       0
 Entered Stor2E with KNTT1,2                     510                  130010
 Leave Stor2X
 Entering PrmDigJobTyp =                      20
 LenSav and NKeep                       0                       0
 Entered Stor2E with KNTT1,2                     526                  130002
 Leave Stor2X
 Entering PrmDigJobTyp =                      20
 LenSav and NKeep                       0                       0
 Entered Stor2E with KNTT1,2                     544                  129990
 Leave Stor2X
 Entering PrmDigJobTyp =                      20
 LenSav and NKeep                       0                       0
 Entered Stor2E with KNTT1,2                     546                  129986
 Leave Stor2X
 Entering PrmDigJobTyp =                      20
 LenSav and NKeep                       0                       0
 Entered Stor2E with KNTT1,2                     552                  129980
 Leave Stor2X
 Entering PrmDigJobTyp =                      20
 LenSav and NKeep                       0                       0
 Entered Stor2E with KNTT1,2                     552                  129958
 Leave Stor2X
 Entering PrmDigJobTyp =                      20
 LenSav and NKeep                       0                       0
 Entered Stor2E with KNTT1,2                     552                  129936
 Leave Stor2X
 Entering PrmDigJobTyp =                      20
 LenSav and NKeep                       0                       0
 Entered Stor2E with KNTT1,2                     552                  129920
 Leave Stor2X
 Entering PrmDigJobTyp =                      20
 LenSav and NKeep                       0                       0
 Entered Stor2E with KNTT1,2                     570                  129908
 Leave Stor2X
 Entering PrmDigJobTyp =                      20
 LenSav and NKeep                       0                       0
 Entered Stor2E with KNTT1,2                     590                  129898
 Leave Stor2X
 Entering PrmDigJobTyp =                      20
 LenSav and NKeep                       0                       0
 Entered Stor2E with KNTT1,2                     598                  129888
 Leave Stor2X
 Entering PrmDigJobTyp =                      20
 LenSav and NKeep                       0                       0
 Entered Stor2E with KNTT1,2                     614                  129880
 Leave Stor2X
 Entering PrmDigJobTyp =                      20
 LenSav and NKeep                       0                       0
 Entered Stor2E with KNTT1,2                     626                  129868
 Leave Stor2X
 Entering PrmDigJobTyp =                      20
 LenSav and NKeep                       0                       0
 Entered Stor2E with KNTT1,2                     646                  129852
 Leave Stor2X
 Entering PrmDigJobTyp =                      20
 LenSav and NKeep                       0                       0
 Entered Stor2E with KNTT1,2                     660                  129848
 Leave Stor2X
 Entering PrmDigJobTyp =                      20
 LenSav and NKeep                       0                       0
 Entered Stor2E with KNTT1,2                     666                  129842
 Leave Stor2X
 Entering PrmDigJobTyp =                      20
 LenSav and NKeep                       0                       0
 Entered Stor2E with KNTT1,2                     666                  129820
 Leave Stor2X
 Entering PrmDigJobTyp =                      20
 LenSav and NKeep                       0                       0
 Entered Stor2E with KNTT1,2                     666                  129798
 Leave Stor2X
 Entering PrmDigJobTyp =                      20
 LenSav and NKeep                       0                       0
 Entered Stor2E with KNTT1,2                     666                  129776
 Leave Stor2X
 Entering PrmDigJobTyp =                      20
 LenSav and NKeep                       0                       0
 Entered Stor2E with KNTT1,2                     666                  129762
 Leave Stor2X
 Entering PrmDigJobTyp =                      20
 LenSav and NKeep                       0                       0
 Entered Stor2E with KNTT1,2                     684                  129748
 Leave Stor2X
 Entering PrmDigJobTyp =                      20
 LenSav and NKeep                       0                       0
 Entered Stor2E with KNTT1,2                     704                  129736
 Leave Stor2X
 Entering PrmDigJobTyp =                      20
 LenSav and NKeep                       0                       0
 Entered Stor2E with KNTT1,2                     726                  129726
 Leave Stor2X
 Entering PrmDigJobTyp =                      20
 LenSav and NKeep                       0                       0
 Entered Stor2E with KNTT1,2                     730                  129722
 Leave Stor2X
 Entering PrmDigJobTyp =                      20
 LenSav and NKeep                       0                       0
 Entered Stor2E with KNTT1,2                     748                  129710
 Leave Stor2X
 Entering PrmDigJobTyp =                      20
 LenSav and NKeep                       0                       0
 Entered Stor2E with KNTT1,2                     750                  129710
 Leave Stor2X
 Entering PrmDigJobTyp =                      20
 LenSav and NKeep                       0                       0
 Entered Stor2E with KNTT1,2                     770                  129698
 Leave Stor2X
 Entering PrmDigJobTyp =                      20
 LenSav and NKeep                       0                       0
 Entered Stor2E with KNTT1,2                     798                  129686
 Leave Stor2X
 Entering PrmDigJobTyp =                      20
 LenSav and NKeep                       0                       0
 Entered Stor2E with KNTT1,2                     802                  129682
 Leave Stor2X
 Entering PrmDigJobTyp =                      20
 LenSav and NKeep                       0                       0
 Entered Stor2E with KNTT1,2                     818                  129674
 Leave Stor2X
 Entering PrmDigJobTyp =                      20
 LenSav and NKeep                       0                       0
 Entered Stor2E with KNTT1,2                     834                  129666
 Leave Stor2X
 Entering PrmDigJobTyp =                      20
 LenSav and NKeep                       0                       0
 Entered Stor2E with KNTT1,2                     846                  129658
 Leave Stor2X
 Entering PrmDigJobTyp =                      20
 LenSav and NKeep                       0                       0
 Entered Stor2E with KNTT1,2                     846                  129638
 Leave Stor2X
 Entering PrmDigJobTyp =                      20
 LenSav and NKeep                       0                       0
 Entered Stor2E with KNTT1,2                     846                  129618
 Leave Stor2X
 Entering PrmDigJobTyp =                      20
 LenSav and NKeep                       0                       0
 Entered Stor2E with KNTT1,2                     866                  129608
 Leave Stor2X
 Entering PrmDigJobTyp =                      20
 LenSav and NKeep                       0                       0
 Entered Stor2E with KNTT1,2                     878                  129598
 Leave Stor2X
 Entering PrmDigJobTyp =                      20
 LenSav and NKeep                       0                       0
 Entered Stor2E with KNTT1,2                     886                  129590
 Leave Stor2X
 Entering PrmDigJobTyp =                      20
 LenSav and NKeep                       0                       0
 Entered Stor2E with KNTT1,2                     898                  129586
 Leave Stor2X
 Entering PrmDigJobTyp =                      20
 LenSav and NKeep                       0                       0
 Entered Stor2E with KNTT1,2                     914                  129578
 Leave Stor2X
 Entering PrmDigJobTyp =                      20
 LenSav and NKeep                       0                       0
 Entered Stor2E with KNTT1,2                     918                  129570
 Leave Stor2X
 Entering PrmDigJobTyp =                      20
 LenSav and NKeep                       0                       0
 Entered Stor2E with KNTT1,2                     930                  129570
 Leave Stor2X
 Entering PrmDigJobTyp =                      20
 LenSav and NKeep                       0                       0
 Entered Stor2E with KNTT1,2                     938                  129562
 Leave Stor2X
 Entering PrmDigJobTyp =                      20
 LenSav and NKeep                       0                       0
 Entered Stor2E with KNTT1,2                     940                  129558
 Leave Stor2X
 Entering PrmDigJobTyp =                      20
 LenSav and NKeep                       0                       0
 Entered Stor2E with KNTT1,2                     940                  129530
 Leave Stor2X
 Entering PrmDigJobTyp =                      20
 LenSav and NKeep                       0                       0
 Entered Stor2E with KNTT1,2                     940                  129518
 Leave Stor2X
 Entering PrmDigJobTyp =                      20
 LenSav and NKeep                       0                       0
 Entered Stor2E with KNTT1,2                     962                  129502
 Leave Stor2X
 Entering PrmDigJobTyp =                      20
 LenSav and NKeep                       0                       0
 Entered Stor2E with KNTT1,2                     972                  129498
 Leave Stor2X
 Entering PrmDigJobTyp =                      20
 LenSav and NKeep                       0                       0
 Entered Stor2E with KNTT1,2                     984                  129494
 Leave Stor2X
 Entering PrmDigJobTyp =                      20
 LenSav and NKeep                       0                       0
 Entered Stor2E with KNTT1,2                     992                  129486
 Leave Stor2X
 Entering PrmDigJobTyp =                      20
 LenSav and NKeep                       0                       0
 Entered Stor2E with KNTT1,2                    1008                  129478
 Leave Stor2X
 Entering PrmDigJobTyp =                      20
 LenSav and NKeep                       0                       0
 Entered Stor2E with KNTT1,2                    1020                  129478
 Leave Stor2X
 Entering PrmDigJobTyp =                      20
 LenSav and NKeep                       0                       0
 Entered Stor2E with KNTT1,2                    1024                  129470
 Leave Stor2X
 Entering PrmDigJobTyp =                      20
 LenSav and NKeep                       0                       0
 Entered Stor2E with KNTT1,2                    1032                  129462
 Leave Stor2X
 Entering PrmDigJobTyp =                      20
 LenSav and NKeep                       0                       0
 Entered Stor2E with KNTT1,2                    1040                  129462
 Leave Stor2X
 Entering PrmDigJobTyp =                      20
 LenSav and NKeep                       0                       0
 Entered Stor2E with KNTT1,2                    1042                  129458
 Leave Stor2X
 Entering PrmDigJobTyp =                      20
 LenSav and NKeep                       0                       0
 Entered Stor2E with KNTT1,2                    1042                  129430
 Leave Stor2X
 Entering PrmDigJobTyp =                      20
 LenSav and NKeep                       0                       0
 Entered Stor2E with KNTT1,2                    1042                  129418
 Leave Stor2X
 Entering PrmDigJobTyp =                      20
 LenSav and NKeep                       0                       0
 Entered Stor2E with KNTT1,2                    1072                  129406
 Leave Stor2X
 Entering PrmDigJobTyp =                      20
 LenSav and NKeep                       0                       0
 Entered Stor2E with KNTT1,2                    1078                  129402
 Leave Stor2X
 Entering PrmDigJobTyp =                      20
 LenSav and NKeep                       0                       0
 Entered Stor2E with KNTT1,2                    1090                  129398
 Leave Stor2X
 Entering PrmDigJobTyp =                      20
 LenSav and NKeep                       0                       0
 Entered Stor2E with KNTT1,2                    1102                  129394
 Leave Stor2X
 Entering PrmDigJobTyp =                      20
 LenSav and NKeep                       0                       0
 Entered Stor2E with KNTT1,2                    1118                  129386
 Leave Stor2X
 Entering PrmDigJobTyp =                      20
 LenSav and NKeep                       0                       0
 Entered Stor2E with KNTT1,2                    1126                  129382
 Leave Stor2X
 Entering PrmDigJobTyp =                      20
 LenSav and NKeep                       0                       0
 Entered Stor2E with KNTT1,2                    1134                  129378
 Leave Stor2X
 Entering PrmDigJobTyp =                      20
 LenSav and NKeep                       0                       0
 Entered Stor2E with KNTT1,2                    1142                  129370
 Leave Stor2X
 Entering PrmDigJobTyp =                      20
 LenSav and NKeep                       0                       0
 Entered Stor2E with KNTT1,2                    1146                  129366
 Leave Stor2X
 Entering PrmDigJobTyp =                      20
 LenSav and NKeep                       0                       0
 Entered Stor2E with KNTT1,2                    1150                  129362
 Leave Stor2X
 Entering PrmDigJobTyp =                      20
 LenSav and NKeep                       0                       0
 Entered Stor2E with KNTT1,2                    1152                  129358
 Leave Stor2X
 Entering PrmDigJobTyp =                      20
 LenSav and NKeep                       0                       0
 Entered Stor2E with KNTT1,2                    1152                  129338
 Leave Stor2X
 Entering PrmDigJobTyp =                      20
 LenSav and NKeep                       0                       0
 Entered Stor2E with KNTT1,2                    1170                  129330
 Leave Stor2X
 Entering PrmDigJobTyp =                      20
 LenSav and NKeep                       0                       0
 Entered Stor2E with KNTT1,2                    1174                  129326
 Leave Stor2X
 Entering PrmDigJobTyp =                      20
 LenSav and NKeep                       0                       0
 Entered Stor2E with KNTT1,2                    1182                  129326
 Leave Stor2X
 Entering PrmDigJobTyp =                      20
 LenSav and NKeep                       0                       0
 Entered Stor2E with KNTT1,2                    1190                  129322
 Leave Stor2X
 Entering PrmDigJobTyp =                      20
 LenSav and NKeep                       0                       0
 Entered Stor2E with KNTT1,2                    1192                  129318
 Leave Stor2X
 Entering PrmDigJobTyp =                      20
 LenSav and NKeep                       0                       0
 Entered Stor2E with KNTT1,2                    1198                  129318
 Leave Stor2X
 Entering PrmDigJobTyp =                      20
 LenSav and NKeep                       0                       0
 Entered Stor2E with KNTT1,2                    1202                  129314
 Leave Stor2X
 Entering PrmDigJobTyp =                      20
 LenSav and NKeep                       0                       0
 Entered Stor2E with KNTT1,2                    1202                  129310
 Leave Stor2X
 Entering PrmDigJobTyp =                      20
 LenSav and NKeep                       0                       0
 Entered Stor2E with KNTT1,2                    1206                  129310
 Leave Stor2X
 Entering PrmDigJobTyp =                      20
 LenSav and NKeep                       0                       0
 Entered Stor2E with KNTT1,2                    1206                  129306
 Leave Stor2X
 Entering PrmDigJobTyp =                      20
 LenSav and NKeep                       0                       0
 Entered Stor2E with KNTT1,2                    1206                  129304
 Leave Stor2X
 Entering PrmDigJobTyp =                      20
 LenSav and NKeep                       0                       0
 Entered Stor2E with KNTT1,2                    1206                  129284
 Leave Stor2X
 Entering PrmDigJobTyp =                      20
 LenSav and NKeep                       0                       0
 Entered Stor2E with KNTT1,2                    1224                  129276
 Leave Stor2X
 Entering PrmDigJobTyp =                      20
 LenSav and NKeep                       0                       0
 Entered Stor2E with KNTT1,2                    1232                  129276
 Leave Stor2X
 Entering PrmDigJobTyp =                      20
 LenSav and NKeep                       0                       0
 Entered Stor2E with KNTT1,2                    1236                  129272
 Leave Stor2X
 Entering PrmDigJobTyp =                      20
 LenSav and NKeep                       0                       0
 Entered Stor2E with KNTT1,2                    1244                  129268
 Leave Stor2X
 Entering PrmDigJobTyp =                      20
 LenSav and NKeep                       0                       0
 Entered Stor2E with KNTT1,2                    1250                  129268
 Leave Stor2X
 Entering PrmDigJobTyp =                      20
 LenSav and NKeep                       0                       0
 Entered Stor2E with KNTT1,2                    1252                  129264
 Leave Stor2X
 Entering PrmDigJobTyp =                      20
 LenSav and NKeep                       0                       0
 Entered Stor2E with KNTT1,2                    1256                  129260
 Leave Stor2X
 Entering PrmDigJobTyp =                      20
 LenSav and NKeep                       0                       0
 Entered Stor2E with KNTT1,2                    1260                  129260
 Leave Stor2X
 Entering PrmDigJobTyp =                      20
 LenSav and NKeep                       0                       0
 Entered Stor2E with KNTT1,2                    1260                  129256
 Leave Stor2X
 Entering PrmDigJobTyp =                      20
 LenSav and NKeep                       0                       0
 Entered Stor2E with KNTT1,2                    1260                  129252
 Leave Stor2X
 Entering PrmDigJobTyp =                      20
 LenSav and NKeep                       0                       0
 Entered Stor2E with KNTT1,2                    1262                  129252
 Leave Stor2X
 In PrSumR
 Called IWRITE
         1540 integrals produced for a total of         1540.
 Initial guess from the checkpoint file:  "h10.chk"
 B after Tr=     0.000000    0.000000    0.000000
         Rot=    0.999901    0.000000    0.000000    0.014096 Ang=   1.62 deg.
 Initial guess <Sx>= 0.0000 <Sy>= 0.0000 <Sz>= 0.0000 <S**2>= 0.0000 S= 0.0000
 Two-electron integrals will be kept in memory, NGetB=      152788.
 Requested convergence on RMS density matrix=1.00D-08 within 128 cycles.
 Requested convergence on MAX density matrix=1.00D-06.
 Requested convergence on             energy=1.00D-06.
 No special actions if energy rises.
 ************************************************
 *READING THE YAODEN.PDM FILE TO GET NEW DENSITY*
 ************************************************
 Rare condition: small coef for last iteration:  0.000D+00
 SCF Done:  E(GHF) =  -4.89846675046     A.U. after   23 cycles
            NFock= 23  Conv=0.48D-08     -V/T= 1.8952
 <Sx>= 0.4628 <Sy>= 0.0000 <Sz>= 0.8865 <S**2>= 2.6940 S= 1.2158
 <L.S>= 0.000000000000E+00
 Range of M.O.s used for correlation:     1    10
 NBasis=    10 NAE=    10 NBE=     0 NFC=     0 NFV=     0
 NROrb=     20 NOA=    10 NOB=     0 NVA=    10 NVB=     0
 jaja DoHack is true or false? T
 jaja in hckghf.F, NBasis=                      10
 jaja in hckGHF/FixOG, LC =                      800
 jaja in hckGHF/FixOG, IRwC=                      548
 bfr conversion (real):
                 1             2             3             4             5 
      1a  0.438509D-01 -0.234849D-02  0.139994D+00 -0.866716D-02 -0.303190D+00
      1b  0.107573D-01  0.957338D-02  0.343424D-01  0.353309D-01 -0.743767D-01
      2a  0.158976D+00 -0.191961D-01  0.309476D+00 -0.426953D-01 -0.329979D+00
      2b  0.389990D-01  0.782510D-01  0.759190D-01  0.174043D+00 -0.809486D-01
      3a  0.133875D+00 -0.452475D-01  0.232234D+00 -0.854157D-01 -0.179257D+00
      3b  0.328414D-01  0.184447D+00  0.569704D-01  0.348189D+00 -0.439744D-01
      4a  0.135067D+00 -0.793697D-01  0.122922D+00 -0.726495D-01  0.890153D-01
      4b  0.331339D-01  0.323543D+00  0.301545D-01  0.296149D+00  0.218367D-01
      5a  0.311307D+00 -0.376538D-01  0.180312D+00 -0.228664D-01  0.337244D+00
      5b  0.763681D-01  0.153492D+00  0.442332D-01  0.932127D-01  0.827308D-01
      6a  0.311307D+00 -0.376538D-01 -0.180312D+00  0.228664D-01  0.337244D+00
      6b  0.763681D-01  0.153492D+00 -0.442332D-01 -0.932127D-01  0.827308D-01
      7a  0.135067D+00 -0.793697D-01 -0.122922D+00  0.726495D-01  0.890153D-01
      7b  0.331339D-01  0.323543D+00 -0.301545D-01 -0.296149D+00  0.218367D-01
      8a  0.133875D+00 -0.452475D-01 -0.232234D+00  0.854157D-01 -0.179257D+00
      8b  0.328414D-01  0.184447D+00 -0.569704D-01 -0.348189D+00 -0.439744D-01
      9a  0.158976D+00 -0.191961D-01 -0.309476D+00  0.426953D-01 -0.329979D+00
      9b  0.389990D-01  0.782510D-01 -0.759190D-01 -0.174043D+00 -0.809486D-01
     10a  0.438509D-01 -0.234849D-02 -0.139994D+00  0.866716D-02 -0.303190D+00
     10b  0.107573D-01  0.957338D-02 -0.343424D-01 -0.353309D-01 -0.743767D-01
                 6             7             8             9            10 
      1a -0.294901D-01  0.550740D+00  0.476729D-01  0.706355D+00  0.457983D+00
      1b  0.120213D+00  0.135104D+00 -0.194334D+00  0.173279D+00  0.112350D+00
      2a -0.675486D-01  0.472968D-01  0.506924D-01 -0.522135D+00 -0.564697D+00
      2b  0.275355D+00  0.116026D-01 -0.206643D+00 -0.128087D+00 -0.138528D+00
      3a -0.111297D+00 -0.722254D-01  0.818680D-01 -0.146379D+00  0.245732D-01
      3b  0.453692D+00 -0.177179D-01 -0.333727D+00 -0.359089D-01  0.602817D-02
      4a  0.723574D-01 -0.220937D+00 -0.183790D+00 -0.750044D-01 -0.103382D+00
      4b -0.294958D+00 -0.541989D-01  0.749203D+00 -0.183996D-01 -0.253611D-01
      5a  0.543493D-01 -0.513212D+00 -0.452978D-01  0.266094D+00  0.653649D+00
      5b -0.221550D+00 -0.125898D+00  0.184652D+00  0.652766D-01  0.160349D+00
      6a  0.543493D-01  0.513212D+00  0.452978D-01  0.266094D+00 -0.653649D+00
      6b -0.221550D+00  0.125898D+00 -0.184652D+00  0.652766D-01 -0.160349D+00
      7a  0.723574D-01  0.220937D+00  0.183790D+00 -0.750044D-01  0.103382D+00
      7b -0.294958D+00  0.541989D-01 -0.749203D+00 -0.183996D-01  0.253611D-01
      8a -0.111297D+00  0.722254D-01 -0.818680D-01 -0.146379D+00 -0.245732D-01
      8b  0.453692D+00  0.177179D-01  0.333727D+00 -0.359089D-01 -0.602817D-02
      9a -0.675486D-01 -0.472968D-01 -0.506924D-01 -0.522135D+00  0.564697D+00
      9b  0.275355D+00 -0.116026D-01  0.206643D+00 -0.128087D+00  0.138528D+00
     10a -0.294901D-01 -0.550740D+00 -0.476729D-01  0.706355D+00 -0.457983D+00
     10b  0.120213D+00 -0.135104D+00  0.194334D+00  0.173279D+00 -0.112350D+00
                11            12            13            14            15 
      1a  0.545416D-01  0.328333D+00  0.853296D-01 -0.219786D+00 -0.172311D+00
      1b -0.222334D+00  0.805448D-01 -0.347838D+00 -0.539167D-01  0.702410D+00
      2a  0.997282D-01 -0.266789D+00 -0.164453D+00 -0.488526D+00 -0.309174D-01
      2b -0.406532D+00 -0.654472D-01  0.670376D+00 -0.119842D+00  0.126032D+00
      3a -0.105817D+00 -0.420052D+00  0.101249D+00  0.915210D+00  0.164965D+00
      3b  0.431354D+00 -0.103045D+00 -0.412733D+00  0.224514D+00 -0.672463D+00
      4a  0.748974D-01  0.873129D+00 -0.101488D+00 -0.411407D+00 -0.513494D-01
      4b -0.305312D+00  0.214191D+00  0.413707D+00 -0.100924D+00  0.209321D+00
      5a -0.154488D+00 -0.120263D+00  0.104588D+00  0.102017D+00 -0.214273D-02
      5b  0.629756D+00 -0.295022D-01 -0.426343D+00  0.250262D-01  0.873464D-02
      6a  0.154488D+00  0.120263D+00  0.104588D+00  0.102017D+00 -0.214273D-02
      6b -0.629756D+00  0.295022D-01 -0.426343D+00  0.250262D-01  0.873464D-02
      7a -0.748974D-01 -0.873129D+00 -0.101488D+00 -0.411407D+00 -0.513494D-01
      7b  0.305312D+00 -0.214191D+00  0.413707D+00 -0.100924D+00  0.209321D+00
      8a  0.105817D+00  0.420052D+00  0.101249D+00  0.915210D+00  0.164965D+00
      8b -0.431354D+00  0.103045D+00 -0.412733D+00  0.224514D+00 -0.672463D+00
      9a -0.997282D-01  0.266789D+00 -0.164453D+00 -0.488526D+00 -0.309174D-01
      9b  0.406532D+00  0.654472D-01  0.670376D+00 -0.119842D+00  0.126032D+00
     10a -0.545416D-01 -0.328333D+00  0.853296D-01 -0.219786D+00 -0.172311D+00
     10b  0.222334D+00 -0.805448D-01 -0.347838D+00 -0.539167D-01  0.702410D+00
                16            17            18            19            20 
      1a -0.183448D+00 -0.104054D+00 -0.147790D-01  0.843406D-01 -0.340713D-01
      1b  0.747807D+00 -0.255260D-01  0.602452D-01  0.206900D-01  0.138888D+00
      2a  0.125333D+00 -0.707502D+00 -0.171605D+00 -0.605333D+00  0.167217D+00
      2b -0.510909D+00 -0.173560D+00  0.699530D+00 -0.148497D+00 -0.681644D+00
      3a  0.538510D-01  0.935464D+00  0.196929D+00  0.365641D+00 -0.104186D+00
      3b -0.219519D+00  0.229483D+00 -0.802762D+00  0.896970D-01  0.424703D+00
      4a -0.640144D-01  0.230558D+00  0.693001D-01  0.108817D+01 -0.242663D+00
      4b  0.260949D+00  0.565591D-01 -0.282495D+00  0.266942D+00  0.989193D+00
      5a -0.636997D-01 -0.652922D+00 -0.198859D+00 -0.907552D+00  0.227630D+00
      5b  0.259666D+00 -0.160171D+00  0.810631D+00 -0.222636D+00 -0.927913D+00
      6a  0.636997D-01  0.652922D+00  0.198859D+00 -0.907552D+00  0.227630D+00
      6b -0.259666D+00  0.160171D+00 -0.810631D+00 -0.222636D+00 -0.927913D+00
      7a  0.640144D-01 -0.230558D+00 -0.693001D-01  0.108817D+01 -0.242663D+00
      7b -0.260949D+00 -0.565591D-01  0.282495D+00  0.266942D+00  0.989193D+00
      8a -0.538510D-01 -0.935464D+00 -0.196929D+00  0.365641D+00 -0.104186D+00
      8b  0.219519D+00 -0.229483D+00  0.802762D+00  0.896970D-01  0.424703D+00
      9a -0.125333D+00  0.707502D+00  0.171605D+00 -0.605333D+00  0.167217D+00
      9b  0.510909D+00  0.173560D+00 -0.699530D+00 -0.148497D+00 -0.681644D+00
     10a  0.183448D+00  0.104054D+00  0.147790D-01  0.843406D-01 -0.340713D-01
     10b -0.747807D+00  0.255260D-01 -0.602452D-01  0.206900D-01  0.138888D+00
 bfr conversion (imaginary):
                 1             2             3             4             5 
      1a  0.000000D+00  0.000000D+00  0.000000D+00  0.000000D+00  0.000000D+00
      1b  0.000000D+00  0.000000D+00  0.000000D+00  0.000000D+00  0.000000D+00
      2a  0.000000D+00  0.000000D+00  0.000000D+00  0.000000D+00  0.000000D+00
      2b  0.000000D+00  0.000000D+00  0.000000D+00  0.000000D+00  0.000000D+00
      3a  0.000000D+00  0.000000D+00  0.000000D+00  0.000000D+00  0.000000D+00
      3b  0.000000D+00  0.000000D+00  0.000000D+00  0.000000D+00  0.000000D+00
      4a  0.000000D+00  0.000000D+00  0.000000D+00  0.000000D+00  0.000000D+00
      4b  0.000000D+00  0.000000D+00  0.000000D+00  0.000000D+00  0.000000D+00
      5a  0.000000D+00  0.000000D+00  0.000000D+00  0.000000D+00  0.000000D+00
      5b  0.000000D+00  0.000000D+00  0.000000D+00  0.000000D+00  0.000000D+00
      6a  0.000000D+00  0.000000D+00  0.000000D+00  0.000000D+00  0.000000D+00
      6b  0.000000D+00  0.000000D+00  0.000000D+00  0.000000D+00  0.000000D+00
      7a  0.000000D+00  0.000000D+00  0.000000D+00  0.000000D+00  0.000000D+00
      7b  0.000000D+00  0.000000D+00  0.000000D+00  0.000000D+00  0.000000D+00
      8a  0.000000D+00  0.000000D+00  0.000000D+00  0.000000D+00  0.000000D+00
      8b  0.000000D+00  0.000000D+00  0.000000D+00  0.000000D+00  0.000000D+00
      9a  0.000000D+00  0.000000D+00  0.000000D+00  0.000000D+00  0.000000D+00
      9b  0.000000D+00  0.000000D+00  0.000000D+00  0.000000D+00  0.000000D+00
     10a  0.000000D+00  0.000000D+00  0.000000D+00  0.000000D+00  0.000000D+00
     10b  0.000000D+00  0.000000D+00  0.000000D+00  0.000000D+00  0.000000D+00
                 6             7             8             9            10 
      1a  0.000000D+00  0.000000D+00  0.000000D+00  0.000000D+00  0.000000D+00
      1b  0.000000D+00  0.000000D+00  0.000000D+00  0.000000D+00  0.000000D+00
      2a  0.000000D+00  0.000000D+00  0.000000D+00  0.000000D+00  0.000000D+00
      2b  0.000000D+00  0.000000D+00  0.000000D+00  0.000000D+00  0.000000D+00
      3a  0.000000D+00  0.000000D+00  0.000000D+00  0.000000D+00  0.000000D+00
      3b  0.000000D+00  0.000000D+00  0.000000D+00  0.000000D+00  0.000000D+00
      4a  0.000000D+00  0.000000D+00  0.000000D+00  0.000000D+00  0.000000D+00
      4b  0.000000D+00  0.000000D+00  0.000000D+00  0.000000D+00  0.000000D+00
      5a  0.000000D+00  0.000000D+00  0.000000D+00  0.000000D+00  0.000000D+00
      5b  0.000000D+00  0.000000D+00  0.000000D+00  0.000000D+00  0.000000D+00
      6a  0.000000D+00  0.000000D+00  0.000000D+00  0.000000D+00  0.000000D+00
      6b  0.000000D+00  0.000000D+00  0.000000D+00  0.000000D+00  0.000000D+00
      7a  0.000000D+00  0.000000D+00  0.000000D+00  0.000000D+00  0.000000D+00
      7b  0.000000D+00  0.000000D+00  0.000000D+00  0.000000D+00  0.000000D+00
      8a  0.000000D+00  0.000000D+00  0.000000D+00  0.000000D+00  0.000000D+00
      8b  0.000000D+00  0.000000D+00  0.000000D+00  0.000000D+00  0.000000D+00
      9a  0.000000D+00  0.000000D+00  0.000000D+00  0.000000D+00  0.000000D+00
      9b  0.000000D+00  0.000000D+00  0.000000D+00  0.000000D+00  0.000000D+00
     10a  0.000000D+00  0.000000D+00  0.000000D+00  0.000000D+00  0.000000D+00
     10b  0.000000D+00  0.000000D+00  0.000000D+00  0.000000D+00  0.000000D+00
                11            12            13            14            15 
      1a  0.000000D+00  0.000000D+00  0.000000D+00  0.000000D+00  0.000000D+00
      1b  0.000000D+00  0.000000D+00  0.000000D+00  0.000000D+00  0.000000D+00
      2a  0.000000D+00  0.000000D+00  0.000000D+00  0.000000D+00  0.000000D+00
      2b  0.000000D+00  0.000000D+00  0.000000D+00  0.000000D+00  0.000000D+00
      3a  0.000000D+00  0.000000D+00  0.000000D+00  0.000000D+00  0.000000D+00
      3b  0.000000D+00  0.000000D+00  0.000000D+00  0.000000D+00  0.000000D+00
      4a  0.000000D+00  0.000000D+00  0.000000D+00  0.000000D+00  0.000000D+00
      4b  0.000000D+00  0.000000D+00  0.000000D+00  0.000000D+00  0.000000D+00
      5a  0.000000D+00  0.000000D+00  0.000000D+00  0.000000D+00  0.000000D+00
      5b  0.000000D+00  0.000000D+00  0.000000D+00  0.000000D+00  0.000000D+00
      6a  0.000000D+00  0.000000D+00  0.000000D+00  0.000000D+00  0.000000D+00
      6b  0.000000D+00  0.000000D+00  0.000000D+00  0.000000D+00  0.000000D+00
      7a  0.000000D+00  0.000000D+00  0.000000D+00  0.000000D+00  0.000000D+00
      7b  0.000000D+00  0.000000D+00  0.000000D+00  0.000000D+00  0.000000D+00
      8a  0.000000D+00  0.000000D+00  0.000000D+00  0.000000D+00  0.000000D+00
      8b  0.000000D+00  0.000000D+00  0.000000D+00  0.000000D+00  0.000000D+00
      9a  0.000000D+00  0.000000D+00  0.000000D+00  0.000000D+00  0.000000D+00
      9b  0.000000D+00  0.000000D+00  0.000000D+00  0.000000D+00  0.000000D+00
     10a  0.000000D+00  0.000000D+00  0.000000D+00  0.000000D+00  0.000000D+00
     10b  0.000000D+00  0.000000D+00  0.000000D+00  0.000000D+00  0.000000D+00
                16            17            18            19            20 
      1a  0.000000D+00  0.000000D+00  0.000000D+00  0.000000D+00  0.000000D+00
      1b  0.000000D+00  0.000000D+00  0.000000D+00  0.000000D+00  0.000000D+00
      2a  0.000000D+00  0.000000D+00  0.000000D+00  0.000000D+00  0.000000D+00
      2b  0.000000D+00  0.000000D+00  0.000000D+00  0.000000D+00  0.000000D+00
      3a  0.000000D+00  0.000000D+00  0.000000D+00  0.000000D+00  0.000000D+00
      3b  0.000000D+00  0.000000D+00  0.000000D+00  0.000000D+00  0.000000D+00
      4a  0.000000D+00  0.000000D+00  0.000000D+00  0.000000D+00  0.000000D+00
      4b  0.000000D+00  0.000000D+00  0.000000D+00  0.000000D+00  0.000000D+00
      5a  0.000000D+00  0.000000D+00  0.000000D+00  0.000000D+00  0.000000D+00
      5b  0.000000D+00  0.000000D+00  0.000000D+00  0.000000D+00  0.000000D+00
      6a  0.000000D+00  0.000000D+00  0.000000D+00  0.000000D+00  0.000000D+00
      6b  0.000000D+00  0.000000D+00  0.000000D+00  0.000000D+00  0.000000D+00
      7a  0.000000D+00  0.000000D+00  0.000000D+00  0.000000D+00  0.000000D+00
      7b  0.000000D+00  0.000000D+00  0.000000D+00  0.000000D+00  0.000000D+00
      8a  0.000000D+00  0.000000D+00  0.000000D+00  0.000000D+00  0.000000D+00
      8b  0.000000D+00  0.000000D+00  0.000000D+00  0.000000D+00  0.000000D+00
      9a  0.000000D+00  0.000000D+00  0.000000D+00  0.000000D+00  0.000000D+00
      9b  0.000000D+00  0.000000D+00  0.000000D+00  0.000000D+00  0.000000D+00
     10a  0.000000D+00  0.000000D+00  0.000000D+00  0.000000D+00  0.000000D+00
     10b  0.000000D+00  0.000000D+00  0.000000D+00  0.000000D+00  0.000000D+00
 afr conversion (alpha, real):
                 1             2             3             4             5 
      1   0.438509D-01 -0.234849D-02  0.139994D+00 -0.866716D-02 -0.303190D+00
      2   0.158976D+00 -0.191961D-01  0.309476D+00 -0.426953D-01 -0.329979D+00
      3   0.133875D+00 -0.452475D-01  0.232234D+00 -0.854157D-01 -0.179257D+00
      4   0.135067D+00 -0.793697D-01  0.122922D+00 -0.726495D-01  0.890153D-01
      5   0.311307D+00 -0.376538D-01  0.180312D+00 -0.228664D-01  0.337244D+00
      6   0.311307D+00 -0.376538D-01 -0.180312D+00  0.228664D-01  0.337244D+00
      7   0.135067D+00 -0.793697D-01 -0.122922D+00  0.726495D-01  0.890153D-01
      8   0.133875D+00 -0.452475D-01 -0.232234D+00  0.854157D-01 -0.179257D+00
      9   0.158976D+00 -0.191961D-01 -0.309476D+00  0.426953D-01 -0.329979D+00
     10   0.438509D-01 -0.234849D-02 -0.139994D+00  0.866716D-02 -0.303190D+00
                 6             7             8             9            10 
      1  -0.294901D-01  0.550740D+00  0.476729D-01  0.706355D+00  0.457983D+00
      2  -0.675486D-01  0.472968D-01  0.506924D-01 -0.522135D+00 -0.564697D+00
      3  -0.111297D+00 -0.722254D-01  0.818680D-01 -0.146379D+00  0.245732D-01
      4   0.723574D-01 -0.220937D+00 -0.183790D+00 -0.750044D-01 -0.103382D+00
      5   0.543493D-01 -0.513212D+00 -0.452978D-01  0.266094D+00  0.653649D+00
      6   0.543493D-01  0.513212D+00  0.452978D-01  0.266094D+00 -0.653649D+00
      7   0.723574D-01  0.220937D+00  0.183790D+00 -0.750044D-01  0.103382D+00
      8  -0.111297D+00  0.722254D-01 -0.818680D-01 -0.146379D+00 -0.245732D-01
      9  -0.675486D-01 -0.472968D-01 -0.506924D-01 -0.522135D+00  0.564697D+00
     10  -0.294901D-01 -0.550740D+00 -0.476729D-01  0.706355D+00 -0.457983D+00
                11            12            13            14            15 
      1   0.545416D-01  0.328333D+00  0.853296D-01 -0.219786D+00 -0.172311D+00
      2   0.997282D-01 -0.266789D+00 -0.164453D+00 -0.488526D+00 -0.309174D-01
      3  -0.105817D+00 -0.420052D+00  0.101249D+00  0.915210D+00  0.164965D+00
      4   0.748974D-01  0.873129D+00 -0.101488D+00 -0.411407D+00 -0.513494D-01
      5  -0.154488D+00 -0.120263D+00  0.104588D+00  0.102017D+00 -0.214273D-02
      6   0.154488D+00  0.120263D+00  0.104588D+00  0.102017D+00 -0.214273D-02
      7  -0.748974D-01 -0.873129D+00 -0.101488D+00 -0.411407D+00 -0.513494D-01
      8   0.105817D+00  0.420052D+00  0.101249D+00  0.915210D+00  0.164965D+00
      9  -0.997282D-01  0.266789D+00 -0.164453D+00 -0.488526D+00 -0.309174D-01
     10  -0.545416D-01 -0.328333D+00  0.853296D-01 -0.219786D+00 -0.172311D+00
                16            17            18            19            20 
      1  -0.183448D+00 -0.104054D+00 -0.147790D-01  0.843406D-01 -0.340713D-01
      2   0.125333D+00 -0.707502D+00 -0.171605D+00 -0.605333D+00  0.167217D+00
      3   0.538510D-01  0.935464D+00  0.196929D+00  0.365641D+00 -0.104186D+00
      4  -0.640144D-01  0.230558D+00  0.693001D-01  0.108817D+01 -0.242663D+00
      5  -0.636997D-01 -0.652922D+00 -0.198859D+00 -0.907552D+00  0.227630D+00
      6   0.636997D-01  0.652922D+00  0.198859D+00 -0.907552D+00  0.227630D+00
      7   0.640144D-01 -0.230558D+00 -0.693001D-01  0.108817D+01 -0.242663D+00
      8  -0.538510D-01 -0.935464D+00 -0.196929D+00  0.365641D+00 -0.104186D+00
      9  -0.125333D+00  0.707502D+00  0.171605D+00 -0.605333D+00  0.167217D+00
     10   0.183448D+00  0.104054D+00  0.147790D-01  0.843406D-01 -0.340713D-01
 afr conversion (alpha, imaginary):
                 1             2             3             4             5 
      1   0.000000D+00  0.000000D+00  0.000000D+00  0.000000D+00  0.000000D+00
      2   0.000000D+00  0.000000D+00  0.000000D+00  0.000000D+00  0.000000D+00
      3   0.000000D+00  0.000000D+00  0.000000D+00  0.000000D+00  0.000000D+00
      4   0.000000D+00  0.000000D+00  0.000000D+00  0.000000D+00  0.000000D+00
      5   0.000000D+00  0.000000D+00  0.000000D+00  0.000000D+00  0.000000D+00
      6   0.000000D+00  0.000000D+00  0.000000D+00  0.000000D+00  0.000000D+00
      7   0.000000D+00  0.000000D+00  0.000000D+00  0.000000D+00  0.000000D+00
      8   0.000000D+00  0.000000D+00  0.000000D+00  0.000000D+00  0.000000D+00
      9   0.000000D+00  0.000000D+00  0.000000D+00  0.000000D+00  0.000000D+00
     10   0.000000D+00  0.000000D+00  0.000000D+00  0.000000D+00  0.000000D+00
                 6             7             8             9            10 
      1   0.000000D+00  0.000000D+00  0.000000D+00  0.000000D+00  0.000000D+00
      2   0.000000D+00  0.000000D+00  0.000000D+00  0.000000D+00  0.000000D+00
      3   0.000000D+00  0.000000D+00  0.000000D+00  0.000000D+00  0.000000D+00
      4   0.000000D+00  0.000000D+00  0.000000D+00  0.000000D+00  0.000000D+00
      5   0.000000D+00  0.000000D+00  0.000000D+00  0.000000D+00  0.000000D+00
      6   0.000000D+00  0.000000D+00  0.000000D+00  0.000000D+00  0.000000D+00
      7   0.000000D+00  0.000000D+00  0.000000D+00  0.000000D+00  0.000000D+00
      8   0.000000D+00  0.000000D+00  0.000000D+00  0.000000D+00  0.000000D+00
      9   0.000000D+00  0.000000D+00  0.000000D+00  0.000000D+00  0.000000D+00
     10   0.000000D+00  0.000000D+00  0.000000D+00  0.000000D+00  0.000000D+00
                11            12            13            14            15 
      1   0.000000D+00  0.000000D+00  0.000000D+00  0.000000D+00  0.000000D+00
      2   0.000000D+00  0.000000D+00  0.000000D+00  0.000000D+00  0.000000D+00
      3   0.000000D+00  0.000000D+00  0.000000D+00  0.000000D+00  0.000000D+00
      4   0.000000D+00  0.000000D+00  0.000000D+00  0.000000D+00  0.000000D+00
      5   0.000000D+00  0.000000D+00  0.000000D+00  0.000000D+00  0.000000D+00
      6   0.000000D+00  0.000000D+00  0.000000D+00  0.000000D+00  0.000000D+00
      7   0.000000D+00  0.000000D+00  0.000000D+00  0.000000D+00  0.000000D+00
      8   0.000000D+00  0.000000D+00  0.000000D+00  0.000000D+00  0.000000D+00
      9   0.000000D+00  0.000000D+00  0.000000D+00  0.000000D+00  0.000000D+00
     10   0.000000D+00  0.000000D+00  0.000000D+00  0.000000D+00  0.000000D+00
                16            17            18            19            20 
      1   0.000000D+00  0.000000D+00  0.000000D+00  0.000000D+00  0.000000D+00
      2   0.000000D+00  0.000000D+00  0.000000D+00  0.000000D+00  0.000000D+00
      3   0.000000D+00  0.000000D+00  0.000000D+00  0.000000D+00  0.000000D+00
      4   0.000000D+00  0.000000D+00  0.000000D+00  0.000000D+00  0.000000D+00
      5   0.000000D+00  0.000000D+00  0.000000D+00  0.000000D+00  0.000000D+00
      6   0.000000D+00  0.000000D+00  0.000000D+00  0.000000D+00  0.000000D+00
      7   0.000000D+00  0.000000D+00  0.000000D+00  0.000000D+00  0.000000D+00
      8   0.000000D+00  0.000000D+00  0.000000D+00  0.000000D+00  0.000000D+00
      9   0.000000D+00  0.000000D+00  0.000000D+00  0.000000D+00  0.000000D+00
     10   0.000000D+00  0.000000D+00  0.000000D+00  0.000000D+00  0.000000D+00
 afr conversion (beta, real):
                 1             2             3             4             5 
      1   0.107573D-01  0.957338D-02  0.343424D-01  0.353309D-01 -0.743767D-01
      2   0.389990D-01  0.782510D-01  0.759190D-01  0.174043D+00 -0.809486D-01
      3   0.328414D-01  0.184447D+00  0.569704D-01  0.348189D+00 -0.439744D-01
      4   0.331339D-01  0.323543D+00  0.301545D-01  0.296149D+00  0.218367D-01
      5   0.763681D-01  0.153492D+00  0.442332D-01  0.932127D-01  0.827308D-01
      6   0.763681D-01  0.153492D+00 -0.442332D-01 -0.932127D-01  0.827308D-01
      7   0.331339D-01  0.323543D+00 -0.301545D-01 -0.296149D+00  0.218367D-01
      8   0.328414D-01  0.184447D+00 -0.569704D-01 -0.348189D+00 -0.439744D-01
      9   0.389990D-01  0.782510D-01 -0.759190D-01 -0.174043D+00 -0.809486D-01
     10   0.107573D-01  0.957338D-02 -0.343424D-01 -0.353309D-01 -0.743767D-01
                 6             7             8             9            10 
      1   0.120213D+00  0.135104D+00 -0.194334D+00  0.173279D+00  0.112350D+00
      2   0.275355D+00  0.116026D-01 -0.206643D+00 -0.128087D+00 -0.138528D+00
      3   0.453692D+00 -0.177179D-01 -0.333727D+00 -0.359089D-01  0.602817D-02
      4  -0.294958D+00 -0.541989D-01  0.749203D+00 -0.183996D-01 -0.253611D-01
      5  -0.221550D+00 -0.125898D+00  0.184652D+00  0.652766D-01  0.160349D+00
      6  -0.221550D+00  0.125898D+00 -0.184652D+00  0.652766D-01 -0.160349D+00
      7  -0.294958D+00  0.541989D-01 -0.749203D+00 -0.183996D-01  0.253611D-01
      8   0.453692D+00  0.177179D-01  0.333727D+00 -0.359089D-01 -0.602817D-02
      9   0.275355D+00 -0.116026D-01  0.206643D+00 -0.128087D+00  0.138528D+00
     10   0.120213D+00 -0.135104D+00  0.194334D+00  0.173279D+00 -0.112350D+00
                11            12            13            14            15 
      1  -0.222334D+00  0.805448D-01 -0.347838D+00 -0.539167D-01  0.702410D+00
      2  -0.406532D+00 -0.654472D-01  0.670376D+00 -0.119842D+00  0.126032D+00
      3   0.431354D+00 -0.103045D+00 -0.412733D+00  0.224514D+00 -0.672463D+00
      4  -0.305312D+00  0.214191D+00  0.413707D+00 -0.100924D+00  0.209321D+00
      5   0.629756D+00 -0.295022D-01 -0.426343D+00  0.250262D-01  0.873464D-02
      6  -0.629756D+00  0.295022D-01 -0.426343D+00  0.250262D-01  0.873464D-02
      7   0.305312D+00 -0.214191D+00  0.413707D+00 -0.100924D+00  0.209321D+00
      8  -0.431354D+00  0.103045D+00 -0.412733D+00  0.224514D+00 -0.672463D+00
      9   0.406532D+00  0.654472D-01  0.670376D+00 -0.119842D+00  0.126032D+00
     10   0.222334D+00 -0.805448D-01 -0.347838D+00 -0.539167D-01  0.702410D+00
                16            17            18            19            20 
      1   0.747807D+00 -0.255260D-01  0.602452D-01  0.206900D-01  0.138888D+00
      2  -0.510909D+00 -0.173560D+00  0.699530D+00 -0.148497D+00 -0.681644D+00
      3  -0.219519D+00  0.229483D+00 -0.802762D+00  0.896970D-01  0.424703D+00
      4   0.260949D+00  0.565591D-01 -0.282495D+00  0.266942D+00  0.989193D+00
      5   0.259666D+00 -0.160171D+00  0.810631D+00 -0.222636D+00 -0.927913D+00
      6  -0.259666D+00  0.160171D+00 -0.810631D+00 -0.222636D+00 -0.927913D+00
      7  -0.260949D+00 -0.565591D-01  0.282495D+00  0.266942D+00  0.989193D+00
      8   0.219519D+00 -0.229483D+00  0.802762D+00  0.896970D-01  0.424703D+00
      9   0.510909D+00  0.173560D+00 -0.699530D+00 -0.148497D+00 -0.681644D+00
     10  -0.747807D+00  0.255260D-01 -0.602452D-01  0.206900D-01  0.138888D+00
 afr conversion (beta, imaginary):
                 1             2             3             4             5 
      1   0.000000D+00  0.000000D+00  0.000000D+00  0.000000D+00  0.000000D+00
      2   0.000000D+00  0.000000D+00  0.000000D+00  0.000000D+00  0.000000D+00
      3   0.000000D+00  0.000000D+00  0.000000D+00  0.000000D+00  0.000000D+00
      4   0.000000D+00  0.000000D+00  0.000000D+00  0.000000D+00  0.000000D+00
      5   0.000000D+00  0.000000D+00  0.000000D+00  0.000000D+00  0.000000D+00
      6   0.000000D+00  0.000000D+00  0.000000D+00  0.000000D+00  0.000000D+00
      7   0.000000D+00  0.000000D+00  0.000000D+00  0.000000D+00  0.000000D+00
      8   0.000000D+00  0.000000D+00  0.000000D+00  0.000000D+00  0.000000D+00
      9   0.000000D+00  0.000000D+00  0.000000D+00  0.000000D+00  0.000000D+00
     10   0.000000D+00  0.000000D+00  0.000000D+00  0.000000D+00  0.000000D+00
                 6             7             8             9            10 
      1   0.000000D+00  0.000000D+00  0.000000D+00  0.000000D+00  0.000000D+00
      2   0.000000D+00  0.000000D+00  0.000000D+00  0.000000D+00  0.000000D+00
      3   0.000000D+00  0.000000D+00  0.000000D+00  0.000000D+00  0.000000D+00
      4   0.000000D+00  0.000000D+00  0.000000D+00  0.000000D+00  0.000000D+00
      5   0.000000D+00  0.000000D+00  0.000000D+00  0.000000D+00  0.000000D+00
      6   0.000000D+00  0.000000D+00  0.000000D+00  0.000000D+00  0.000000D+00
      7   0.000000D+00  0.000000D+00  0.000000D+00  0.000000D+00  0.000000D+00
      8   0.000000D+00  0.000000D+00  0.000000D+00  0.000000D+00  0.000000D+00
      9   0.000000D+00  0.000000D+00  0.000000D+00  0.000000D+00  0.000000D+00
     10   0.000000D+00  0.000000D+00  0.000000D+00  0.000000D+00  0.000000D+00
                11            12            13            14            15 
      1   0.000000D+00  0.000000D+00  0.000000D+00  0.000000D+00  0.000000D+00
      2   0.000000D+00  0.000000D+00  0.000000D+00  0.000000D+00  0.000000D+00
      3   0.000000D+00  0.000000D+00  0.000000D+00  0.000000D+00  0.000000D+00
      4   0.000000D+00  0.000000D+00  0.000000D+00  0.000000D+00  0.000000D+00
      5   0.000000D+00  0.000000D+00  0.000000D+00  0.000000D+00  0.000000D+00
      6   0.000000D+00  0.000000D+00  0.000000D+00  0.000000D+00  0.000000D+00
      7   0.000000D+00  0.000000D+00  0.000000D+00  0.000000D+00  0.000000D+00
      8   0.000000D+00  0.000000D+00  0.000000D+00  0.000000D+00  0.000000D+00
      9   0.000000D+00  0.000000D+00  0.000000D+00  0.000000D+00  0.000000D+00
     10   0.000000D+00  0.000000D+00  0.000000D+00  0.000000D+00  0.000000D+00
                16            17            18            19            20 
      1   0.000000D+00  0.000000D+00  0.000000D+00  0.000000D+00  0.000000D+00
      2   0.000000D+00  0.000000D+00  0.000000D+00  0.000000D+00  0.000000D+00
      3   0.000000D+00  0.000000D+00  0.000000D+00  0.000000D+00  0.000000D+00
      4   0.000000D+00  0.000000D+00  0.000000D+00  0.000000D+00  0.000000D+00
      5   0.000000D+00  0.000000D+00  0.000000D+00  0.000000D+00  0.000000D+00
      6   0.000000D+00  0.000000D+00  0.000000D+00  0.000000D+00  0.000000D+00
      7   0.000000D+00  0.000000D+00  0.000000D+00  0.000000D+00  0.000000D+00
      8   0.000000D+00  0.000000D+00  0.000000D+00  0.000000D+00  0.000000D+00
      9   0.000000D+00  0.000000D+00  0.000000D+00  0.000000D+00  0.000000D+00
     10   0.000000D+00  0.000000D+00  0.000000D+00  0.000000D+00  0.000000D+00
 jaja in hckghf.F, ISPECT =                     548
Spin block MO for GHF transformation
NOA =   10   NOB =   10
NVA =   10   NVB =   10
 NOAvA in Hack                     100
 jaja in tranN3.F, ISPECT =                     548
 in l802/tranN3.F, LSPECT =                      800
 NMat, NBtSiz,MDV                    8372                   16000
                133954722
 TranN3:  NGot= 134217728 NBasic=    263006 NTTT=       550 NMat=      8372.
 Defined bucket =                      51                   10000
 Defined bucket =                      52                   10000
 Defined bucket =                      53                   10000
 Defined bucket =                      55                   10000
 Defined bucket =                      57                   10000
 Defined bucket =                      58                   10000
 Defined bucket =                      60                   10000
 Defined bucket =                      72                   10000
 Defined bucket =                      73                   10000
 Defined bucket =                      74                   10000
 Defined bucket =                      75                   10000
 Defined bucket =                      76                   10000
 (IK/LS) integrals will be saved in memory.
 TrCghf made   2 passes through the AO integrals.
 jaja DoHack is true or false? F
 jaja in hckghf.F, NBasis=                      10
 jaja in hckGHF/FixOG, LC =                      800
 jaja in hckGHF/FixOG, IRwC=                      548
 bfr conversion (alpha, real):
                 1             2             3             4             5 
      1   0.438509D-01 -0.234849D-02  0.139994D+00 -0.866716D-02 -0.303190D+00
[...]
      6b 0.941733D-01  0.273807D-01 -0.152059D+00 -0.318583D+00  0.821406D-01
      7a-0.872575D-01 -0.276668D+00  0.158718D+00 -0.368129D-01  0.107846D+00
      7b 0.168742D+00  0.413023D+00 -0.343549D+00 -0.660836D-01 -0.197514D+00
      8a 0.960591D-01  0.970018D-01 -0.361087D-01 -0.634643D-01 -0.438095D-02
      8b-0.285081D-01 -0.125280D-01  0.790344D-01  0.201201D+00 -0.898043D-01
      9a 0.496364D-01  0.100278D+00  0.444070D-01  0.941838D-01 -0.361087D-01
      9b-0.291131D-01 -0.203250D-02  0.941838D-01  0.188730D+00 -0.634643D-01
     10a-0.214874D-01 -0.478854D-01  0.496364D-01 -0.291131D-01  0.960591D-01
     10b-0.478854D-01 -0.117312D+00  0.100278D+00 -0.203250D-02  0.970018D-01
                3b            4a            4b            5a            5b
      3b 0.207534D+01
      4a 0.776900D+00  0.136907D+01
      4b-0.985688D+00 -0.197101D+01  0.309880D+01
      5a 0.156170D+00  0.226003D+00 -0.413125D-01  0.584252D+00
      5b-0.559712D+00 -0.664104D+00  0.119905D+01  0.273730D+00  0.735092D+00
      6a-0.760745D-01 -0.569569D-01  0.893834D-02 -0.156238D-01 -0.341395D-01
      6b-0.439180D+00  0.121753D+00 -0.223742D+00 -0.341395D-01  0.143827D+00
      7a-0.437515D-01 -0.807741D+00  0.115738D+01 -0.569569D-01  0.121753D+00
      7b-0.857314D-01  0.115738D+01 -0.176935D+01  0.893834D-02 -0.223742D+00
      8a-0.898043D-01  0.107846D+00 -0.197514D+00 -0.144333D+00  0.821406D-01
      8b 0.207520D+00 -0.437515D-01 -0.857314D-01 -0.760745D-01 -0.439180D+00
      9a 0.790344D-01  0.158718D+00 -0.343549D+00 -0.187480D+00 -0.152059D+00
      9b 0.201201D+00 -0.368129D-01 -0.660836D-01 -0.100804D+00 -0.318583D+00
     10a-0.285081D-01 -0.872575D-01  0.168742D+00  0.495457D-01  0.941733D-01
     10b-0.125280D-01 -0.276668D+00  0.413023D+00  0.230006D-01  0.273807D-01
                6a            6b            7a            7b            8a
      6a 0.584252D+00
      6b 0.273730D+00  0.735092D+00
      7a 0.226003D+00 -0.664104D+00  0.136907D+01
      7b-0.413125D-01  0.119905D+01 -0.197101D+01  0.309880D+01
      8a-0.544711D-01  0.417305D+00 -0.545624D+00  0.840496D+00  0.817080D+00
      8b 0.156170D+00 -0.559712D+00  0.776900D+00 -0.985688D+00 -0.111861D+01
      9a-0.177492D+00  0.830945D-01 -0.278956D+00  0.500422D+00  0.386816D+00
      9b-0.254924D-02 -0.445327D+00  0.535550D+00 -0.683273D+00 -0.621210D+00
     10a-0.258570D+00 -0.171843D+00 -0.163451D-01 -0.180393D+00  0.447486D-01
     10b-0.965243D-01 -0.389856D+00  0.470941D+00 -0.801856D+00 -0.381064D+00
                8b            9a            9b           10a           10b
      8b 0.207534D+01
      9a-0.176256D+00  0.517233D+00
      9b 0.130652D+01  0.636667D-01  0.906358D+00
     10a-0.860472D-02  0.875250D-01  0.381987D-01  0.580504D+00
     10b 0.631126D+00 -0.954477D-01  0.418925D+00  0.353767D+00  0.474099D+00
 jaja lower-tri density matrix (imaginary):
                1a            1b            2a            2b            3a
      1a 0.000000D+00
      1b 0.000000D+00  0.000000D+00
      2a 0.000000D+00  0.000000D+00  0.000000D+00
      2b 0.000000D+00  0.000000D+00  0.000000D+00  0.000000D+00
      3a 0.000000D+00  0.000000D+00  0.000000D+00  0.000000D+00  0.000000D+00
      3b 0.000000D+00  0.000000D+00  0.000000D+00  0.000000D+00  0.000000D+00
      4a 0.000000D+00  0.000000D+00  0.000000D+00  0.000000D+00  0.000000D+00
      4b 0.000000D+00  0.000000D+00  0.000000D+00  0.000000D+00  0.000000D+00
      5a 0.000000D+00  0.000000D+00  0.000000D+00  0.000000D+00  0.000000D+00
      5b 0.000000D+00  0.000000D+00  0.000000D+00  0.000000D+00  0.000000D+00
      6a 0.000000D+00  0.000000D+00  0.000000D+00  0.000000D+00  0.000000D+00
      6b 0.000000D+00  0.000000D+00  0.000000D+00  0.000000D+00  0.000000D+00
      7a 0.000000D+00  0.000000D+00  0.000000D+00  0.000000D+00  0.000000D+00
      7b 0.000000D+00  0.000000D+00  0.000000D+00  0.000000D+00  0.000000D+00
      8a 0.000000D+00  0.000000D+00  0.000000D+00  0.000000D+00  0.000000D+00
      8b 0.000000D+00  0.000000D+00  0.000000D+00  0.000000D+00  0.000000D+00
      9a 0.000000D+00  0.000000D+00  0.000000D+00  0.000000D+00  0.000000D+00
      9b 0.000000D+00  0.000000D+00  0.000000D+00  0.000000D+00  0.000000D+00
     10a 0.000000D+00  0.000000D+00  0.000000D+00  0.000000D+00  0.000000D+00
     10b 0.000000D+00  0.000000D+00  0.000000D+00  0.000000D+00  0.000000D+00
                3b            4a            4b            5a            5b
      3b 0.000000D+00
      4a 0.000000D+00  0.000000D+00
      4b 0.000000D+00  0.000000D+00  0.000000D+00
      5a 0.000000D+00  0.000000D+00  0.000000D+00  0.000000D+00
      5b 0.000000D+00  0.000000D+00  0.000000D+00  0.000000D+00  0.000000D+00
      6a 0.000000D+00  0.000000D+00  0.000000D+00  0.000000D+00  0.000000D+00
      6b 0.000000D+00  0.000000D+00  0.000000D+00  0.000000D+00  0.000000D+00
      7a 0.000000D+00  0.000000D+00  0.000000D+00  0.000000D+00  0.000000D+00
      7b 0.000000D+00  0.000000D+00  0.000000D+00  0.000000D+00  0.000000D+00
      8a 0.000000D+00  0.000000D+00  0.000000D+00  0.000000D+00  0.000000D+00
      8b 0.000000D+00  0.000000D+00  0.000000D+00  0.000000D+00  0.000000D+00
      9a 0.000000D+00  0.000000D+00  0.000000D+00  0.000000D+00  0.000000D+00
      9b 0.000000D+00  0.000000D+00  0.000000D+00  0.000000D+00  0.000000D+00
     10a 0.000000D+00  0.000000D+00  0.000000D+00  0.000000D+00  0.000000D+00
     10b 0.000000D+00  0.000000D+00  0.000000D+00  0.000000D+00  0.000000D+00
                6a            6b            7a            7b            8a
      6a 0.000000D+00
      6b 0.000000D+00  0.000000D+00
      7a 0.000000D+00  0.000000D+00  0.000000D+00
      7b 0.000000D+00  0.000000D+00  0.000000D+00  0.000000D+00
      8a 0.000000D+00  0.000000D+00  0.000000D+00  0.000000D+00  0.000000D+00
      8b 0.000000D+00  0.000000D+00  0.000000D+00  0.000000D+00  0.000000D+00
      9a 0.000000D+00  0.000000D+00  0.000000D+00  0.000000D+00  0.000000D+00
      9b 0.000000D+00  0.000000D+00  0.000000D+00  0.000000D+00  0.000000D+00
     10a 0.000000D+00  0.000000D+00  0.000000D+00  0.000000D+00  0.000000D+00
     10b 0.000000D+00  0.000000D+00  0.000000D+00  0.000000D+00  0.000000D+00
                8b            9a            9b           10a           10b
      8b 0.000000D+00
      9a 0.000000D+00  0.000000D+00
      9b 0.000000D+00  0.000000D+00  0.000000D+00
     10a 0.000000D+00  0.000000D+00  0.000000D+00  0.000000D+00
     10b 0.000000D+00  0.000000D+00  0.000000D+00  0.000000D+00  0.000000D+00
 jaja non-ortho density matrix               [Gau-style] (real):
                 1             2             3             4             5 
      1a  0.580504D+00  0.353767D+00  0.875250D-01  0.381987D-01  0.447486D-01
      1b  0.353767D+00  0.474099D+00 -0.954477D-01  0.418925D+00 -0.381064D+00
      2a  0.875250D-01 -0.954477D-01  0.517233D+00  0.636667D-01  0.386816D+00
      2b  0.381987D-01  0.418925D+00  0.636667D-01  0.906358D+00 -0.621210D+00
      3a  0.447486D-01 -0.381064D+00  0.386816D+00 -0.621210D+00  0.817080D+00
      3b -0.860472D-02  0.631126D+00 -0.176256D+00  0.130652D+01 -0.111861D+01
      4a -0.163451D-01  0.470941D+00 -0.278956D+00  0.535550D+00 -0.545624D+00
      4b -0.180393D+00 -0.801856D+00  0.500422D+00 -0.683273D+00  0.840496D+00
      5a -0.258570D+00 -0.965243D-01 -0.177492D+00 -0.254924D-02 -0.544711D-01
      5b -0.171843D+00 -0.389856D+00  0.830945D-01 -0.445327D+00  0.417305D+00
      6a  0.495457D-01  0.230006D-01 -0.187480D+00 -0.100804D+00 -0.144333D+00
      6b  0.941733D-01  0.273807D-01 -0.152059D+00 -0.318583D+00  0.821406D-01
      7a -0.872575D-01 -0.276668D+00  0.158718D+00 -0.368129D-01  0.107846D+00
      7b  0.168742D+00  0.413023D+00 -0.343549D+00 -0.660836D-01 -0.197514D+00
      8a  0.960591D-01  0.970018D-01 -0.361087D-01 -0.634643D-01 -0.438095D-02
      8b -0.285081D-01 -0.125280D-01  0.790344D-01  0.201201D+00 -0.898043D-01
      9a  0.496364D-01  0.100278D+00  0.444070D-01  0.941838D-01 -0.361087D-01
      9b -0.291131D-01 -0.203250D-02  0.941838D-01  0.188730D+00 -0.634643D-01
     10a -0.214874D-01 -0.478854D-01  0.496364D-01 -0.291131D-01  0.960591D-01
     10b -0.478854D-01 -0.117312D+00  0.100278D+00 -0.203250D-02  0.970018D-01
                 6             7             8             9            10 
      1a -0.860472D-02 -0.163451D-01 -0.180393D+00 -0.258570D+00 -0.171843D+00
      1b  0.631126D+00  0.470941D+00 -0.801856D+00 -0.965243D-01 -0.389856D+00
      2a -0.176256D+00 -0.278956D+00  0.500422D+00 -0.177492D+00  0.830945D-01
      2b  0.130652D+01  0.535550D+00 -0.683273D+00 -0.254924D-02 -0.445327D+00
      3a -0.111861D+01 -0.545624D+00  0.840496D+00 -0.544711D-01  0.417305D+00
      3b  0.207534D+01  0.776900D+00 -0.985688D+00  0.156170D+00 -0.559712D+00
      4a  0.776900D+00  0.136907D+01 -0.197101D+01  0.226003D+00 -0.664104D+00
      4b -0.985688D+00 -0.197101D+01  0.309880D+01 -0.413125D-01  0.119905D+01
      5a  0.156170D+00  0.226003D+00 -0.413125D-01  0.584252D+00  0.273730D+00
      5b -0.559712D+00 -0.664104D+00  0.119905D+01  0.273730D+00  0.735092D+00
      6a -0.760745D-01 -0.569569D-01  0.893834D-02 -0.156238D-01 -0.341395D-01
      6b -0.439180D+00  0.121753D+00 -0.223742D+00 -0.341395D-01  0.143827D+00
      7a -0.437515D-01 -0.807741D+00  0.115738D+01 -0.569569D-01  0.121753D+00
      7b -0.857314D-01  0.115738D+01 -0.176935D+01  0.893834D-02 -0.223742D+00
      8a -0.898043D-01  0.107846D+00 -0.197514D+00 -0.144333D+00  0.821406D-01
      8b  0.207520D+00 -0.437515D-01 -0.857314D-01 -0.760745D-01 -0.439180D+00
      9a  0.790344D-01  0.158718D+00 -0.343549D+00 -0.187480D+00 -0.152059D+00
      9b  0.201201D+00 -0.368129D-01 -0.660836D-01 -0.100804D+00 -0.318583D+00
     10a -0.285081D-01 -0.872575D-01  0.168742D+00  0.495457D-01  0.941733D-01
     10b -0.125280D-01 -0.276668D+00  0.413023D+00  0.230006D-01  0.273807D-01
                11            12            13            14            15 
      1a  0.495457D-01  0.941733D-01 -0.872575D-01  0.168742D+00  0.960591D-01
      1b  0.230006D-01  0.273807D-01 -0.276668D+00  0.413023D+00  0.970018D-01
      2a -0.187480D+00 -0.152059D+00  0.158718D+00 -0.343549D+00 -0.361087D-01
      2b -0.100804D+00 -0.318583D+00 -0.368129D-01 -0.660836D-01 -0.634643D-01
      3a -0.144333D+00  0.821406D-01  0.107846D+00 -0.197514D+00 -0.438095D-02
      3b -0.760745D-01 -0.439180D+00 -0.437515D-01 -0.857314D-01 -0.898043D-01
      4a -0.569569D-01  0.121753D+00 -0.807741D+00  0.115738D+01  0.107846D+00
      4b  0.893834D-02 -0.223742D+00  0.115738D+01 -0.176935D+01 -0.197514D+00
      5a -0.156238D-01 -0.341395D-01 -0.569569D-01  0.893834D-02 -0.144333D+00
      5b -0.341395D-01  0.143827D+00  0.121753D+00 -0.223742D+00  0.821406D-01
      6a  0.584252D+00  0.273730D+00  0.226003D+00 -0.413125D-01 -0.544711D-01
      6b  0.273730D+00  0.735092D+00 -0.664104D+00  0.119905D+01  0.417305D+00
      7a  0.226003D+00 -0.664104D+00  0.136907D+01 -0.197101D+01 -0.545624D+00
      7b -0.413125D-01  0.119905D+01 -0.197101D+01  0.309880D+01  0.840496D+00
      8a -0.544711D-01  0.417305D+00 -0.545624D+00  0.840496D+00  0.817080D+00
      8b  0.156170D+00 -0.559712D+00  0.776900D+00 -0.985688D+00 -0.111861D+01
      9a -0.177492D+00  0.830945D-01 -0.278956D+00  0.500422D+00  0.386816D+00
      9b -0.254924D-02 -0.445327D+00  0.535550D+00 -0.683273D+00 -0.621210D+00
     10a -0.258570D+00 -0.171843D+00 -0.163451D-01 -0.180393D+00  0.447486D-01
     10b -0.965243D-01 -0.389856D+00  0.470941D+00 -0.801856D+00 -0.381064D+00
                16            17            18            19            20 
      1a -0.285081D-01  0.496364D-01 -0.291131D-01 -0.214874D-01 -0.478854D-01
      1b -0.125280D-01  0.100278D+00 -0.203250D-02 -0.478854D-01 -0.117312D+00
      2a  0.790344D-01  0.444070D-01  0.941838D-01  0.496364D-01  0.100278D+00
      2b  0.201201D+00  0.941838D-01  0.188730D+00 -0.291131D-01 -0.203250D-02
      3a -0.898043D-01 -0.361087D-01 -0.634643D-01  0.960591D-01  0.970018D-01
      3b  0.207520D+00  0.790344D-01  0.201201D+00 -0.285081D-01 -0.125280D-01
      4a -0.437515D-01  0.158718D+00 -0.368129D-01 -0.872575D-01 -0.276668D+00
      4b -0.857314D-01 -0.343549D+00 -0.660836D-01  0.168742D+00  0.413023D+00
      5a -0.760745D-01 -0.187480D+00 -0.100804D+00  0.495457D-01  0.230006D-01
      5b -0.439180D+00 -0.152059D+00 -0.318583D+00  0.941733D-01  0.273807D-01
      6a  0.156170D+00 -0.177492D+00 -0.254924D-02 -0.258570D+00 -0.965243D-01
      6b -0.559712D+00  0.830945D-01 -0.445327D+00 -0.171843D+00 -0.389856D+00
      7a  0.776900D+00 -0.278956D+00  0.535550D+00 -0.163451D-01  0.470941D+00
      7b -0.985688D+00  0.500422D+00 -0.683273D+00 -0.180393D+00 -0.801856D+00
      8a -0.111861D+01  0.386816D+00 -0.621210D+00  0.447486D-01 -0.381064D+00
      8b  0.207534D+01 -0.176256D+00  0.130652D+01 -0.860472D-02  0.631126D+00
      9a -0.176256D+00  0.517233D+00  0.636667D-01  0.875250D-01 -0.954477D-01
      9b  0.130652D+01  0.636667D-01  0.906358D+00  0.381987D-01  0.418925D+00
     10a -0.860472D-02  0.875250D-01  0.381987D-01  0.580504D+00  0.353767D+00
     10b  0.631126D+00 -0.954477D-01  0.418925D+00  0.353767D+00  0.474099D+00
 jaja non-ortho density matrix               [Gau-style] (imaginary):
                 1             2             3             4             5 
      1a  0.000000D+00  0.000000D+00  0.000000D+00  0.000000D+00  0.000000D+00
      1b  0.000000D+00  0.000000D+00  0.000000D+00  0.000000D+00  0.000000D+00
      2a  0.000000D+00  0.000000D+00  0.000000D+00  0.000000D+00  0.000000D+00
      2b  0.000000D+00  0.000000D+00  0.000000D+00  0.000000D+00  0.000000D+00
      3a  0.000000D+00  0.000000D+00  0.000000D+00  0.000000D+00  0.000000D+00
      3b  0.000000D+00  0.000000D+00  0.000000D+00  0.000000D+00  0.000000D+00
      4a  0.000000D+00  0.000000D+00  0.000000D+00  0.000000D+00  0.000000D+00
      4b  0.000000D+00  0.000000D+00  0.000000D+00  0.000000D+00  0.000000D+00
      5a  0.000000D+00  0.000000D+00  0.000000D+00  0.000000D+00  0.000000D+00
      5b  0.000000D+00  0.000000D+00  0.000000D+00  0.000000D+00  0.000000D+00
      6a  0.000000D+00  0.000000D+00  0.000000D+00  0.000000D+00  0.000000D+00
      6b  0.000000D+00  0.000000D+00  0.000000D+00  0.000000D+00  0.000000D+00
      7a  0.000000D+00  0.000000D+00  0.000000D+00  0.000000D+00  0.000000D+00
      7b  0.000000D+00  0.000000D+00  0.000000D+00  0.000000D+00  0.000000D+00
      8a  0.000000D+00  0.000000D+00  0.000000D+00  0.000000D+00  0.000000D+00
      8b  0.000000D+00  0.000000D+00  0.000000D+00  0.000000D+00  0.000000D+00
      9a  0.000000D+00  0.000000D+00  0.000000D+00  0.000000D+00  0.000000D+00
      9b  0.000000D+00  0.000000D+00  0.000000D+00  0.000000D+00  0.000000D+00
     10a  0.000000D+00  0.000000D+00  0.000000D+00  0.000000D+00  0.000000D+00
     10b  0.000000D+00  0.000000D+00  0.000000D+00  0.000000D+00  0.000000D+00
                 6             7             8             9            10 
      1a  0.000000D+00  0.000000D+00  0.000000D+00  0.000000D+00  0.000000D+00
      1b  0.000000D+00  0.000000D+00  0.000000D+00  0.000000D+00  0.000000D+00
      2a  0.000000D+00  0.000000D+00  0.000000D+00  0.000000D+00  0.000000D+00
      2b  0.000000D+00  0.000000D+00  0.000000D+00  0.000000D+00  0.000000D+00
      3a  0.000000D+00  0.000000D+00  0.000000D+00  0.000000D+00  0.000000D+00
      3b  0.000000D+00  0.000000D+00  0.000000D+00  0.000000D+00  0.000000D+00
      4a  0.000000D+00  0.000000D+00  0.000000D+00  0.000000D+00  0.000000D+00
      4b  0.000000D+00  0.000000D+00  0.000000D+00  0.000000D+00  0.000000D+00
      5a  0.000000D+00  0.000000D+00  0.000000D+00  0.000000D+00  0.000000D+00
      5b  0.000000D+00  0.000000D+00  0.000000D+00  0.000000D+00  0.000000D+00
      6a  0.000000D+00  0.000000D+00  0.000000D+00  0.000000D+00  0.000000D+00
      6b  0.000000D+00  0.000000D+00  0.000000D+00  0.000000D+00  0.000000D+00
      7a  0.000000D+00  0.000000D+00  0.000000D+00  0.000000D+00  0.000000D+00
      7b  0.000000D+00  0.000000D+00  0.000000D+00  0.000000D+00  0.000000D+00
      8a  0.000000D+00  0.000000D+00  0.000000D+00  0.000000D+00  0.000000D+00
      8b  0.000000D+00  0.000000D+00  0.000000D+00  0.000000D+00  0.000000D+00
      9a  0.000000D+00  0.000000D+00  0.000000D+00  0.000000D+00  0.000000D+00
      9b  0.000000D+00  0.000000D+00  0.000000D+00  0.000000D+00  0.000000D+00
     10a  0.000000D+00  0.000000D+00  0.000000D+00  0.000000D+00  0.000000D+00
     10b  0.000000D+00  0.000000D+00  0.000000D+00  0.000000D+00  0.000000D+00
                11            12            13            14            15 
      1a  0.000000D+00  0.000000D+00  0.000000D+00  0.000000D+00  0.000000D+00
      1b  0.000000D+00  0.000000D+00  0.000000D+00  0.000000D+00  0.000000D+00
      2a  0.000000D+00  0.000000D+00  0.000000D+00  0.000000D+00  0.000000D+00
      2b  0.000000D+00  0.000000D+00  0.000000D+00  0.000000D+00  0.000000D+00
      3a  0.000000D+00  0.000000D+00  0.000000D+00  0.000000D+00  0.000000D+00
      3b  0.000000D+00  0.000000D+00  0.000000D+00  0.000000D+00  0.000000D+00
      4a  0.000000D+00  0.000000D+00  0.000000D+00  0.000000D+00  0.000000D+00
      4b  0.000000D+00  0.000000D+00  0.000000D+00  0.000000D+00  0.000000D+00
      5a  0.000000D+00  0.000000D+00  0.000000D+00  0.000000D+00  0.000000D+00
      5b  0.000000D+00  0.000000D+00  0.000000D+00  0.000000D+00  0.000000D+00
      6a  0.000000D+00  0.000000D+00  0.000000D+00  0.000000D+00  0.000000D+00
      6b  0.000000D+00  0.000000D+00  0.000000D+00  0.000000D+00  0.000000D+00
      7a  0.000000D+00  0.000000D+00  0.000000D+00  0.000000D+00  0.000000D+00
      7b  0.000000D+00  0.000000D+00  0.000000D+00  0.000000D+00  0.000000D+00
      8a  0.000000D+00  0.000000D+00  0.000000D+00  0.000000D+00  0.000000D+00
      8b  0.000000D+00  0.000000D+00  0.000000D+00  0.000000D+00  0.000000D+00
      9a  0.000000D+00  0.000000D+00  0.000000D+00  0.000000D+00  0.000000D+00
      9b  0.000000D+00  0.000000D+00  0.000000D+00  0.000000D+00  0.000000D+00
     10a  0.000000D+00  0.000000D+00  0.000000D+00  0.000000D+00  0.000000D+00
     10b  0.000000D+00  0.000000D+00  0.000000D+00  0.000000D+00  0.000000D+00
                16            17            18            19            20 
      1a  0.000000D+00  0.000000D+00  0.000000D+00  0.000000D+00  0.000000D+00
      1b  0.000000D+00  0.000000D+00  0.000000D+00  0.000000D+00  0.000000D+00
      2a  0.000000D+00  0.000000D+00  0.000000D+00  0.000000D+00  0.000000D+00
      2b  0.000000D+00  0.000000D+00  0.000000D+00  0.000000D+00  0.000000D+00
      3a  0.000000D+00  0.000000D+00  0.000000D+00  0.000000D+00  0.000000D+00
      3b  0.000000D+00  0.000000D+00  0.000000D+00  0.000000D+00  0.000000D+00
      4a  0.000000D+00  0.000000D+00  0.000000D+00  0.000000D+00  0.000000D+00
      4b  0.000000D+00  0.000000D+00  0.000000D+00  0.000000D+00  0.000000D+00
      5a  0.000000D+00  0.000000D+00  0.000000D+00  0.000000D+00  0.000000D+00
      5b  0.000000D+00  0.000000D+00  0.000000D+00  0.000000D+00  0.000000D+00
      6a  0.000000D+00  0.000000D+00  0.000000D+00  0.000000D+00  0.000000D+00
      6b  0.000000D+00  0.000000D+00  0.000000D+00  0.000000D+00  0.000000D+00
      7a  0.000000D+00  0.000000D+00  0.000000D+00  0.000000D+00  0.000000D+00
      7b  0.000000D+00  0.000000D+00  0.000000D+00  0.000000D+00  0.000000D+00
      8a  0.000000D+00  0.000000D+00  0.000000D+00  0.000000D+00  0.000000D+00
      8b  0.000000D+00  0.000000D+00  0.000000D+00  0.000000D+00  0.000000D+00
      9a  0.000000D+00  0.000000D+00  0.000000D+00  0.000000D+00  0.000000D+00
      9b  0.000000D+00  0.000000D+00  0.000000D+00  0.000000D+00  0.000000D+00
     10a  0.000000D+00  0.000000D+00  0.000000D+00  0.000000D+00  0.000000D+00
     10b  0.000000D+00  0.000000D+00  0.000000D+00  0.000000D+00  0.000000D+00
FORTRAN STOP
