 Entering Gaussian System, Link 0=gdv
 AtFile(1): H.gbs
            H     0
            S   10   1.00
               1000.000000000000            0.000068713567
                316.227766000000            0.000169141320
                100.000000000000            0.000823394812
                 31.622776600000            0.003425569236
                 10.000000000000            0.013951996000
                  3.162277660000            0.056909313560
                  1.000000000000            0.198286399900
                  0.316227766000            0.496922426700
                  0.100000000000            0.369846276400
                  0.031622776600            0.003752720039
            ****
 Initial command:
 /users/lcj1/GHF_hess/exe-dir/l1.exe "/users/lcj1/GHF_hess/h10_2rows/Gau-15319.inp" -scrdir="/users/lcj1/GHF_hess/h10_2rows/"
 Entering Link 1 = /users/lcj1/GHF_hess/exe-dir/l1.exe PID=     15320.
  
 Copyright (c) 1988,1990,1992,1993,1995,1998,2003,2009,2012,
            Gaussian, Inc.  All Rights Reserved.
  
 This is the private, development version of
 the Gaussian(R) DV system of programs. It is based on
 the Gaussian(R) 09 system (copyright 2009, Gaussian, Inc.),
 the Gaussian(R) 03 system (copyright 2003, Gaussian, Inc.),
 the Gaussian(R) 98 system (copyright 1998, Gaussian, Inc.),
 the Gaussian(R) 94 system (copyright 1995, Gaussian, Inc.),
 the Gaussian 92(TM) system (copyright 1992, Gaussian, Inc.),
 the Gaussian 90(TM) system (copyright 1990, Gaussian, Inc.),
 the Gaussian 88(TM) system (copyright 1988, Gaussian, Inc.),
 the Gaussian 86(TM) system (copyright 1986, Carnegie Mellon
 University), and the Gaussian 82(TM) system (copyright 1983,
 Carnegie Mellon University). Gaussian is a federally registered
 trademark of Gaussian, Inc.
  
 This software contains proprietary and confidential information,
 including trade secrets, belonging to Gaussian, Inc.
  
 This software is provided under written license and may be
 used, copied, transmitted, or stored only in accord with that
 written license.
  
 The following legend is applicable only to US Government
 contracts under FAR:
  
                    RESTRICTED RIGHTS LEGEND
  
 Use, reproduction and disclosure by the US Government is
 subject to restrictions as set forth in subparagraphs (a)
 and (c) of the Commercial Computer Software - Restricted
 Rights clause in FAR 52.227-19.
  
 Gaussian, Inc.
 340 Quinnipiac St., Bldg. 40, Wallingford CT 06492
  
  
 ---------------------------------------------------------------
 Warning -- This program may not be used in any manner that
 competes with the business of Gaussian, Inc. or will provide
 assistance to any competitor of Gaussian, Inc.  The licensee
 of this program is prohibited from giving any competitor of
 Gaussian, Inc. access to this program.  By using this program,
 the user acknowledges that Gaussian, Inc. is engaged in the
 business of creating and licensing software in the field of
 computational chemistry and represents and warrants to the
 licensee that it is not a competitor of Gaussian, Inc. and that
 it will not use this program in any manner prohibited above.
 ---------------------------------------------------------------
  

 Cite this work as:
 Gaussian Development Version, Revision H.21,
 M. J. Frisch, G. W. Trucks, H. B. Schlegel, G. E. Scuseria, 
 M. A. Robb, J. R. Cheeseman, G. Scalmani, V. Barone, B. Mennucci, 
 G. A. Petersson, H. Nakatsuji, M. Caricato, X. Li, H. P. Hratchian, 
 A. F. Izmaylov, J. Bloino, G. Zheng, J. L. Sonnenberg, W. Liang, 
 M. Hada, M. Ehara, K. Toyota, R. Fukuda, J. Hasegawa, M. Ishida, 
 T. Nakajima, Y. Honda, O. Kitao, H. Nakai, T. Vreven, 
 J. A. Montgomery, Jr., J. E. Peralta, F. Ogliaro, M. Bearpark, 
 J. J. Heyd, E. Brothers, K. N. Kudin, V. N. Staroverov, T. Keith, 
 R. Kobayashi, J. Normand, K. Raghavachari, A. Rendell, J. C. Burant, 
 S. S. Iyengar, J. Tomasi, M. Cossi, N. Rega, J. M. Millam, M. Klene, 
 J. E. Knox, J. B. Cross, V. Bakken, C. Adamo, J. Jaramillo, 
 R. Gomperts, R. E. Stratmann, O. Yazyev, A. J. Austin, R. Cammi, 
 C. Pomelli, J. W. Ochterski, R. L. Martin, K. Morokuma, 
 V. G. Zakrzewski, G. A. Voth, P. Salvador, J. J. Dannenberg, 
 S. Dapprich, P. V. Parandekar, N. J. Mayhall, A. D. Daniels, 
 O. Farkas, J. B. Foresman, J. V. Ortiz, J. Cioslowski, 
 and D. J. Fox, Gaussian, Inc., Wallingford CT, 2010.
 
 ******************************************
 Gaussian DV:  EM64L-GDVRevH.21 13-May-2012
                27-Feb-2017 
 ******************************************
 %chk=h10.chk
 ----------------------------------------------------------------------
 #ghf/gen scf(tight,novaracc,noincfock,fulldiag) stable guess=read geom
 =nocrowd use=l802 use=l902 test
 ----------------------------------------------------------------------
 ********************************************
   THE COMPLEX ERI TRANSFORMATION WITH L802  
        COMPLEX STABILITY WITH L902          
 ********************************************
 1/38=1/1;
 2/12=1,17=6,18=5,40=1/2;
 3/5=7,16=1,25=20,28=1,116=7/1,2,3,20;
 4/5=1/1;
 5/5=100001,16=1,32=2,38=6/2;
 8/6=1,10=90,11=11/1,2;
 9/8=4,13=1/1,2;
 6/7=2,8=2,9=2,10=2,28=1/1;
 99/5=1,9=1/99;
 ----------------------------------------------------------------------
 hf stability analysis of h10 triangular lattice, y= 1.3041546076852373
  alpha= 71.250000000000000
 ----------------------------------------------------------------------
 Symbolic Z-Matrix:
 Charge =  0 Multiplicity = 1
 H
 H                    1     1.37724 
 H                    1     1.37724  2     37.5 
 H                    2     1.37724  1     142.5    3     0.       0
 H                    3     1.37724  1     180.     2     0.       0
 H                    4     1.37724  2     180.     1     0.       0
 H                    5     1.37724  3     180.     2     0.       0
 H                    6     1.37724  4     180.     1     0.       0
 H                    7     1.37724  5     180.     2     0.       0
 H                    8     1.37724  6     180.     1     0.       0
 
                          Input orientation:                          
 ---------------------------------------------------------------------
 Center     Atomic      Atomic             Coordinates (Angstroms)
 Number     Number       Type             X           Y           Z
 ---------------------------------------------------------------------
      1          1           0        0.000000    0.000000    0.000000
      2          1           0        0.000000    0.000000    1.377245
      3          1           0        0.838414    0.000000    1.092642
      4          1           0        0.838414    0.000000    2.469887
      5          1           0        1.676827    0.000000    2.185284
      6          1           0        1.676827    0.000000    3.562528
      7          1           0        2.515241    0.000000    3.277925
      8          1           0        2.515241    0.000000    4.655170
      9          1           0        3.353654    0.000000    4.370567
     10          1           0        3.353654    0.000000    5.747812
 ---------------------------------------------------------------------
                    Distance matrix (angstroms):
                    1          2          3          4          5
     1  H    0.000000
     2  H    1.377245   0.000000
     3  H    1.377245   0.885402   0.000000
     4  H    2.608309   1.377245   1.377245   0.000000
     5  H    2.754490   1.861364   1.377245   0.885402   0.000000
     6  H    3.937430   2.754490   2.608309   1.377245   1.377245
     7  H    4.131734   3.152621   2.754490   1.861364   1.377245
     8  H    5.291223   4.131734   3.937430   2.754490   2.608309
     9  H    5.508979   4.495217   4.131734   3.152621   2.754490
    10  H    6.654648   5.508979   5.291223   4.131734   3.937430
                    6          7          8          9         10
     6  H    0.000000
     7  H    0.885402   0.000000
     8  H    1.377245   1.377245   0.000000
     9  H    1.861364   1.377245   0.885402   0.000000
    10  H    2.754490   2.608309   1.377245   1.377245   0.000000
 Stoichiometry    H10
 Framework group  C2H[SGH(H10)]
 Deg. of freedom     9
 Full point group                 C2H     NOp   4
 Largest Abelian subgroup         C2H     NOp   4
 Largest concise Abelian subgroup C2      NOp   2
                         Standard orientation:                         
 ---------------------------------------------------------------------
 Center     Atomic      Atomic             Coordinates (Angstroms)
 Number     Number       Type             X           Y           Z
 ---------------------------------------------------------------------
      1          1           0        1.676827    2.873906    0.000000
      2          1           0        1.676827    1.496661    0.000000
      3          1           0        0.838414    1.781264    0.000000
      4          1           0        0.838414    0.404019    0.000000
      5          1           0        0.000000    0.688622    0.000000
      6          1           0        0.000000   -0.688622    0.000000
      7          1           0       -0.838414   -0.404019    0.000000
      8          1           0       -0.838414   -1.781264    0.000000
      9          1           0       -1.676827   -1.496661    0.000000
     10          1           0       -1.676827   -2.873906    0.000000
 ---------------------------------------------------------------------
 Rotational constants (GHZ):    308.8025378     12.2144645     11.7497130
 General basis read from cards:  (5D, 7F)
 There are     5 symmetry adapted cartesian basis functions of AG  symmetry.
 There are     0 symmetry adapted cartesian basis functions of BG  symmetry.
 There are     0 symmetry adapted cartesian basis functions of AU  symmetry.
 There are     5 symmetry adapted cartesian basis functions of BU  symmetry.
 There are     5 symmetry adapted basis functions of AG  symmetry.
 There are     0 symmetry adapted basis functions of BG  symmetry.
 There are     0 symmetry adapted basis functions of AU  symmetry.
 There are     5 symmetry adapted basis functions of BU  symmetry.
    10 basis functions,   100 primitive gaussians,    10 cartesian basis functions
     5 alpha electrons        5 beta electrons
       nuclear repulsion energy        12.0433261239 Hartrees.
 NAtoms=   10 NActive=   10 NUniq=    5 SFac= 4.00D+00 NAtFMM=   60 NAOKFM=F Big=F
 Integral buffers will be    131072 words long.
 Regular integral format.
 Two-electron integral symmetry is turned off.
 One-electron integrals computed using PRISM.
 NBasis=    10 RedAO= T EigKep=  1.83D-01  NBF=     5     0     0     5
 NBsUse=    10 1.00D-06 EigRej= -1.00D+00 NBFU=     5     0     0     5
 IOp(28)                       1
                        1                       0
                        2                       1
                        3                       1
                        4                      20
                        5                       0
                        6                       0
                        7                      10
                        8                       1
                        9                       4
                       10                       0
                       11              1073741824
                       12                      20
                       13                       2
                       14                  131070
                       15                       1
                       16                       1
                       17                  131073
                       18                       0
                       19                       0
                       20                       0
                       21                       2
                       22                  131070
                       23                       0
                       24                       0
                       25                       0
                       26                       0
                       27                   65535
                       28                       2
                       29                  131072
                       30                       0
 IHMeth                       1
 ib3: ISMode =                        0                       4
 Enter DskPsm, NBasis=  10 NBas6D=  10 NShell=  10 IDoSP=4.
 Out2e will use a cutoff of  1.00D-10
 FoFCou: FMM=F IPFlag=           0 FMFlag=           0 FMFlg1=           0
         NFxFlg=           0 DoJE=F BraDBF=F KetDBF=F FulRan=T
         wScrn=  0.000000 ICntrl=     600 IOpCl=  9 I1Cent=           0 NGrid=           0
         NMat0=    0 NMatS0=      0 NMatT0=    0 NMatD0=    0 NMtDS0=    0 NMtDT0=    0
 Symmetry not used in FoFCou.
 Entering PrmDigJobTyp =                      20
 LenSav and NKeep                       0                       0
 Entered Stor2E with KNTT1,2                       2                  131070
 Leave Stor2X
 Entering PrmDigJobTyp =                      20
 LenSav and NKeep                       0                       0
 Entered Stor2E with KNTT1,2                       2                  131056
 Leave Stor2X
 Entering PrmDigJobTyp =                      20
 LenSav and NKeep                       0                       0
 Entered Stor2E with KNTT1,2                       2                  131042
 Leave Stor2X
 Entering PrmDigJobTyp =                      20
 LenSav and NKeep                       0                       0
 Entered Stor2E with KNTT1,2                       2                  131028
 Leave Stor2X
 Entering PrmDigJobTyp =                      20
 LenSav and NKeep                       0                       0
 Entered Stor2E with KNTT1,2                       2                  131014
 Leave Stor2X
 Entering PrmDigJobTyp =                      20
 LenSav and NKeep                       0                       0
 Entered Stor2E with KNTT1,2                       2                  131000
 Leave Stor2X
 Entering PrmDigJobTyp =                      20
 LenSav and NKeep                       0                       0
 Entered Stor2E with KNTT1,2                       2                  130986
 Leave Stor2X
 Entering PrmDigJobTyp =                      20
 LenSav and NKeep                       0                       0
 Entered Stor2E with KNTT1,2                       2                  130972
 Leave Stor2X
 Entering PrmDigJobTyp =                      20
 LenSav and NKeep                       0                       0
 Entered Stor2E with KNTT1,2                       2                  130960
 Leave Stor2X
 Entering PrmDigJobTyp =                      20
 LenSav and NKeep                       0                       0
 Entered Stor2E with KNTT1,2                       2                  130944
 Leave Stor2X
 Entering PrmDigJobTyp =                      20
 LenSav and NKeep                       0                       0
 Entered Stor2E with KNTT1,2                       2                  130928
 Leave Stor2X
 Entering PrmDigJobTyp =                      20
 LenSav and NKeep                       0                       0
 Entered Stor2E with KNTT1,2                       2                  130912
 Leave Stor2X
 Entering PrmDigJobTyp =                      20
 LenSav and NKeep                       0                       0
 Entered Stor2E with KNTT1,2                       2                  130896
 Leave Stor2X
 Entering PrmDigJobTyp =                      20
 LenSav and NKeep                       0                       0
 Entered Stor2E with KNTT1,2                       2                  130880
 Leave Stor2X
 Entering PrmDigJobTyp =                      20
 LenSav and NKeep                       0                       0
 Entered Stor2E with KNTT1,2                       2                  130864
 Leave Stor2X
 Entering PrmDigJobTyp =                      20
 LenSav and NKeep                       0                       0
 Entered Stor2E with KNTT1,2                       2                  130848
 Leave Stor2X
 Entering PrmDigJobTyp =                      20
 LenSav and NKeep                       0                       0
 Entered Stor2E with KNTT1,2                       2                  130832
 Leave Stor2X
 Entering PrmDigJobTyp =                      20
 LenSav and NKeep                       0                       0
 Entered Stor2E with KNTT1,2                       2                  130816
 Leave Stor2X
 Entering PrmDigJobTyp =                      20
 LenSav and NKeep                       0                       0
 Entered Stor2E with KNTT1,2                       2                  130800
 Leave Stor2X
 Entering PrmDigJobTyp =                      20
 LenSav and NKeep                       0                       0
 Entered Stor2E with KNTT1,2                       2                  130784
 Leave Stor2X
 Entering PrmDigJobTyp =                      20
 LenSav and NKeep                       0                       0
 Entered Stor2E with KNTT1,2                       2                  130768
 Leave Stor2X
 Entering PrmDigJobTyp =                      20
 LenSav and NKeep                       0                       0
 Entered Stor2E with KNTT1,2                       2                  130752
 Leave Stor2X
 Entering PrmDigJobTyp =                      20
 LenSav and NKeep                       0                       0
 Entered Stor2E with KNTT1,2                       2                  130736
 Leave Stor2X
 Entering PrmDigJobTyp =                      20
 LenSav and NKeep                       0                       0
 Entered Stor2E with KNTT1,2                       2                  130720
 Leave Stor2X
 Entering PrmDigJobTyp =                      20
 LenSav and NKeep                       0                       0
 Entered Stor2E with KNTT1,2                       2                  130704
 Leave Stor2X
 Entering PrmDigJobTyp =                      20
 LenSav and NKeep                       0                       0
 Entered Stor2E with KNTT1,2                       2                  130700
 Leave Stor2X
 Entering PrmDigJobTyp =                      20
 LenSav and NKeep                       0                       0
 Entered Stor2E with KNTT1,2                       8                  130684
 Leave Stor2X
 Entering PrmDigJobTyp =                      20
 LenSav and NKeep                       0                       0
 Entered Stor2E with KNTT1,2                      18                  130672
 Leave Stor2X
 Entering PrmDigJobTyp =                      20
 LenSav and NKeep                       0                       0
 Entered Stor2E with KNTT1,2                      32                  130664
 Leave Stor2X
 Entering PrmDigJobTyp =                      20
 LenSav and NKeep                       0                       0
 Entered Stor2E with KNTT1,2                      46                  130656
 Leave Stor2X
 Entering PrmDigJobTyp =                      20
 LenSav and NKeep                       0                       0
 Entered Stor2E with KNTT1,2                      60                  130648
 Leave Stor2X
 Entering PrmDigJobTyp =                      20
 LenSav and NKeep                       0                       0
 Entered Stor2E with KNTT1,2                      76                  130642
 Leave Stor2X
 Entering PrmDigJobTyp =                      20
 LenSav and NKeep                       0                       0
 Entered Stor2E with KNTT1,2                      94                  130638
 Leave Stor2X
 Entering PrmDigJobTyp =                      20
 LenSav and NKeep                       0                       0
 Entered Stor2E with KNTT1,2                     114                  130636
 Leave Stor2X
 Entering PrmDigJobTyp =                      20
 LenSav and NKeep                       0                       0
 Entered Stor2E with KNTT1,2                     114                  130630
 Leave Stor2X
 Entering PrmDigJobTyp =                      20
 LenSav and NKeep                       0                       0
 Entered Stor2E with KNTT1,2                     114                  130616
 Leave Stor2X
 Entering PrmDigJobTyp =                      20
 LenSav and NKeep                       0                       0
 Entered Stor2E with KNTT1,2                     114                  130602
 Leave Stor2X
 Entering PrmDigJobTyp =                      20
 LenSav and NKeep                       0                       0
 Entered Stor2E with KNTT1,2                     114                  130588
 Leave Stor2X
 Entering PrmDigJobTyp =                      20
 LenSav and NKeep                       0                       0
 Entered Stor2E with KNTT1,2                     114                  130574
 Leave Stor2X
 Entering PrmDigJobTyp =                      20
 LenSav and NKeep                       0                       0
 Entered Stor2E with KNTT1,2                     114                  130560
 Leave Stor2X
 Entering PrmDigJobTyp =                      20
 LenSav and NKeep                       0                       0
 Entered Stor2E with KNTT1,2                     114                  130550
 Leave Stor2X
 Entering PrmDigJobTyp =                      20
 LenSav and NKeep                       0                       0
 Entered Stor2E with KNTT1,2                     124                  130540
 Leave Stor2X
 Entering PrmDigJobTyp =                      20
 LenSav and NKeep                       0                       0
 Entered Stor2E with KNTT1,2                     134                  130530
 Leave Stor2X
 Entering PrmDigJobTyp =                      20
 LenSav and NKeep                       0                       0
 Entered Stor2E with KNTT1,2                     152                  130528
 Leave Stor2X
 Entering PrmDigJobTyp =                      20
 LenSav and NKeep                       0                       0
 Entered Stor2E with KNTT1,2                     160                  130516
 Leave Stor2X
 Entering PrmDigJobTyp =                      20
 LenSav and NKeep                       0                       0
 Entered Stor2E with KNTT1,2                     174                  130510
 Leave Stor2X
 Entering PrmDigJobTyp =                      20
 LenSav and NKeep                       0                       0
 Entered Stor2E with KNTT1,2                     174                  130506
 Leave Stor2X
 Entering PrmDigJobTyp =                      20
 LenSav and NKeep                       0                       0
 Entered Stor2E with KNTT1,2                     186                  130500
 Leave Stor2X
 Entering PrmDigJobTyp =                      20
 LenSav and NKeep                       0                       0
 Entered Stor2E with KNTT1,2                     186                  130498
 Leave Stor2X
 Entering PrmDigJobTyp =                      20
 LenSav and NKeep                       0                       0
 Entered Stor2E with KNTT1,2                     186                  130478
 Leave Stor2X
 Entering PrmDigJobTyp =                      20
 LenSav and NKeep                       0                       0
 Entered Stor2E with KNTT1,2                     186                  130458
 Leave Stor2X
 Entering PrmDigJobTyp =                      20
 LenSav and NKeep                       0                       0
 Entered Stor2E with KNTT1,2                     186                  130438
 Leave Stor2X
 Entering PrmDigJobTyp =                      20
 LenSav and NKeep                       0                       0
 Entered Stor2E with KNTT1,2                     186                  130418
 Leave Stor2X
 Entering PrmDigJobTyp =                      20
 LenSav and NKeep                       0                       0
 Entered Stor2E with KNTT1,2                     186                  130398
 Leave Stor2X
 Entering PrmDigJobTyp =                      20
 LenSav and NKeep                       0                       0
 Entered Stor2E with KNTT1,2                     186                  130378
 Leave Stor2X
 Entering PrmDigJobTyp =                      20
 LenSav and NKeep                       0                       0
 Entered Stor2E with KNTT1,2                     186                  130358
 Leave Stor2X
 Entering PrmDigJobTyp =                      20
 LenSav and NKeep                       0                       0
 Entered Stor2E with KNTT1,2                     186                  130338
 Leave Stor2X
 Entering PrmDigJobTyp =                      20
 LenSav and NKeep                       0                       0
 Entered Stor2E with KNTT1,2                     186                  130318
 Leave Stor2X
 Entering PrmDigJobTyp =                      20
 LenSav and NKeep                       0                       0
 Entered Stor2E with KNTT1,2                     186                  130298
 Leave Stor2X
 Entering PrmDigJobTyp =                      20
 LenSav and NKeep                       0                       0
 Entered Stor2E with KNTT1,2                     202                  130286
 Leave Stor2X
 Entering PrmDigJobTyp =                      20
 LenSav and NKeep                       0                       0
 Entered Stor2E with KNTT1,2                     220                  130276
 Leave Stor2X
 Entering PrmDigJobTyp =                      20
 LenSav and NKeep                       0                       0
 Entered Stor2E with KNTT1,2                     238                  130266
 Leave Stor2X
 Entering PrmDigJobTyp =                      20
 LenSav and NKeep                       0                       0
 Entered Stor2E with KNTT1,2                     252                  130252
 Leave Stor2X
 Entering PrmDigJobTyp =                      20
 LenSav and NKeep                       0                       0
 Entered Stor2E with KNTT1,2                     268                  130240
 Leave Stor2X
 Entering PrmDigJobTyp =                      20
 LenSav and NKeep                       0                       0
 Entered Stor2E with KNTT1,2                     286                  130230
 Leave Stor2X
 Entering PrmDigJobTyp =                      20
 LenSav and NKeep                       0                       0
 Entered Stor2E with KNTT1,2                     300                  130216
 Leave Stor2X
 Entering PrmDigJobTyp =                      20
 LenSav and NKeep                       0                       0
 Entered Stor2E with KNTT1,2                     318                  130206
 Leave Stor2X
 Entering PrmDigJobTyp =                      20
 LenSav and NKeep                       0                       0
 Entered Stor2E with KNTT1,2                     338                  130198
 Leave Stor2X
 Entering PrmDigJobTyp =                      20
 LenSav and NKeep                       0                       0
 Entered Stor2E with KNTT1,2                     338                  130190
 Leave Stor2X
 Entering PrmDigJobTyp =                      20
 LenSav and NKeep                       0                       0
 Entered Stor2E with KNTT1,2                     354                  130180
 Leave Stor2X
 Entering PrmDigJobTyp =                      20
 LenSav and NKeep                       0                       0
 Entered Stor2E with KNTT1,2                     368                  130168
 Leave Stor2X
 Entering PrmDigJobTyp =                      20
 LenSav and NKeep                       0                       0
 Entered Stor2E with KNTT1,2                     384                  130158
 Leave Stor2X
 Entering PrmDigJobTyp =                      20
 LenSav and NKeep                       0                       0
 Entered Stor2E with KNTT1,2                     386                  130158
 Leave Stor2X
 Entering PrmDigJobTyp =                      20
 LenSav and NKeep                       0                       0
 Entered Stor2E with KNTT1,2                     404                  130140
 Leave Stor2X
 Entering PrmDigJobTyp =                      20
 LenSav and NKeep                       0                       0
 Entered Stor2E with KNTT1,2                     426                  130126
 Leave Stor2X
 Entering PrmDigJobTyp =                      20
 LenSav and NKeep                       0                       0
 Entered Stor2E with KNTT1,2                     452                  130116
 Leave Stor2X
 Entering PrmDigJobTyp =                      20
 LenSav and NKeep                       0                       0
 Entered Stor2E with KNTT1,2                     452                  130114
 Leave Stor2X
 Entering PrmDigJobTyp =                      20
 LenSav and NKeep                       0                       0
 Entered Stor2E with KNTT1,2                     452                  130098
 Leave Stor2X
 Entering PrmDigJobTyp =                      20
 LenSav and NKeep                       0                       0
 Entered Stor2E with KNTT1,2                     452                  130082
 Leave Stor2X
 Entering PrmDigJobTyp =                      20
 LenSav and NKeep                       0                       0
 Entered Stor2E with KNTT1,2                     452                  130066
 Leave Stor2X
 Entering PrmDigJobTyp =                      20
 LenSav and NKeep                       0                       0
 Entered Stor2E with KNTT1,2                     452                  130054
 Leave Stor2X
 Entering PrmDigJobTyp =                      20
 LenSav and NKeep                       0                       0
 Entered Stor2E with KNTT1,2                     466                  130044
 Leave Stor2X
 Entering PrmDigJobTyp =                      20
 LenSav and NKeep                       0                       0
 Entered Stor2E with KNTT1,2                     478                  130032
 Leave Stor2X
 Entering PrmDigJobTyp =                      20
 LenSav and NKeep                       0                       0
 Entered Stor2E with KNTT1,2                     496                  130026
 Leave Stor2X
 Entering PrmDigJobTyp =                      20
 LenSav and NKeep                       0                       0
 Entered Stor2E with KNTT1,2                     498                  130022
 Leave Stor2X
 Entering PrmDigJobTyp =                      20
 LenSav and NKeep                       0                       0
 Entered Stor2E with KNTT1,2                     510                  130012
 Leave Stor2X
 Entering PrmDigJobTyp =                      20
 LenSav and NKeep                       0                       0
 Entered Stor2E with KNTT1,2                     510                  130010
 Leave Stor2X
 Entering PrmDigJobTyp =                      20
 LenSav and NKeep                       0                       0
 Entered Stor2E with KNTT1,2                     528                  129998
 Leave Stor2X
 Entering PrmDigJobTyp =                      20
 LenSav and NKeep                       0                       0
 Entered Stor2E with KNTT1,2                     546                  129986
 Leave Stor2X
 Entering PrmDigJobTyp =                      20
 LenSav and NKeep                       0                       0
 Entered Stor2E with KNTT1,2                     552                  129980
 Leave Stor2X
 Entering PrmDigJobTyp =                      20
 LenSav and NKeep                       0                       0
 Entered Stor2E with KNTT1,2                     552                  129958
 Leave Stor2X
 Entering PrmDigJobTyp =                      20
 LenSav and NKeep                       0                       0
 Entered Stor2E with KNTT1,2                     552                  129936
 Leave Stor2X
 Entering PrmDigJobTyp =                      20
 LenSav and NKeep                       0                       0
 Entered Stor2E with KNTT1,2                     552                  129914
 Leave Stor2X
 Entering PrmDigJobTyp =                      20
 LenSav and NKeep                       0                       0
 Entered Stor2E with KNTT1,2                     552                  129892
 Leave Stor2X
 Entering PrmDigJobTyp =                      20
 LenSav and NKeep                       0                       0
 Entered Stor2E with KNTT1,2                     552                  129880
 Leave Stor2X
 Entering PrmDigJobTyp =                      20
 LenSav and NKeep                       0                       0
 Entered Stor2E with KNTT1,2                     570                  129868
 Leave Stor2X
 Entering PrmDigJobTyp =                      20
 LenSav and NKeep                       0                       0
 Entered Stor2E with KNTT1,2                     588                  129856
 Leave Stor2X
 Entering PrmDigJobTyp =                      20
 LenSav and NKeep                       0                       0
 Entered Stor2E with KNTT1,2                     604                  129842
 Leave Stor2X
 Entering PrmDigJobTyp =                      20
 LenSav and NKeep                       0                       0
 Entered Stor2E with KNTT1,2                     624                  129832
 Leave Stor2X
 Entering PrmDigJobTyp =                      20
 LenSav and NKeep                       0                       0
 Entered Stor2E with KNTT1,2                     630                  129828
 Leave Stor2X
 Entering PrmDigJobTyp =                      20
 LenSav and NKeep                       0                       0
 Entered Stor2E with KNTT1,2                     646                  129816
 Leave Stor2X
 Entering PrmDigJobTyp =                      20
 LenSav and NKeep                       0                       0
 Entered Stor2E with KNTT1,2                     654                  129812
 Leave Stor2X
 Entering PrmDigJobTyp =                      20
 LenSav and NKeep                       0                       0
 Entered Stor2E with KNTT1,2                     678                  129798
 Leave Stor2X
 Entering PrmDigJobTyp =                      20
 LenSav and NKeep                       0                       0
 Entered Stor2E with KNTT1,2                     700                  129782
 Leave Stor2X
 Entering PrmDigJobTyp =                      20
 LenSav and NKeep                       0                       0
 Entered Stor2E with KNTT1,2                     714                  129772
 Leave Stor2X
 Entering PrmDigJobTyp =                      20
 LenSav and NKeep                       0                       0
 Entered Stor2E with KNTT1,2                     732                  129760
 Leave Stor2X
 Entering PrmDigJobTyp =                      20
 LenSav and NKeep                       0                       0
 Entered Stor2E with KNTT1,2                     752                  129750
 Leave Stor2X
 Entering PrmDigJobTyp =                      20
 LenSav and NKeep                       0                       0
 Entered Stor2E with KNTT1,2                     752                  129728
 Leave Stor2X
 Entering PrmDigJobTyp =                      20
 LenSav and NKeep                       0                       0
 Entered Stor2E with KNTT1,2                     752                  129706
 Leave Stor2X
 Entering PrmDigJobTyp =                      20
 LenSav and NKeep                       0                       0
 Entered Stor2E with KNTT1,2                     752                  129684
 Leave Stor2X
 Entering PrmDigJobTyp =                      20
 LenSav and NKeep                       0                       0
 Entered Stor2E with KNTT1,2                     752                  129670
 Leave Stor2X
 Entering PrmDigJobTyp =                      20
 LenSav and NKeep                       0                       0
 Entered Stor2E with KNTT1,2                     770                  129656
 Leave Stor2X
 Entering PrmDigJobTyp =                      20
 LenSav and NKeep                       0                       0
 Entered Stor2E with KNTT1,2                     790                  129644
 Leave Stor2X
 Entering PrmDigJobTyp =                      20
 LenSav and NKeep                       0                       0
 Entered Stor2E with KNTT1,2                     812                  129634
 Leave Stor2X
 Entering PrmDigJobTyp =                      20
 LenSav and NKeep                       0                       0
 Entered Stor2E with KNTT1,2                     816                  129630
 Leave Stor2X
 Entering PrmDigJobTyp =                      20
 LenSav and NKeep                       0                       0
 Entered Stor2E with KNTT1,2                     834                  129618
 Leave Stor2X
 Entering PrmDigJobTyp =                      20
 LenSav and NKeep                       0                       0
 Entered Stor2E with KNTT1,2                     836                  129618
 Leave Stor2X
 Entering PrmDigJobTyp =                      20
 LenSav and NKeep                       0                       0
 Entered Stor2E with KNTT1,2                     864                  129604
 Leave Stor2X
 Entering PrmDigJobTyp =                      20
 LenSav and NKeep                       0                       0
 Entered Stor2E with KNTT1,2                     888                  129590
 Leave Stor2X
 Entering PrmDigJobTyp =                      20
 LenSav and NKeep                       0                       0
 Entered Stor2E with KNTT1,2                     904                  129582
 Leave Stor2X
 Entering PrmDigJobTyp =                      20
 LenSav and NKeep                       0                       0
 Entered Stor2E with KNTT1,2                     928                  129566
 Leave Stor2X
 Entering PrmDigJobTyp =                      20
 LenSav and NKeep                       0                       0
 Entered Stor2E with KNTT1,2                     940                  129558
 Leave Stor2X
 Entering PrmDigJobTyp =                      20
 LenSav and NKeep                       0                       0
 Entered Stor2E with KNTT1,2                     940                  129530
 Leave Stor2X
 Entering PrmDigJobTyp =                      20
 LenSav and NKeep                       0                       0
 Entered Stor2E with KNTT1,2                     940                  129502
 Leave Stor2X
 Entering PrmDigJobTyp =                      20
 LenSav and NKeep                       0                       0
 Entered Stor2E with KNTT1,2                     940                  129478
 Leave Stor2X
 Entering PrmDigJobTyp =                      20
 LenSav and NKeep                       0                       0
 Entered Stor2E with KNTT1,2                     968                  129464
 Leave Stor2X
 Entering PrmDigJobTyp =                      20
 LenSav and NKeep                       0                       0
 Entered Stor2E with KNTT1,2                     996                  129450
 Leave Stor2X
 Entering PrmDigJobTyp =                      20
 LenSav and NKeep                       0                       0
 Entered Stor2E with KNTT1,2                    1008                  129442
 Leave Stor2X
 Entering PrmDigJobTyp =                      20
 LenSav and NKeep                       0                       0
 Entered Stor2E with KNTT1,2                    1032                  129434
 Leave Stor2X
 Entering PrmDigJobTyp =                      20
 LenSav and NKeep                       0                       0
 Entered Stor2E with KNTT1,2                    1068                  129418
 Leave Stor2X
 Entering PrmDigJobTyp =                      20
 LenSav and NKeep                       0                       0
 Entered Stor2E with KNTT1,2                    1084                  129406
 Leave Stor2X
 Entering PrmDigJobTyp =                      20
 LenSav and NKeep                       0                       0
 Entered Stor2E with KNTT1,2                    1104                  129402
 Leave Stor2X
 Entering PrmDigJobTyp =                      20
 LenSav and NKeep                       0                       0
 Entered Stor2E with KNTT1,2                    1128                  129386
 Leave Stor2X
 Entering PrmDigJobTyp =                      20
 LenSav and NKeep                       0                       0
 Entered Stor2E with KNTT1,2                    1144                  129370
 Leave Stor2X
 Entering PrmDigJobTyp =                      20
 LenSav and NKeep                       0                       0
 Entered Stor2E with KNTT1,2                    1152                  129358
 Leave Stor2X
 Entering PrmDigJobTyp =                      20
 LenSav and NKeep                       0                       0
 Entered Stor2E with KNTT1,2                    1152                  129338
 Leave Stor2X
 Entering PrmDigJobTyp =                      20
 LenSav and NKeep                       0                       0
 Entered Stor2E with KNTT1,2                    1170                  129330
 Leave Stor2X
 Entering PrmDigJobTyp =                      20
 LenSav and NKeep                       0                       0
 Entered Stor2E with KNTT1,2                    1174                  129326
 Leave Stor2X
 Entering PrmDigJobTyp =                      20
 LenSav and NKeep                       0                       0
 Entered Stor2E with KNTT1,2                    1190                  129322
 Leave Stor2X
 Entering PrmDigJobTyp =                      20
 LenSav and NKeep                       0                       0
 Entered Stor2E with KNTT1,2                    1192                  129318
 Leave Stor2X
 Entering PrmDigJobTyp =                      20
 LenSav and NKeep                       0                       0
 Entered Stor2E with KNTT1,2                    1198                  129314
 Leave Stor2X
 Entering PrmDigJobTyp =                      20
 LenSav and NKeep                       0                       0
 Entered Stor2E with KNTT1,2                    1202                  129310
 Leave Stor2X
 Entering PrmDigJobTyp =                      20
 LenSav and NKeep                       0                       0
 Entered Stor2E with KNTT1,2                    1206                  129306
 Leave Stor2X
 Entering PrmDigJobTyp =                      20
 LenSav and NKeep                       0                       0
 Entered Stor2E with KNTT1,2                    1206                  129304
 Leave Stor2X
 Entering PrmDigJobTyp =                      20
 LenSav and NKeep                       0                       0
 Entered Stor2E with KNTT1,2                    1206                  129284
 Leave Stor2X
 Entering PrmDigJobTyp =                      20
 LenSav and NKeep                       0                       0
 Entered Stor2E with KNTT1,2                    1224                  129276
 Leave Stor2X
 Entering PrmDigJobTyp =                      20
 LenSav and NKeep                       0                       0
 Entered Stor2E with KNTT1,2                    1232                  129276
 Leave Stor2X
 Entering PrmDigJobTyp =                      20
 LenSav and NKeep                       0                       0
 Entered Stor2E with KNTT1,2                    1244                  129268
 Leave Stor2X
 Entering PrmDigJobTyp =                      20
 LenSav and NKeep                       0                       0
 Entered Stor2E with KNTT1,2                    1250                  129268
 Leave Stor2X
 Entering PrmDigJobTyp =                      20
 LenSav and NKeep                       0                       0
 Entered Stor2E with KNTT1,2                    1256                  129264
 Leave Stor2X
 Entering PrmDigJobTyp =                      20
 LenSav and NKeep                       0                       0
 Entered Stor2E with KNTT1,2                    1260                  129260
 Leave Stor2X
 Entering PrmDigJobTyp =                      20
 LenSav and NKeep                       0                       0
 Entered Stor2E with KNTT1,2                    1260                  129252
 Leave Stor2X
 Entering PrmDigJobTyp =                      20
 LenSav and NKeep                       0                       0
 Entered Stor2E with KNTT1,2                    1262                  129252
 Leave Stor2X
 In PrSumR
 Called IWRITE
         1540 integrals produced for a total of         1540.
 Initial guess from the checkpoint file:  "h10.chk"
 B after Tr=     0.000000    0.000000    0.000000
         Rot=    0.999958    0.000000    0.000000   -0.009175 Ang=  -1.05 deg.
 Initial guess <Sx>= 0.0000 <Sy>= 0.0000 <Sz>= 0.0000 <S**2>= 0.0000 S= 0.0000
 Two-electron integrals will be kept in memory, NGetB=      152788.
 Requested convergence on RMS density matrix=1.00D-08 within 128 cycles.
 Requested convergence on MAX density matrix=1.00D-06.
 Requested convergence on             energy=1.00D-06.
 No special actions if energy rises.
 ************************************************
 *READING THE YAODEN.PDM FILE TO GET NEW DENSITY*
 ************************************************
 Rare condition: small coef for last iteration:  0.000D+00
 SCF Done:  E(GHF) =  -4.94082586762     A.U. after   24 cycles
            NFock= 24  Conv=0.30D-08     -V/T= 1.8964
 <Sx>=-0.0601 <Sy>= 0.0000 <Sz>=-0.9982 <S**2>= 2.5282 S= 1.1668
 <L.S>= 0.000000000000E+00
 Range of M.O.s used for correlation:     1    10
 NBasis=    10 NAE=    10 NBE=     0 NFC=     0 NFV=     0
 NROrb=     20 NOA=    10 NOB=     0 NVA=    10 NVB=     0
 jaja DoHack is true or false? T
 jaja in hckghf.F, NBasis=                      10
 jaja in hckGHF/FixOG, LC =                      800
 jaja in hckGHF/FixOG, IRwC=                      548
 bfr conversion (real):
                 1             2             3             4             5 
      1a -0.133392D-02  0.557739D-02 -0.410161D-02  0.262886D-01 -0.894861D-02
      1b  0.443470D-01  0.167764D-03  0.136361D+00  0.790740D-03  0.297502D+00
      2a -0.486422D-02  0.870839D-01 -0.938756D-02  0.193515D+00 -0.100715D-01
      2b  0.161714D+00  0.261941D-02  0.312095D+00  0.582078D-02  0.334832D+00
      3a -0.419178D-02  0.177727D+00 -0.740887D-02  0.344504D+00 -0.625405D-02
      3b  0.139358D+00  0.534588D-02  0.246312D+00  0.103624D-01  0.207920D+00
      4a -0.461845D-02  0.328920D+00 -0.392052D-02  0.297997D+00  0.349005D-02
      4b  0.153543D+00  0.989364D-02  0.130340D+00  0.896350D-02 -0.116029D+00
      5a -0.941664D-02  0.172738D+00 -0.562848D-02  0.116953D+00  0.986716D-02
      5b  0.313062D+00  0.519583D-02  0.187122D+00  0.351785D-02 -0.328040D+00
      6a -0.941664D-02  0.172738D+00  0.562848D-02 -0.116953D+00  0.986716D-02
      6b  0.313062D+00  0.519583D-02 -0.187122D+00 -0.351785D-02 -0.328040D+00
      7a -0.461845D-02  0.328920D+00  0.392052D-02 -0.297997D+00  0.349005D-02
      7b  0.153543D+00  0.989364D-02 -0.130340D+00 -0.896350D-02 -0.116029D+00
      8a -0.419178D-02  0.177727D+00  0.740887D-02 -0.344504D+00 -0.625405D-02
      8b  0.139358D+00  0.534588D-02 -0.246312D+00 -0.103624D-01  0.207920D+00
      9a -0.486422D-02  0.870839D-01  0.938756D-02 -0.193515D+00 -0.100715D-01
      9b  0.161714D+00  0.261941D-02 -0.312095D+00 -0.582078D-02  0.334832D+00
     10a -0.133392D-02  0.557739D-02  0.410161D-02 -0.262886D-01 -0.894861D-02
     10b  0.443470D-01  0.167764D-03 -0.136361D+00 -0.790740D-03  0.297502D+00
                 6             7             8             9            10 
      1a  0.962254D-01 -0.165800D-01 -0.161598D+00 -0.221623D-01 -0.158690D-01
      1b  0.289438D-02  0.551213D+00 -0.486073D-02  0.736800D+00  0.527574D+00
      2a  0.303855D+00 -0.176223D-02 -0.248166D+00  0.144215D-01  0.174826D-01
      2b  0.913969D-02  0.585863D-01 -0.746461D-02 -0.479452D+00 -0.581218D+00
      3a  0.456312D+00  0.120504D-02 -0.341275D+00  0.636886D-02  0.303389D-02
      3b  0.137255D-01 -0.400624D-01 -0.102653D-01 -0.211737D+00 -0.100864D+00
      4a -0.286908D+00  0.779476D-02  0.728529D+00  0.629465D-03 -0.195532D-02
      4b -0.862994D-02 -0.259142D+00  0.219135D-01 -0.209270D-01  0.650058D-01
      5a -0.224489D+00  0.148941D-01  0.261929D+00 -0.716814D-02 -0.195935D-01
      5b -0.675243D-02 -0.495163D+00  0.787859D-02  0.238309D+00  0.651397D+00
      6a -0.224489D+00 -0.148941D-01 -0.261929D+00 -0.716814D-02  0.195935D-01
      6b -0.675243D-02  0.495163D+00 -0.787859D-02  0.238309D+00 -0.651397D+00
      7a -0.286908D+00 -0.779476D-02 -0.728529D+00  0.629465D-03  0.195532D-02
      7b -0.862994D-02  0.259142D+00 -0.219135D-01 -0.209270D-01 -0.650058D-01
      8a  0.456312D+00 -0.120504D-02  0.341275D+00  0.636886D-02 -0.303389D-02
      8b  0.137255D-01  0.400624D-01  0.102653D-01 -0.211737D+00  0.100864D+00
      9a  0.303855D+00  0.176223D-02  0.248166D+00  0.144215D-01 -0.174826D-01
      9b  0.913969D-02 -0.585863D-01  0.746461D-02 -0.479452D+00  0.581218D+00
     10a  0.962254D-01  0.165800D-01  0.161598D+00 -0.221623D-01  0.158690D-01
     10b  0.289438D-02 -0.551213D+00  0.486073D-02  0.736800D+00 -0.527574D+00
                11            12            13            14            15 
      1a -0.163250D+00 -0.740951D-02  0.696284D+00  0.467502D-02 -0.392438D+00
      1b -0.491042D-02  0.246334D+00  0.209436D-01 -0.155424D+00 -0.118042D-01
      2a -0.424754D+00  0.666101D-03 -0.497991D+00  0.176460D-01 -0.515283D+00
      2b -0.127762D-01 -0.221449D-01 -0.149791D-01 -0.586652D+00 -0.154993D-01
      3a  0.442000D+00  0.153820D-01  0.208444D-01 -0.275071D-01  0.808966D+00
      3b  0.132950D-01 -0.511383D+00  0.626979D-03  0.914490D+00  0.243330D-01
      4a -0.405668D+00 -0.258034D-01 -0.233886D+00  0.134248D-01 -0.429290D+00
      4b -0.122021D-01  0.857850D+00 -0.703508D-02 -0.446315D+00 -0.129127D-01
      5a  0.679693D+00  0.850951D-02  0.344783D+00 -0.556693D-02  0.269055D+00
      5b  0.204446D-01 -0.282904D+00  0.103708D-01  0.185076D+00  0.809296D-02
      6a -0.679693D+00 -0.850951D-02  0.344783D+00 -0.556693D-02  0.269055D+00
      6b -0.204446D-01  0.282904D+00  0.103708D-01  0.185076D+00  0.809296D-02
      7a  0.405668D+00  0.258034D-01 -0.233886D+00  0.134248D-01 -0.429290D+00
      7b  0.122021D-01 -0.857850D+00 -0.703508D-02 -0.446315D+00 -0.129127D-01
      8a -0.442000D+00 -0.153820D-01  0.208444D-01 -0.275071D-01  0.808966D+00
      8b -0.132950D-01  0.511383D+00  0.626979D-03  0.914490D+00  0.243330D-01
      9a  0.424754D+00 -0.666101D-03 -0.497991D+00  0.176460D-01 -0.515283D+00
      9b  0.127762D-01  0.221449D-01 -0.149791D-01 -0.586652D+00 -0.154993D-01
     10a  0.163250D+00  0.740951D-02  0.696284D+00  0.467502D-02 -0.392438D+00
     10b  0.491042D-02 -0.246334D+00  0.209436D-01 -0.155424D+00 -0.118042D-01
                16            17            18            19            20 
      1a  0.781305D+00  0.163838D-02 -0.227617D-01 -0.198173D-02  0.117202D+00
      1b  0.235010D-01 -0.544691D-01 -0.684653D-03  0.658839D-01  0.352534D-02
      2a -0.417692D+00  0.239191D-01 -0.785858D+00  0.185440D-01 -0.692067D+00
      2b -0.125638D-01 -0.795204D+00 -0.236379D-01 -0.616508D+00 -0.208168D-01
      3a -0.244347D+00 -0.276504D-01  0.829922D+00 -0.126059D-01  0.474075D+00
      3b -0.734975D-02  0.919255D+00  0.249633D-01  0.419092D+00  0.142598D-01
      4a  0.195838D+00 -0.106836D-01  0.357707D+00 -0.334089D-01  0.102021D+01
      4b  0.589064D-02  0.355183D+00  0.107595D-01  0.111070D+01  0.306871D-01
      5a  0.249006D+00  0.195749D-01 -0.775757D+00  0.288386D-01 -0.971790D+00
      5b  0.748988D-02 -0.650781D+00 -0.233341D-01 -0.958756D+00 -0.292306D-01
      6a -0.249006D+00 -0.195749D-01  0.775757D+00  0.288386D-01 -0.971790D+00
      6b -0.748988D-02  0.650781D+00  0.233341D-01 -0.958756D+00 -0.292306D-01
      7a -0.195838D+00  0.106836D-01 -0.357707D+00 -0.334089D-01  0.102021D+01
      7b -0.589064D-02 -0.355183D+00 -0.107595D-01  0.111070D+01  0.306871D-01
      8a  0.244347D+00  0.276504D-01 -0.829922D+00 -0.126059D-01  0.474075D+00
      8b  0.734975D-02 -0.919255D+00 -0.249633D-01  0.419092D+00  0.142598D-01
      9a  0.417692D+00 -0.239191D-01  0.785858D+00  0.185440D-01 -0.692067D+00
      9b  0.125638D-01  0.795204D+00  0.236379D-01 -0.616508D+00 -0.208168D-01
     10a -0.781305D+00 -0.163838D-02  0.227617D-01 -0.198173D-02  0.117202D+00
     10b -0.235010D-01  0.544691D-01  0.684653D-03  0.658839D-01  0.352534D-02
 bfr conversion (imaginary):
                 1             2             3             4             5 
      1a  0.000000D+00  0.000000D+00  0.000000D+00  0.000000D+00  0.000000D+00
      1b  0.000000D+00  0.000000D+00  0.000000D+00  0.000000D+00  0.000000D+00
      2a  0.000000D+00  0.000000D+00  0.000000D+00  0.000000D+00  0.000000D+00
      2b  0.000000D+00  0.000000D+00  0.000000D+00  0.000000D+00  0.000000D+00
      3a  0.000000D+00  0.000000D+00  0.000000D+00  0.000000D+00  0.000000D+00
      3b  0.000000D+00  0.000000D+00  0.000000D+00  0.000000D+00  0.000000D+00
      4a  0.000000D+00  0.000000D+00  0.000000D+00  0.000000D+00  0.000000D+00
      4b  0.000000D+00  0.000000D+00  0.000000D+00  0.000000D+00  0.000000D+00
      5a  0.000000D+00  0.000000D+00  0.000000D+00  0.000000D+00  0.000000D+00
      5b  0.000000D+00  0.000000D+00  0.000000D+00  0.000000D+00  0.000000D+00
      6a  0.000000D+00  0.000000D+00  0.000000D+00  0.000000D+00  0.000000D+00
      6b  0.000000D+00  0.000000D+00  0.000000D+00  0.000000D+00  0.000000D+00
      7a  0.000000D+00  0.000000D+00  0.000000D+00  0.000000D+00  0.000000D+00
      7b  0.000000D+00  0.000000D+00  0.000000D+00  0.000000D+00  0.000000D+00
      8a  0.000000D+00  0.000000D+00  0.000000D+00  0.000000D+00  0.000000D+00
      8b  0.000000D+00  0.000000D+00  0.000000D+00  0.000000D+00  0.000000D+00
      9a  0.000000D+00  0.000000D+00  0.000000D+00  0.000000D+00  0.000000D+00
      9b  0.000000D+00  0.000000D+00  0.000000D+00  0.000000D+00  0.000000D+00
     10a  0.000000D+00  0.000000D+00  0.000000D+00  0.000000D+00  0.000000D+00
     10b  0.000000D+00  0.000000D+00  0.000000D+00  0.000000D+00  0.000000D+00
                 6             7             8             9            10 
      1a  0.000000D+00  0.000000D+00  0.000000D+00  0.000000D+00  0.000000D+00
      1b  0.000000D+00  0.000000D+00  0.000000D+00  0.000000D+00  0.000000D+00
      2a  0.000000D+00  0.000000D+00  0.000000D+00  0.000000D+00  0.000000D+00
      2b  0.000000D+00  0.000000D+00  0.000000D+00  0.000000D+00  0.000000D+00
      3a  0.000000D+00  0.000000D+00  0.000000D+00  0.000000D+00  0.000000D+00
      3b  0.000000D+00  0.000000D+00  0.000000D+00  0.000000D+00  0.000000D+00
      4a  0.000000D+00  0.000000D+00  0.000000D+00  0.000000D+00  0.000000D+00
      4b  0.000000D+00  0.000000D+00  0.000000D+00  0.000000D+00  0.000000D+00
      5a  0.000000D+00  0.000000D+00  0.000000D+00  0.000000D+00  0.000000D+00
      5b  0.000000D+00  0.000000D+00  0.000000D+00  0.000000D+00  0.000000D+00
      6a  0.000000D+00  0.000000D+00  0.000000D+00  0.000000D+00  0.000000D+00
      6b  0.000000D+00  0.000000D+00  0.000000D+00  0.000000D+00  0.000000D+00
      7a  0.000000D+00  0.000000D+00  0.000000D+00  0.000000D+00  0.000000D+00
      7b  0.000000D+00  0.000000D+00  0.000000D+00  0.000000D+00  0.000000D+00
      8a  0.000000D+00  0.000000D+00  0.000000D+00  0.000000D+00  0.000000D+00
      8b  0.000000D+00  0.000000D+00  0.000000D+00  0.000000D+00  0.000000D+00
      9a  0.000000D+00  0.000000D+00  0.000000D+00  0.000000D+00  0.000000D+00
      9b  0.000000D+00  0.000000D+00  0.000000D+00  0.000000D+00  0.000000D+00
     10a  0.000000D+00  0.000000D+00  0.000000D+00  0.000000D+00  0.000000D+00
     10b  0.000000D+00  0.000000D+00  0.000000D+00  0.000000D+00  0.000000D+00
                11            12            13            14            15 
      1a  0.000000D+00  0.000000D+00  0.000000D+00  0.000000D+00  0.000000D+00
      1b  0.000000D+00  0.000000D+00  0.000000D+00  0.000000D+00  0.000000D+00
      2a  0.000000D+00  0.000000D+00  0.000000D+00  0.000000D+00  0.000000D+00
      2b  0.000000D+00  0.000000D+00  0.000000D+00  0.000000D+00  0.000000D+00
      3a  0.000000D+00  0.000000D+00  0.000000D+00  0.000000D+00  0.000000D+00
      3b  0.000000D+00  0.000000D+00  0.000000D+00  0.000000D+00  0.000000D+00
      4a  0.000000D+00  0.000000D+00  0.000000D+00  0.000000D+00  0.000000D+00
      4b  0.000000D+00  0.000000D+00  0.000000D+00  0.000000D+00  0.000000D+00
      5a  0.000000D+00  0.000000D+00  0.000000D+00  0.000000D+00  0.000000D+00
      5b  0.000000D+00  0.000000D+00  0.000000D+00  0.000000D+00  0.000000D+00
      6a  0.000000D+00  0.000000D+00  0.000000D+00  0.000000D+00  0.000000D+00
      6b  0.000000D+00  0.000000D+00  0.000000D+00  0.000000D+00  0.000000D+00
      7a  0.000000D+00  0.000000D+00  0.000000D+00  0.000000D+00  0.000000D+00
      7b  0.000000D+00  0.000000D+00  0.000000D+00  0.000000D+00  0.000000D+00
      8a  0.000000D+00  0.000000D+00  0.000000D+00  0.000000D+00  0.000000D+00
      8b  0.000000D+00  0.000000D+00  0.000000D+00  0.000000D+00  0.000000D+00
      9a  0.000000D+00  0.000000D+00  0.000000D+00  0.000000D+00  0.000000D+00
      9b  0.000000D+00  0.000000D+00  0.000000D+00  0.000000D+00  0.000000D+00
     10a  0.000000D+00  0.000000D+00  0.000000D+00  0.000000D+00  0.000000D+00
     10b  0.000000D+00  0.000000D+00  0.000000D+00  0.000000D+00  0.000000D+00
                16            17            18            19            20 
      1a  0.000000D+00  0.000000D+00  0.000000D+00  0.000000D+00  0.000000D+00
      1b  0.000000D+00  0.000000D+00  0.000000D+00  0.000000D+00  0.000000D+00
      2a  0.000000D+00  0.000000D+00  0.000000D+00  0.000000D+00  0.000000D+00
      2b  0.000000D+00  0.000000D+00  0.000000D+00  0.000000D+00  0.000000D+00
      3a  0.000000D+00  0.000000D+00  0.000000D+00  0.000000D+00  0.000000D+00
      3b  0.000000D+00  0.000000D+00  0.000000D+00  0.000000D+00  0.000000D+00
      4a  0.000000D+00  0.000000D+00  0.000000D+00  0.000000D+00  0.000000D+00
      4b  0.000000D+00  0.000000D+00  0.000000D+00  0.000000D+00  0.000000D+00
      5a  0.000000D+00  0.000000D+00  0.000000D+00  0.000000D+00  0.000000D+00
      5b  0.000000D+00  0.000000D+00  0.000000D+00  0.000000D+00  0.000000D+00
      6a  0.000000D+00  0.000000D+00  0.000000D+00  0.000000D+00  0.000000D+00
      6b  0.000000D+00  0.000000D+00  0.000000D+00  0.000000D+00  0.000000D+00
      7a  0.000000D+00  0.000000D+00  0.000000D+00  0.000000D+00  0.000000D+00
      7b  0.000000D+00  0.000000D+00  0.000000D+00  0.000000D+00  0.000000D+00
      8a  0.000000D+00  0.000000D+00  0.000000D+00  0.000000D+00  0.000000D+00
      8b  0.000000D+00  0.000000D+00  0.000000D+00  0.000000D+00  0.000000D+00
      9a  0.000000D+00  0.000000D+00  0.000000D+00  0.000000D+00  0.000000D+00
      9b  0.000000D+00  0.000000D+00  0.000000D+00  0.000000D+00  0.000000D+00
     10a  0.000000D+00  0.000000D+00  0.000000D+00  0.000000D+00  0.000000D+00
     10b  0.000000D+00  0.000000D+00  0.000000D+00  0.000000D+00  0.000000D+00
 afr conversion (alpha, real):
                 1             2             3             4             5 
      1  -0.133392D-02  0.557739D-02 -0.410161D-02  0.262886D-01 -0.894861D-02
      2  -0.486422D-02  0.870839D-01 -0.938756D-02  0.193515D+00 -0.100715D-01
      3  -0.419178D-02  0.177727D+00 -0.740887D-02  0.344504D+00 -0.625405D-02
      4  -0.461845D-02  0.328920D+00 -0.392052D-02  0.297997D+00  0.349005D-02
      5  -0.941664D-02  0.172738D+00 -0.562848D-02  0.116953D+00  0.986716D-02
      6  -0.941664D-02  0.172738D+00  0.562848D-02 -0.116953D+00  0.986716D-02
      7  -0.461845D-02  0.328920D+00  0.392052D-02 -0.297997D+00  0.349005D-02
      8  -0.419178D-02  0.177727D+00  0.740887D-02 -0.344504D+00 -0.625405D-02
      9  -0.486422D-02  0.870839D-01  0.938756D-02 -0.193515D+00 -0.100715D-01
     10  -0.133392D-02  0.557739D-02  0.410161D-02 -0.262886D-01 -0.894861D-02
                 6             7             8             9            10 
      1   0.962254D-01 -0.165800D-01 -0.161598D+00 -0.221623D-01 -0.158690D-01
      2   0.303855D+00 -0.176223D-02 -0.248166D+00  0.144215D-01  0.174826D-01
      3   0.456312D+00  0.120504D-02 -0.341275D+00  0.636886D-02  0.303389D-02
      4  -0.286908D+00  0.779476D-02  0.728529D+00  0.629465D-03 -0.195532D-02
      5  -0.224489D+00  0.148941D-01  0.261929D+00 -0.716814D-02 -0.195935D-01
      6  -0.224489D+00 -0.148941D-01 -0.261929D+00 -0.716814D-02  0.195935D-01
      7  -0.286908D+00 -0.779476D-02 -0.728529D+00  0.629465D-03  0.195532D-02
      8   0.456312D+00 -0.120504D-02  0.341275D+00  0.636886D-02 -0.303389D-02
      9   0.303855D+00  0.176223D-02  0.248166D+00  0.144215D-01 -0.174826D-01
     10   0.962254D-01  0.165800D-01  0.161598D+00 -0.221623D-01  0.158690D-01
                11            12            13            14            15 
      1  -0.163250D+00 -0.740951D-02  0.696284D+00  0.467502D-02 -0.392438D+00
      2  -0.424754D+00  0.666101D-03 -0.497991D+00  0.176460D-01 -0.515283D+00
      3   0.442000D+00  0.153820D-01  0.208444D-01 -0.275071D-01  0.808966D+00
      4  -0.405668D+00 -0.258034D-01 -0.233886D+00  0.134248D-01 -0.429290D+00
      5   0.679693D+00  0.850951D-02  0.344783D+00 -0.556693D-02  0.269055D+00
      6  -0.679693D+00 -0.850951D-02  0.344783D+00 -0.556693D-02  0.269055D+00
      7   0.405668D+00  0.258034D-01 -0.233886D+00  0.134248D-01 -0.429290D+00
      8  -0.442000D+00 -0.153820D-01  0.208444D-01 -0.275071D-01  0.808966D+00
      9   0.424754D+00 -0.666101D-03 -0.497991D+00  0.176460D-01 -0.515283D+00
     10   0.163250D+00  0.740951D-02  0.696284D+00  0.467502D-02 -0.392438D+00
                16            17            18            19            20 
      1   0.781305D+00  0.163838D-02 -0.227617D-01 -0.198173D-02  0.117202D+00
      2  -0.417692D+00  0.239191D-01 -0.785858D+00  0.185440D-01 -0.692067D+00
      3  -0.244347D+00 -0.276504D-01  0.829922D+00 -0.126059D-01  0.474075D+00
      4   0.195838D+00 -0.106836D-01  0.357707D+00 -0.334089D-01  0.102021D+01
      5   0.249006D+00  0.195749D-01 -0.775757D+00  0.288386D-01 -0.971790D+00
      6  -0.249006D+00 -0.195749D-01  0.775757D+00  0.288386D-01 -0.971790D+00
      7  -0.195838D+00  0.106836D-01 -0.357707D+00 -0.334089D-01  0.102021D+01
      8   0.244347D+00  0.276504D-01 -0.829922D+00 -0.126059D-01  0.474075D+00
      9   0.417692D+00 -0.239191D-01  0.785858D+00  0.185440D-01 -0.692067D+00
     10  -0.781305D+00 -0.163838D-02  0.227617D-01 -0.198173D-02  0.117202D+00
 afr conversion (alpha, imaginary):
                 1             2             3             4             5 
      1   0.000000D+00  0.000000D+00  0.000000D+00  0.000000D+00  0.000000D+00
      2   0.000000D+00  0.000000D+00  0.000000D+00  0.000000D+00  0.000000D+00
      3   0.000000D+00  0.000000D+00  0.000000D+00  0.000000D+00  0.000000D+00
      4   0.000000D+00  0.000000D+00  0.000000D+00  0.000000D+00  0.000000D+00
      5   0.000000D+00  0.000000D+00  0.000000D+00  0.000000D+00  0.000000D+00
      6   0.000000D+00  0.000000D+00  0.000000D+00  0.000000D+00  0.000000D+00
      7   0.000000D+00  0.000000D+00  0.000000D+00  0.000000D+00  0.000000D+00
      8   0.000000D+00  0.000000D+00  0.000000D+00  0.000000D+00  0.000000D+00
      9   0.000000D+00  0.000000D+00  0.000000D+00  0.000000D+00  0.000000D+00
     10   0.000000D+00  0.000000D+00  0.000000D+00  0.000000D+00  0.000000D+00
                 6             7             8             9            10 
      1   0.000000D+00  0.000000D+00  0.000000D+00  0.000000D+00  0.000000D+00
      2   0.000000D+00  0.000000D+00  0.000000D+00  0.000000D+00  0.000000D+00
      3   0.000000D+00  0.000000D+00  0.000000D+00  0.000000D+00  0.000000D+00
      4   0.000000D+00  0.000000D+00  0.000000D+00  0.000000D+00  0.000000D+00
      5   0.000000D+00  0.000000D+00  0.000000D+00  0.000000D+00  0.000000D+00
      6   0.000000D+00  0.000000D+00  0.000000D+00  0.000000D+00  0.000000D+00
      7   0.000000D+00  0.000000D+00  0.000000D+00  0.000000D+00  0.000000D+00
      8   0.000000D+00  0.000000D+00  0.000000D+00  0.000000D+00  0.000000D+00
      9   0.000000D+00  0.000000D+00  0.000000D+00  0.000000D+00  0.000000D+00
     10   0.000000D+00  0.000000D+00  0.000000D+00  0.000000D+00  0.000000D+00
                11            12            13            14            15 
      1   0.000000D+00  0.000000D+00  0.000000D+00  0.000000D+00  0.000000D+00
      2   0.000000D+00  0.000000D+00  0.000000D+00  0.000000D+00  0.000000D+00
      3   0.000000D+00  0.000000D+00  0.000000D+00  0.000000D+00  0.000000D+00
      4   0.000000D+00  0.000000D+00  0.000000D+00  0.000000D+00  0.000000D+00
      5   0.000000D+00  0.000000D+00  0.000000D+00  0.000000D+00  0.000000D+00
      6   0.000000D+00  0.000000D+00  0.000000D+00  0.000000D+00  0.000000D+00
      7   0.000000D+00  0.000000D+00  0.000000D+00  0.000000D+00  0.000000D+00
      8   0.000000D+00  0.000000D+00  0.000000D+00  0.000000D+00  0.000000D+00
      9   0.000000D+00  0.000000D+00  0.000000D+00  0.000000D+00  0.000000D+00
     10   0.000000D+00  0.000000D+00  0.000000D+00  0.000000D+00  0.000000D+00
                16            17            18            19            20 
      1   0.000000D+00  0.000000D+00  0.000000D+00  0.000000D+00  0.000000D+00
      2   0.000000D+00  0.000000D+00  0.000000D+00  0.000000D+00  0.000000D+00
      3   0.000000D+00  0.000000D+00  0.000000D+00  0.000000D+00  0.000000D+00
      4   0.000000D+00  0.000000D+00  0.000000D+00  0.000000D+00  0.000000D+00
      5   0.000000D+00  0.000000D+00  0.000000D+00  0.000000D+00  0.000000D+00
      6   0.000000D+00  0.000000D+00  0.000000D+00  0.000000D+00  0.000000D+00
      7   0.000000D+00  0.000000D+00  0.000000D+00  0.000000D+00  0.000000D+00
      8   0.000000D+00  0.000000D+00  0.000000D+00  0.000000D+00  0.000000D+00
      9   0.000000D+00  0.000000D+00  0.000000D+00  0.000000D+00  0.000000D+00
     10   0.000000D+00  0.000000D+00  0.000000D+00  0.000000D+00  0.000000D+00
 afr conversion (beta, real):
                 1             2             3             4             5 
      1   0.443470D-01  0.167764D-03  0.136361D+00  0.790740D-03  0.297502D+00
      2   0.161714D+00  0.261941D-02  0.312095D+00  0.582078D-02  0.334832D+00
      3   0.139358D+00  0.534588D-02  0.246312D+00  0.103624D-01  0.207920D+00
      4   0.153543D+00  0.989364D-02  0.130340D+00  0.896350D-02 -0.116029D+00
      5   0.313062D+00  0.519583D-02  0.187122D+00  0.351785D-02 -0.328040D+00
      6   0.313062D+00  0.519583D-02 -0.187122D+00 -0.351785D-02 -0.328040D+00
      7   0.153543D+00  0.989364D-02 -0.130340D+00 -0.896350D-02 -0.116029D+00
      8   0.139358D+00  0.534588D-02 -0.246312D+00 -0.103624D-01  0.207920D+00
      9   0.161714D+00  0.261941D-02 -0.312095D+00 -0.582078D-02  0.334832D+00
     10   0.443470D-01  0.167764D-03 -0.136361D+00 -0.790740D-03  0.297502D+00
                 6             7             8             9            10 
      1   0.289438D-02  0.551213D+00 -0.486073D-02  0.736800D+00  0.527574D+00
      2   0.913969D-02  0.585863D-01 -0.746461D-02 -0.479452D+00 -0.581218D+00
      3   0.137255D-01 -0.400624D-01 -0.102653D-01 -0.211737D+00 -0.100864D+00
      4  -0.862994D-02 -0.259142D+00  0.219135D-01 -0.209270D-01  0.650058D-01
      5  -0.675243D-02 -0.495163D+00  0.787859D-02  0.238309D+00  0.651397D+00
      6  -0.675243D-02  0.495163D+00 -0.787859D-02  0.238309D+00 -0.651397D+00
      7  -0.862994D-02  0.259142D+00 -0.219135D-01 -0.209270D-01 -0.650058D-01
      8   0.137255D-01  0.400624D-01  0.102653D-01 -0.211737D+00  0.100864D+00
      9   0.913969D-02 -0.585863D-01  0.746461D-02 -0.479452D+00  0.581218D+00
     10   0.289438D-02 -0.551213D+00  0.486073D-02  0.736800D+00 -0.527574D+00
                11            12            13            14            15 
      1  -0.491042D-02  0.246334D+00  0.209436D-01 -0.155424D+00 -0.118042D-01
      2  -0.127762D-01 -0.221449D-01 -0.149791D-01 -0.586652D+00 -0.154993D-01
      3   0.132950D-01 -0.511383D+00  0.626979D-03  0.914490D+00  0.243330D-01
      4  -0.122021D-01  0.857850D+00 -0.703508D-02 -0.446315D+00 -0.129127D-01
      5   0.204446D-01 -0.282904D+00  0.103708D-01  0.185076D+00  0.809296D-02
      6  -0.204446D-01  0.282904D+00  0.103708D-01  0.185076D+00  0.809296D-02
      7   0.122021D-01 -0.857850D+00 -0.703508D-02 -0.446315D+00 -0.129127D-01
      8  -0.132950D-01  0.511383D+00  0.626979D-03  0.914490D+00  0.243330D-01
      9   0.127762D-01  0.221449D-01 -0.149791D-01 -0.586652D+00 -0.154993D-01
     10   0.491042D-02 -0.246334D+00  0.209436D-01 -0.155424D+00 -0.118042D-01
                16            17            18            19            20 
      1   0.235010D-01 -0.544691D-01 -0.684653D-03  0.658839D-01  0.352534D-02
      2  -0.125638D-01 -0.795204D+00 -0.236379D-01 -0.616508D+00 -0.208168D-01
      3  -0.734975D-02  0.919255D+00  0.249633D-01  0.419092D+00  0.142598D-01
      4   0.589064D-02  0.355183D+00  0.107595D-01  0.111070D+01  0.306871D-01
      5   0.748988D-02 -0.650781D+00 -0.233341D-01 -0.958756D+00 -0.292306D-01
      6  -0.748988D-02  0.650781D+00  0.233341D-01 -0.958756D+00 -0.292306D-01
      7  -0.589064D-02 -0.355183D+00 -0.107595D-01  0.111070D+01  0.306871D-01
      8   0.734975D-02 -0.919255D+00 -0.249633D-01  0.419092D+00  0.142598D-01
      9   0.125638D-01  0.795204D+00  0.236379D-01 -0.616508D+00 -0.208168D-01
     10  -0.235010D-01  0.544691D-01  0.684653D-03  0.658839D-01  0.352534D-02
 afr conversion (beta, imaginary):
                 1             2             3             4             5 
      1   0.000000D+00  0.000000D+00  0.000000D+00  0.000000D+00  0.000000D+00
      2   0.000000D+00  0.000000D+00  0.000000D+00  0.000000D+00  0.000000D+00
      3   0.000000D+00  0.000000D+00  0.000000D+00  0.000000D+00  0.000000D+00
      4   0.000000D+00  0.000000D+00  0.000000D+00  0.000000D+00  0.000000D+00
      5   0.000000D+00  0.000000D+00  0.000000D+00  0.000000D+00  0.000000D+00
      6   0.000000D+00  0.000000D+00  0.000000D+00  0.000000D+00  0.000000D+00
      7   0.000000D+00  0.000000D+00  0.000000D+00  0.000000D+00  0.000000D+00
      8   0.000000D+00  0.000000D+00  0.000000D+00  0.000000D+00  0.000000D+00
      9   0.000000D+00  0.000000D+00  0.000000D+00  0.000000D+00  0.000000D+00
     10   0.000000D+00  0.000000D+00  0.000000D+00  0.000000D+00  0.000000D+00
                 6             7             8             9            10 
      1   0.000000D+00  0.000000D+00  0.000000D+00  0.000000D+00  0.000000D+00
      2   0.000000D+00  0.000000D+00  0.000000D+00  0.000000D+00  0.000000D+00
      3   0.000000D+00  0.000000D+00  0.000000D+00  0.000000D+00  0.000000D+00
      4   0.000000D+00  0.000000D+00  0.000000D+00  0.000000D+00  0.000000D+00
      5   0.000000D+00  0.000000D+00  0.000000D+00  0.000000D+00  0.000000D+00
      6   0.000000D+00  0.000000D+00  0.000000D+00  0.000000D+00  0.000000D+00
      7   0.000000D+00  0.000000D+00  0.000000D+00  0.000000D+00  0.000000D+00
      8   0.000000D+00  0.000000D+00  0.000000D+00  0.000000D+00  0.000000D+00
      9   0.000000D+00  0.000000D+00  0.000000D+00  0.000000D+00  0.000000D+00
     10   0.000000D+00  0.000000D+00  0.000000D+00  0.000000D+00  0.000000D+00
                11            12            13            14            15 
      1   0.000000D+00  0.000000D+00  0.000000D+00  0.000000D+00  0.000000D+00
      2   0.000000D+00  0.000000D+00  0.000000D+00  0.000000D+00  0.000000D+00
      3   0.000000D+00  0.000000D+00  0.000000D+00  0.000000D+00  0.000000D+00
      4   0.000000D+00  0.000000D+00  0.000000D+00  0.000000D+00  0.000000D+00
      5   0.000000D+00  0.000000D+00  0.000000D+00  0.000000D+00  0.000000D+00
      6   0.000000D+00  0.000000D+00  0.000000D+00  0.000000D+00  0.000000D+00
      7   0.000000D+00  0.000000D+00  0.000000D+00  0.000000D+00  0.000000D+00
      8   0.000000D+00  0.000000D+00  0.000000D+00  0.000000D+00  0.000000D+00
      9   0.000000D+00  0.000000D+00  0.000000D+00  0.000000D+00  0.000000D+00
     10   0.000000D+00  0.000000D+00  0.000000D+00  0.000000D+00  0.000000D+00
                16            17            18            19            20 
      1   0.000000D+00  0.000000D+00  0.000000D+00  0.000000D+00  0.000000D+00
      2   0.000000D+00  0.000000D+00  0.000000D+00  0.000000D+00  0.000000D+00
      3   0.000000D+00  0.000000D+00  0.000000D+00  0.000000D+00  0.000000D+00
      4   0.000000D+00  0.000000D+00  0.000000D+00  0.000000D+00  0.000000D+00
      5   0.000000D+00  0.000000D+00  0.000000D+00  0.000000D+00  0.000000D+00
      6   0.000000D+00  0.000000D+00  0.000000D+00  0.000000D+00  0.000000D+00
      7   0.000000D+00  0.000000D+00  0.000000D+00  0.000000D+00  0.000000D+00
      8   0.000000D+00  0.000000D+00  0.000000D+00  0.000000D+00  0.000000D+00
      9   0.000000D+00  0.000000D+00  0.000000D+00  0.000000D+00  0.000000D+00
     10   0.000000D+00  0.000000D+00  0.000000D+00  0.000000D+00  0.000000D+00
 jaja in hckghf.F, ISPECT =                     548
Spin block MO for GHF transformation
NOA =   10   NOB =   10
NVA =   10   NVB =   10
 NOAvA in Hack                     100
 jaja in tranN3.F, ISPECT =                     548
 in l802/tranN3.F, LSPECT =                      800
 NMat, NBtSiz,MDV                    8372                   16000
                133954722
 TranN3:  NGot= 134217728 NBasic=    263006 NTTT=       550 NMat=      8372.
 Defined bucket =                      51                   10000
 Defined bucket =                      52                   10000
 Defined bucket =                      53                   10000
 Defined bucket =                      55                   10000
 Defined bucket =                      57                   10000
 Defined bucket =                      58                   10000
 Defined bucket =                      60                   10000
 Defined bucket =                      72                   10000
 Defined bucket =                      73                   10000
 Defined bucket =                      74                   10000
 Defined bucket =                      75                   10000
 Defined bucket =                      76                   10000
 (IK/LS) integrals will be saved in memory.
 TrCghf made   2 passes through the AO integrals.
 jaja DoHack is true or false? F
 jaja in hckghf.F, NBasis=                      10
 jaja in hckGHF/FixOG, LC =                      800
 jaja in hckGHF/FixOG, IRwC=                      548
 bfr conversion (alpha, real):
                 1             2             3             4             5 
      1  -0.133392D-02  0.557739D-02 -0.410161D-02  0.262886D-01 -0.894861D-02
      2  -0.486422D-02  0.870839D-01 -0.938756D-02  0.193515D+00 -0.100715D-01
      3  -0.419178D-02  0.177727D+00 -0.740887D-02  0.344504D+00 -0.625405D-02
      4  -0.461845D-02  0.328920D+00 -0.392052D-02  0.297997D+00  0.349005D-02
      5  -0.941664D-02  0.172738D+00 -0.562848D-02  0.116953D+00  0.986716D-02
      6  -0.941664D-02  0.172738D+00  0.562848D-02 -0.116953D+00  0.986716D-02
      7  -0.461845D-02  0.328920D+00  0.392052D-02 -0.297997D+00  0.349005D-02
      8  -0.419178D-02  0.177727D+00  0.740887D-02 -0.344504D+00 -0.625405D-02
      9  -0.486422D-02  0.870839D-01  0.938756D-02 -0.193515D+00 -0.100715D-01
     10  -0.133392D-02  0.557739D-02  0.410161D-02 -0.262886D-01 -0.894861D-02
                 6             7             8             9            10 
      1   0.962254D-01 -0.165800D-01 -0.161598D+00 -0.221623D-01 -0.158690D-01
      2   0.303855D+00 -0.176223D-02 -0.248166D+00  0.144215D-01  0.174826D-01
      3   0.456312D+00  0.120504D-02 -0.341275D+00  0.636886D-02  0.303389D-02
      4  -0.286908D+00  0.779476D-02  0.728529D+00  0.629465D-03 -0.195532D-02
      5  -0.224489D+00  0.148941D-01  0.261929D+00 -0.716814D-02 -0.195935D-01
      6  -0.224489D+00 -0.148941D-01 -0.261929D+00 -0.716814D-02  0.195935D-01
      7  -0.286908D+00 -0.779476D-02 -0.728529D+00  0.629465D-03  0.195532D-02
      8   0.456312D+00 -0.120504D-02  0.341275D+00  0.636886D-02 -0.303389D-02
      9   0.303855D+00  0.176223D-02  0.248166D+00  0.144215D-01 -0.174826D-01
     10   0.962254D-01  0.165800D-01  0.161598D+00 -0.221623D-01  0.158690D-01
                11            12            13            14            15 
      1  -0.163250D+00 -0.740951D-02  0.696284D+00  0.467502D-02 -0.392438D+00
      2  -0.424754D+00  0.666101D-03 -0.497991D+00  0.176460D-01 -0.515283D+00
      3   0.442000D+00  0.153820D-01  0.208444D-01 -0.275071D-01  0.808966D+00
      4  -0.405668D+00 -0.258034D-01 -0.233886D+00  0.134248D-01 -0.429290D+00
      5   0.679693D+00  0.850951D-02  0.344783D+00 -0.556693D-02  0.269055D+00
      6  -0.679693D+00 -0.850951D-02  0.344783D+00 -0.556693D-02  0.269055D+00
      7   0.405668D+00  0.258034D-01 -0.233886D+00  0.134248D-01 -0.429290D+00
      8  -0.442000D+00 -0.153820D-01  0.208444D-01 -0.275071D-01  0.808966D+00
      9   0.424754D+00 -0.666101D-03 -0.497991D+00  0.176460D-01 -0.515283D+00
     10   0.163250D+00  0.740951D-02  0.696284D+00  0.467502D-02 -0.392438D+00
                16            17            18            19            20 
      1   0.781305D+00  0.163838D-02 -0.227617D-01 -0.198173D-02  0.117202D+00
      2  -0.417692D+00  0.239191D-01 -0.785858D+00  0.185440D-01 -0.692067D+00
      3  -0.244347D+00 -0.276504D-01  0.829922D+00 -0.126059D-01  0.474075D+00
      4   0.195838D+00 -0.106836D-01  0.357707D+00 -0.334089D-01  0.102021D+01
      5   0.249006D+00  0.195749D-01 -0.775757D+00  0.288386D-01 -0.971790D+00
      6  -0.249006D+00 -0.195749D-01  0.775757D+00  0.288386D-01 -0.971790D+00
      7  -0.195838D+00  0.106836D-01 -0.357707D+00 -0.334089D-01  0.102021D+01
      8   0.244347D+00  0.276504D-01 -0.829922D+00 -0.126059D-01  0.474075D+00
      9   0.417692D+00 -0.239191D-01  0.785858D+00  0.185440D-01 -0.692067D+00
     10  -0.781305D+00 -0.163838D-02  0.227617D-01 -0.198173D-02  0.117202D+00
 bfr conversion (alpha, imaginary):
                 1             2             3             4             5 
      1   0.000000D+00  0.000000D+00  0.000000D+00  0.000000D+00  0.000000D+00
      2   0.000000D+00  0.000000D+00  0.000000D+00  0.000000D+00  0.000000D+00
      3   0.000000D+00  0.000000D+00  0.000000D+00  0.000000D+00  0.000000D+00
      4   0.000000D+00  0.000000D+00  0.000000D+00  0.000000D+00  0.000000D+00
      5   0.000000D+00  0.000000D+00  0.000000D+00  0.000000D+00  0.000000D+00
      6   0.000000D+00  0.000000D+00  0.000000D+00  0.000000D+00  0.000000D+00
      7   0.000000D+00  0.000000D+00  0.000000D+00  0.000000D+00  0.000000D+00
      8   0.000000D+00  0.000000D+00  0.000000D+00  0.000000D+00  0.000000D+00
      9   0.000000D+00  0.000000D+00  0.000000D+00  0.000000D+00  0.000000D+00
     10   0.000000D+00  0.000000D+00  0.000000D+00  0.000000D+00  0.000000D+00
                 6             7             8             9            10 
      1   0.000000D+00  0.000000D+00  0.000000D+00  0.000000D+00  0.000000D+00
      2   0.000000D+00  0.000000D+00  0.000000D+00  0.000000D+00  0.000000D+00
      3   0.000000D+00  0.000000D+00  0.000000D+00  0.000000D+00  0.000000D+00
      4   0.000000D+00  0.000000D+00  0.000000D+00  0.000000D+00  0.000000D+00
      5   0.000000D+00  0.000000D+00  0.000000D+00  0.000000D+00  0.000000D+00
      6   0.000000D+00  0.000000D+00  0.000000D+00  0.000000D+00  0.000000D+00
      7   0.000000D+00  0.000000D+00  0.000000D+00  0.000000D+00  0.000000D+00
      8   0.000000D+00  0.000000D+00  0.000000D+00  0.000000D+00  0.000000D+00
      9   0.000000D+00  0.000000D+00  0.000000D+00  0.000000D+00  0.000000D+00
     10   0.000000D+00  0.000000D+00  0.000000D+00  0.000000D+00  0.000000D+00
                11            12            13            14            15 
[...]
      6b 0.156945D-01 -0.248898D-02 -0.353323D-01 -0.256058D+00  0.454668D-01
      7a-0.270469D-02 -0.296963D-01 -0.140972D+00  0.547405D-01 -0.270704D+00
      7b 0.120027D-01  0.118280D-01 -0.210208D-01 -0.113488D+00  0.127576D-01
      8a 0.328867D-01 -0.103517D-01  0.115229D+00 -0.256912D-01  0.160303D+00
      8b 0.195462D-01  0.564080D-01  0.851099D-02  0.512873D-01 -0.155393D-01
      9a 0.211902D-01  0.928837D-03  0.882166D-01  0.139891D-01  0.115229D+00
      9b 0.112962D-01  0.502030D-01  0.139891D-01  0.105621D+00 -0.256912D-01
     10a 0.120017D-01  0.175970D-01  0.211902D-01  0.112962D-01  0.328867D-01
     10b 0.175970D-01  0.212962D-01  0.928837D-03  0.502030D-01 -0.103517D-01
                3b            4a            4b            5a            5b
      3b 0.251885D+00
      4a 0.110969D-01  0.101725D+01
      4b 0.488382D-01 -0.626239D-01  0.147804D+00
      5a 0.112688D-01  0.400212D+00  0.921511D-01  0.297856D+00
      5b-0.650492D-02 -0.192162D+00  0.305587D+00  0.201786D+00  0.729215D+00
      6a-0.552752D-01 -0.631266D-02 -0.254616D-01  0.427617D-01 -0.389144D-01
      6b-0.211561D+00 -0.199236D-01 -0.253923D-01 -0.389144D-01  0.333577D-01
      7a 0.393792D-01 -0.301389D+00 -0.403267D-02 -0.631266D-02 -0.199236D-01
      7b-0.956803D-01 -0.403267D-02 -0.338946D-01 -0.254616D-01 -0.253923D-01
      8a-0.155393D-01 -0.270704D+00  0.127576D-01 -0.214179D+00  0.454668D-01
      8b 0.740222D-02  0.393792D-01 -0.956803D-01 -0.552752D-01 -0.211561D+00
      9a 0.851099D-02 -0.140972D+00 -0.210208D-01 -0.143958D+00 -0.353323D-01
      9b 0.512873D-01  0.547405D-01 -0.113488D+00 -0.492045D-01 -0.256058D+00
     10a 0.195462D-01 -0.270469D-02  0.120027D-01 -0.742178D-02  0.156945D-01
     10b 0.564080D-01 -0.296963D-01  0.118280D-01  0.254182D-01 -0.248898D-02
                6a            6b            7a            7b            8a
      6a 0.297856D+00
      6b 0.201786D+00  0.729215D+00
      7a 0.400212D+00 -0.192162D+00  0.101725D+01
      7b 0.921511D-01  0.305587D+00 -0.626239D-01  0.147804D+00
      8a-0.163331D+00  0.869979D-01 -0.232290D+00  0.234021D-01  0.953428D+00
      8b 0.112688D-01 -0.650492D-02  0.110969D-01  0.488382D-01 -0.750415D-01
      9a-0.145787D+00 -0.129139D-01 -0.181414D+00  0.151565D-01  0.554522D+00
      9b-0.346093D-01 -0.172604D+00  0.574533D-01  0.142315D-01 -0.140320D+00
     10a-0.839867D-01 -0.104236D+00 -0.830684D-01 -0.686090D-01  0.936254D-01
     10b-0.386678D-01 -0.289996D+00  0.134914D+00 -0.154366D+00 -0.183335D+00
                8b            9a            9b           10a           10b
      8b 0.251885D+00
      9a 0.679398D-01  0.389044D+00
      9b 0.369031D+00  0.106748D+00  0.597763D+00
     10a 0.384091D-01  0.706253D-01  0.424032D-01  0.184658D+00
     10b 0.133633D+00 -0.668879D-01  0.194068D+00  0.314410D+00  0.718069D+00
 jaja lower-tri density matrix (imaginary):
                1a            1b            2a            2b            3a
      1a 0.000000D+00
      1b 0.000000D+00  0.000000D+00
      2a 0.000000D+00  0.000000D+00  0.000000D+00
      2b 0.000000D+00  0.000000D+00  0.000000D+00  0.000000D+00
      3a 0.000000D+00  0.000000D+00  0.000000D+00  0.000000D+00  0.000000D+00
      3b 0.000000D+00  0.000000D+00  0.000000D+00  0.000000D+00  0.000000D+00
      4a 0.000000D+00  0.000000D+00  0.000000D+00  0.000000D+00  0.000000D+00
      4b 0.000000D+00  0.000000D+00  0.000000D+00  0.000000D+00  0.000000D+00
      5a 0.000000D+00  0.000000D+00  0.000000D+00  0.000000D+00  0.000000D+00
      5b 0.000000D+00  0.000000D+00  0.000000D+00  0.000000D+00  0.000000D+00
      6a 0.000000D+00  0.000000D+00  0.000000D+00  0.000000D+00  0.000000D+00
      6b 0.000000D+00  0.000000D+00  0.000000D+00  0.000000D+00  0.000000D+00
      7a 0.000000D+00  0.000000D+00  0.000000D+00  0.000000D+00  0.000000D+00
      7b 0.000000D+00  0.000000D+00  0.000000D+00  0.000000D+00  0.000000D+00
      8a 0.000000D+00  0.000000D+00  0.000000D+00  0.000000D+00  0.000000D+00
      8b 0.000000D+00  0.000000D+00  0.000000D+00  0.000000D+00  0.000000D+00
      9a 0.000000D+00  0.000000D+00  0.000000D+00  0.000000D+00  0.000000D+00
      9b 0.000000D+00  0.000000D+00  0.000000D+00  0.000000D+00  0.000000D+00
     10a 0.000000D+00  0.000000D+00  0.000000D+00  0.000000D+00  0.000000D+00
     10b 0.000000D+00  0.000000D+00  0.000000D+00  0.000000D+00  0.000000D+00
                3b            4a            4b            5a            5b
      3b 0.000000D+00
      4a 0.000000D+00  0.000000D+00
      4b 0.000000D+00  0.000000D+00  0.000000D+00
      5a 0.000000D+00  0.000000D+00  0.000000D+00  0.000000D+00
      5b 0.000000D+00  0.000000D+00  0.000000D+00  0.000000D+00  0.000000D+00
      6a 0.000000D+00  0.000000D+00  0.000000D+00  0.000000D+00  0.000000D+00
      6b 0.000000D+00  0.000000D+00  0.000000D+00  0.000000D+00  0.000000D+00
      7a 0.000000D+00  0.000000D+00  0.000000D+00  0.000000D+00  0.000000D+00
      7b 0.000000D+00  0.000000D+00  0.000000D+00  0.000000D+00  0.000000D+00
      8a 0.000000D+00  0.000000D+00  0.000000D+00  0.000000D+00  0.000000D+00
      8b 0.000000D+00  0.000000D+00  0.000000D+00  0.000000D+00  0.000000D+00
      9a 0.000000D+00  0.000000D+00  0.000000D+00  0.000000D+00  0.000000D+00
      9b 0.000000D+00  0.000000D+00  0.000000D+00  0.000000D+00  0.000000D+00
     10a 0.000000D+00  0.000000D+00  0.000000D+00  0.000000D+00  0.000000D+00
     10b 0.000000D+00  0.000000D+00  0.000000D+00  0.000000D+00  0.000000D+00
                6a            6b            7a            7b            8a
      6a 0.000000D+00
      6b 0.000000D+00  0.000000D+00
      7a 0.000000D+00  0.000000D+00  0.000000D+00
      7b 0.000000D+00  0.000000D+00  0.000000D+00  0.000000D+00
      8a 0.000000D+00  0.000000D+00  0.000000D+00  0.000000D+00  0.000000D+00
      8b 0.000000D+00  0.000000D+00  0.000000D+00  0.000000D+00  0.000000D+00
      9a 0.000000D+00  0.000000D+00  0.000000D+00  0.000000D+00  0.000000D+00
      9b 0.000000D+00  0.000000D+00  0.000000D+00  0.000000D+00  0.000000D+00
     10a 0.000000D+00  0.000000D+00  0.000000D+00  0.000000D+00  0.000000D+00
     10b 0.000000D+00  0.000000D+00  0.000000D+00  0.000000D+00  0.000000D+00
                8b            9a            9b           10a           10b
      8b 0.000000D+00
      9a 0.000000D+00  0.000000D+00
      9b 0.000000D+00  0.000000D+00  0.000000D+00
     10a 0.000000D+00  0.000000D+00  0.000000D+00  0.000000D+00
     10b 0.000000D+00  0.000000D+00  0.000000D+00  0.000000D+00  0.000000D+00
 jaja non-ortho density matrix               [Gau-style] (real):
                 1             2             3             4             5 
      1a  0.184658D+00  0.314410D+00  0.706253D-01  0.424032D-01  0.936254D-01
      1b  0.314410D+00  0.718069D+00 -0.668879D-01  0.194068D+00 -0.183335D+00
      2a  0.706253D-01 -0.668879D-01  0.389044D+00  0.106748D+00  0.554522D+00
      2b  0.424032D-01  0.194068D+00  0.106748D+00  0.597763D+00 -0.140320D+00
      3a  0.936254D-01 -0.183335D+00  0.554522D+00 -0.140320D+00  0.953428D+00
      3b  0.384091D-01  0.133633D+00  0.679398D-01  0.369031D+00 -0.750415D-01
      4a -0.830684D-01  0.134914D+00 -0.181414D+00  0.574533D-01 -0.232290D+00
      4b -0.686090D-01 -0.154366D+00  0.151565D-01  0.142315D-01  0.234021D-01
      5a -0.839867D-01 -0.386678D-01 -0.145787D+00 -0.346093D-01 -0.163331D+00
      5b -0.104236D+00 -0.289996D+00 -0.129139D-01 -0.172604D+00  0.869979D-01
      6a -0.742178D-02  0.254182D-01 -0.143958D+00 -0.492045D-01 -0.214179D+00
      6b  0.156945D-01 -0.248898D-02 -0.353323D-01 -0.256058D+00  0.454668D-01
      7a -0.270469D-02 -0.296963D-01 -0.140972D+00  0.547405D-01 -0.270704D+00
      7b  0.120027D-01  0.118280D-01 -0.210208D-01 -0.113488D+00  0.127576D-01
      8a  0.328867D-01 -0.103517D-01  0.115229D+00 -0.256912D-01  0.160303D+00
      8b  0.195462D-01  0.564080D-01  0.851099D-02  0.512873D-01 -0.155393D-01
      9a  0.211902D-01  0.928837D-03  0.882166D-01  0.139891D-01  0.115229D+00
      9b  0.112962D-01  0.502030D-01  0.139891D-01  0.105621D+00 -0.256912D-01
     10a  0.120017D-01  0.175970D-01  0.211902D-01  0.112962D-01  0.328867D-01
     10b  0.175970D-01  0.212962D-01  0.928837D-03  0.502030D-01 -0.103517D-01
                 6             7             8             9            10 
      1a  0.384091D-01 -0.830684D-01 -0.686090D-01 -0.839867D-01 -0.104236D+00
      1b  0.133633D+00  0.134914D+00 -0.154366D+00 -0.386678D-01 -0.289996D+00
      2a  0.679398D-01 -0.181414D+00  0.151565D-01 -0.145787D+00 -0.129139D-01
      2b  0.369031D+00  0.574533D-01  0.142315D-01 -0.346093D-01 -0.172604D+00
      3a -0.750415D-01 -0.232290D+00  0.234021D-01 -0.163331D+00  0.869979D-01
      3b  0.251885D+00  0.110969D-01  0.488382D-01  0.112688D-01 -0.650492D-02
      4a  0.110969D-01  0.101725D+01 -0.626239D-01  0.400212D+00 -0.192162D+00
      4b  0.488382D-01 -0.626239D-01  0.147804D+00  0.921511D-01  0.305587D+00
      5a  0.112688D-01  0.400212D+00  0.921511D-01  0.297856D+00  0.201786D+00
      5b -0.650492D-02 -0.192162D+00  0.305587D+00  0.201786D+00  0.729215D+00
      6a -0.552752D-01 -0.631266D-02 -0.254616D-01  0.427617D-01 -0.389144D-01
      6b -0.211561D+00 -0.199236D-01 -0.253923D-01 -0.389144D-01  0.333577D-01
      7a  0.393792D-01 -0.301389D+00 -0.403267D-02 -0.631266D-02 -0.199236D-01
      7b -0.956803D-01 -0.403267D-02 -0.338946D-01 -0.254616D-01 -0.253923D-01
      8a -0.155393D-01 -0.270704D+00  0.127576D-01 -0.214179D+00  0.454668D-01
      8b  0.740222D-02  0.393792D-01 -0.956803D-01 -0.552752D-01 -0.211561D+00
      9a  0.851099D-02 -0.140972D+00 -0.210208D-01 -0.143958D+00 -0.353323D-01
      9b  0.512873D-01  0.547405D-01 -0.113488D+00 -0.492045D-01 -0.256058D+00
     10a  0.195462D-01 -0.270469D-02  0.120027D-01 -0.742178D-02  0.156945D-01
     10b  0.564080D-01 -0.296963D-01  0.118280D-01  0.254182D-01 -0.248898D-02
                11            12            13            14            15 
      1a -0.742178D-02  0.156945D-01 -0.270469D-02  0.120027D-01  0.328867D-01
      1b  0.254182D-01 -0.248898D-02 -0.296963D-01  0.118280D-01 -0.103517D-01
      2a -0.143958D+00 -0.353323D-01 -0.140972D+00 -0.210208D-01  0.115229D+00
      2b -0.492045D-01 -0.256058D+00  0.547405D-01 -0.113488D+00 -0.256912D-01
      3a -0.214179D+00  0.454668D-01 -0.270704D+00  0.127576D-01  0.160303D+00
      3b -0.552752D-01 -0.211561D+00  0.393792D-01 -0.956803D-01 -0.155393D-01
      4a -0.631266D-02 -0.199236D-01 -0.301389D+00 -0.403267D-02 -0.270704D+00
      4b -0.254616D-01 -0.253923D-01 -0.403267D-02 -0.338946D-01  0.127576D-01
      5a  0.427617D-01 -0.389144D-01 -0.631266D-02 -0.254616D-01 -0.214179D+00
      5b -0.389144D-01  0.333577D-01 -0.199236D-01 -0.253923D-01  0.454668D-01
      6a  0.297856D+00  0.201786D+00  0.400212D+00  0.921511D-01 -0.163331D+00
      6b  0.201786D+00  0.729215D+00 -0.192162D+00  0.305587D+00  0.869979D-01
      7a  0.400212D+00 -0.192162D+00  0.101725D+01 -0.626239D-01 -0.232290D+00
      7b  0.921511D-01  0.305587D+00 -0.626239D-01  0.147804D+00  0.234021D-01
      8a -0.163331D+00  0.869979D-01 -0.232290D+00  0.234021D-01  0.953428D+00
      8b  0.112688D-01 -0.650492D-02  0.110969D-01  0.488382D-01 -0.750415D-01
      9a -0.145787D+00 -0.129139D-01 -0.181414D+00  0.151565D-01  0.554522D+00
      9b -0.346093D-01 -0.172604D+00  0.574533D-01  0.142315D-01 -0.140320D+00
     10a -0.839867D-01 -0.104236D+00 -0.830684D-01 -0.686090D-01  0.936254D-01
     10b -0.386678D-01 -0.289996D+00  0.134914D+00 -0.154366D+00 -0.183335D+00
                16            17            18            19            20 
      1a  0.195462D-01  0.211902D-01  0.112962D-01  0.120017D-01  0.175970D-01
      1b  0.564080D-01  0.928837D-03  0.502030D-01  0.175970D-01  0.212962D-01
      2a  0.851099D-02  0.882166D-01  0.139891D-01  0.211902D-01  0.928837D-03
      2b  0.512873D-01  0.139891D-01  0.105621D+00  0.112962D-01  0.502030D-01
      3a -0.155393D-01  0.115229D+00 -0.256912D-01  0.328867D-01 -0.103517D-01
      3b  0.740222D-02  0.851099D-02  0.512873D-01  0.195462D-01  0.564080D-01
      4a  0.393792D-01 -0.140972D+00  0.547405D-01 -0.270469D-02 -0.296963D-01
      4b -0.956803D-01 -0.210208D-01 -0.113488D+00  0.120027D-01  0.118280D-01
      5a -0.552752D-01 -0.143958D+00 -0.492045D-01 -0.742178D-02  0.254182D-01
      5b -0.211561D+00 -0.353323D-01 -0.256058D+00  0.156945D-01 -0.248898D-02
      6a  0.112688D-01 -0.145787D+00 -0.346093D-01 -0.839867D-01 -0.386678D-01
      6b -0.650492D-02 -0.129139D-01 -0.172604D+00 -0.104236D+00 -0.289996D+00
      7a  0.110969D-01 -0.181414D+00  0.574533D-01 -0.830684D-01  0.134914D+00
      7b  0.488382D-01  0.151565D-01  0.142315D-01 -0.686090D-01 -0.154366D+00
      8a -0.750415D-01  0.554522D+00 -0.140320D+00  0.936254D-01 -0.183335D+00
      8b  0.251885D+00  0.679398D-01  0.369031D+00  0.384091D-01  0.133633D+00
      9a  0.679398D-01  0.389044D+00  0.106748D+00  0.706253D-01 -0.668879D-01
      9b  0.369031D+00  0.106748D+00  0.597763D+00  0.424032D-01  0.194068D+00
     10a  0.384091D-01  0.706253D-01  0.424032D-01  0.184658D+00  0.314410D+00
     10b  0.133633D+00 -0.668879D-01  0.194068D+00  0.314410D+00  0.718069D+00
 jaja non-ortho density matrix               [Gau-style] (imaginary):
                 1             2             3             4             5 
      1a  0.000000D+00  0.000000D+00  0.000000D+00  0.000000D+00  0.000000D+00
      1b  0.000000D+00  0.000000D+00  0.000000D+00  0.000000D+00  0.000000D+00
      2a  0.000000D+00  0.000000D+00  0.000000D+00  0.000000D+00  0.000000D+00
      2b  0.000000D+00  0.000000D+00  0.000000D+00  0.000000D+00  0.000000D+00
      3a  0.000000D+00  0.000000D+00  0.000000D+00  0.000000D+00  0.000000D+00
      3b  0.000000D+00  0.000000D+00  0.000000D+00  0.000000D+00  0.000000D+00
      4a  0.000000D+00  0.000000D+00  0.000000D+00  0.000000D+00  0.000000D+00
      4b  0.000000D+00  0.000000D+00  0.000000D+00  0.000000D+00  0.000000D+00
      5a  0.000000D+00  0.000000D+00  0.000000D+00  0.000000D+00  0.000000D+00
      5b  0.000000D+00  0.000000D+00  0.000000D+00  0.000000D+00  0.000000D+00
      6a  0.000000D+00  0.000000D+00  0.000000D+00  0.000000D+00  0.000000D+00
      6b  0.000000D+00  0.000000D+00  0.000000D+00  0.000000D+00  0.000000D+00
      7a  0.000000D+00  0.000000D+00  0.000000D+00  0.000000D+00  0.000000D+00
      7b  0.000000D+00  0.000000D+00  0.000000D+00  0.000000D+00  0.000000D+00
      8a  0.000000D+00  0.000000D+00  0.000000D+00  0.000000D+00  0.000000D+00
      8b  0.000000D+00  0.000000D+00  0.000000D+00  0.000000D+00  0.000000D+00
      9a  0.000000D+00  0.000000D+00  0.000000D+00  0.000000D+00  0.000000D+00
      9b  0.000000D+00  0.000000D+00  0.000000D+00  0.000000D+00  0.000000D+00
     10a  0.000000D+00  0.000000D+00  0.000000D+00  0.000000D+00  0.000000D+00
     10b  0.000000D+00  0.000000D+00  0.000000D+00  0.000000D+00  0.000000D+00
                 6             7             8             9            10 
      1a  0.000000D+00  0.000000D+00  0.000000D+00  0.000000D+00  0.000000D+00
      1b  0.000000D+00  0.000000D+00  0.000000D+00  0.000000D+00  0.000000D+00
      2a  0.000000D+00  0.000000D+00  0.000000D+00  0.000000D+00  0.000000D+00
      2b  0.000000D+00  0.000000D+00  0.000000D+00  0.000000D+00  0.000000D+00
      3a  0.000000D+00  0.000000D+00  0.000000D+00  0.000000D+00  0.000000D+00
      3b  0.000000D+00  0.000000D+00  0.000000D+00  0.000000D+00  0.000000D+00
      4a  0.000000D+00  0.000000D+00  0.000000D+00  0.000000D+00  0.000000D+00
      4b  0.000000D+00  0.000000D+00  0.000000D+00  0.000000D+00  0.000000D+00
      5a  0.000000D+00  0.000000D+00  0.000000D+00  0.000000D+00  0.000000D+00
      5b  0.000000D+00  0.000000D+00  0.000000D+00  0.000000D+00  0.000000D+00
      6a  0.000000D+00  0.000000D+00  0.000000D+00  0.000000D+00  0.000000D+00
      6b  0.000000D+00  0.000000D+00  0.000000D+00  0.000000D+00  0.000000D+00
      7a  0.000000D+00  0.000000D+00  0.000000D+00  0.000000D+00  0.000000D+00
      7b  0.000000D+00  0.000000D+00  0.000000D+00  0.000000D+00  0.000000D+00
      8a  0.000000D+00  0.000000D+00  0.000000D+00  0.000000D+00  0.000000D+00
      8b  0.000000D+00  0.000000D+00  0.000000D+00  0.000000D+00  0.000000D+00
      9a  0.000000D+00  0.000000D+00  0.000000D+00  0.000000D+00  0.000000D+00
      9b  0.000000D+00  0.000000D+00  0.000000D+00  0.000000D+00  0.000000D+00
     10a  0.000000D+00  0.000000D+00  0.000000D+00  0.000000D+00  0.000000D+00
     10b  0.000000D+00  0.000000D+00  0.000000D+00  0.000000D+00  0.000000D+00
                11            12            13            14            15 
      1a  0.000000D+00  0.000000D+00  0.000000D+00  0.000000D+00  0.000000D+00
      1b  0.000000D+00  0.000000D+00  0.000000D+00  0.000000D+00  0.000000D+00
      2a  0.000000D+00  0.000000D+00  0.000000D+00  0.000000D+00  0.000000D+00
      2b  0.000000D+00  0.000000D+00  0.000000D+00  0.000000D+00  0.000000D+00
      3a  0.000000D+00  0.000000D+00  0.000000D+00  0.000000D+00  0.000000D+00
      3b  0.000000D+00  0.000000D+00  0.000000D+00  0.000000D+00  0.000000D+00
      4a  0.000000D+00  0.000000D+00  0.000000D+00  0.000000D+00  0.000000D+00
      4b  0.000000D+00  0.000000D+00  0.000000D+00  0.000000D+00  0.000000D+00
      5a  0.000000D+00  0.000000D+00  0.000000D+00  0.000000D+00  0.000000D+00
      5b  0.000000D+00  0.000000D+00  0.000000D+00  0.000000D+00  0.000000D+00
      6a  0.000000D+00  0.000000D+00  0.000000D+00  0.000000D+00  0.000000D+00
      6b  0.000000D+00  0.000000D+00  0.000000D+00  0.000000D+00  0.000000D+00
      7a  0.000000D+00  0.000000D+00  0.000000D+00  0.000000D+00  0.000000D+00
      7b  0.000000D+00  0.000000D+00  0.000000D+00  0.000000D+00  0.000000D+00
      8a  0.000000D+00  0.000000D+00  0.000000D+00  0.000000D+00  0.000000D+00
      8b  0.000000D+00  0.000000D+00  0.000000D+00  0.000000D+00  0.000000D+00
      9a  0.000000D+00  0.000000D+00  0.000000D+00  0.000000D+00  0.000000D+00
      9b  0.000000D+00  0.000000D+00  0.000000D+00  0.000000D+00  0.000000D+00
     10a  0.000000D+00  0.000000D+00  0.000000D+00  0.000000D+00  0.000000D+00
     10b  0.000000D+00  0.000000D+00  0.000000D+00  0.000000D+00  0.000000D+00
                16            17            18            19            20 
      1a  0.000000D+00  0.000000D+00  0.000000D+00  0.000000D+00  0.000000D+00
      1b  0.000000D+00  0.000000D+00  0.000000D+00  0.000000D+00  0.000000D+00
      2a  0.000000D+00  0.000000D+00  0.000000D+00  0.000000D+00  0.000000D+00
      2b  0.000000D+00  0.000000D+00  0.000000D+00  0.000000D+00  0.000000D+00
      3a  0.000000D+00  0.000000D+00  0.000000D+00  0.000000D+00  0.000000D+00
      3b  0.000000D+00  0.000000D+00  0.000000D+00  0.000000D+00  0.000000D+00
      4a  0.000000D+00  0.000000D+00  0.000000D+00  0.000000D+00  0.000000D+00
      4b  0.000000D+00  0.000000D+00  0.000000D+00  0.000000D+00  0.000000D+00
      5a  0.000000D+00  0.000000D+00  0.000000D+00  0.000000D+00  0.000000D+00
      5b  0.000000D+00  0.000000D+00  0.000000D+00  0.000000D+00  0.000000D+00
      6a  0.000000D+00  0.000000D+00  0.000000D+00  0.000000D+00  0.000000D+00
      6b  0.000000D+00  0.000000D+00  0.000000D+00  0.000000D+00  0.000000D+00
      7a  0.000000D+00  0.000000D+00  0.000000D+00  0.000000D+00  0.000000D+00
      7b  0.000000D+00  0.000000D+00  0.000000D+00  0.000000D+00  0.000000D+00
      8a  0.000000D+00  0.000000D+00  0.000000D+00  0.000000D+00  0.000000D+00
      8b  0.000000D+00  0.000000D+00  0.000000D+00  0.000000D+00  0.000000D+00
      9a  0.000000D+00  0.000000D+00  0.000000D+00  0.000000D+00  0.000000D+00
      9b  0.000000D+00  0.000000D+00  0.000000D+00  0.000000D+00  0.000000D+00
     10a  0.000000D+00  0.000000D+00  0.000000D+00  0.000000D+00  0.000000D+00
     10b  0.000000D+00  0.000000D+00  0.000000D+00  0.000000D+00  0.000000D+00
FORTRAN STOP
