 Entering Gaussian System, Link 0=gdv
 AtFile(1): H.gbs
            H     0
            S   10   1.00
               1000.000000000000            0.000068713567
                316.227766000000            0.000169141320
                100.000000000000            0.000823394812
                 31.622776600000            0.003425569236
                 10.000000000000            0.013951996000
                  3.162277660000            0.056909313560
                  1.000000000000            0.198286399900
                  0.316227766000            0.496922426700
                  0.100000000000            0.369846276400
                  0.031622776600            0.003752720039
            ****
 Initial command:
 /users/lcj1/GHF_hess/exe-dir/l1.exe "/users/lcj1/GHF_hess/h10_2rows/Gau-16911.inp" -scrdir="/users/lcj1/GHF_hess/h10_2rows/"
 Entering Link 1 = /users/lcj1/GHF_hess/exe-dir/l1.exe PID=     16912.
  
 Copyright (c) 1988,1990,1992,1993,1995,1998,2003,2009,2012,
            Gaussian, Inc.  All Rights Reserved.
  
 This is the private, development version of
 the Gaussian(R) DV system of programs. It is based on
 the Gaussian(R) 09 system (copyright 2009, Gaussian, Inc.),
 the Gaussian(R) 03 system (copyright 2003, Gaussian, Inc.),
 the Gaussian(R) 98 system (copyright 1998, Gaussian, Inc.),
 the Gaussian(R) 94 system (copyright 1995, Gaussian, Inc.),
 the Gaussian 92(TM) system (copyright 1992, Gaussian, Inc.),
 the Gaussian 90(TM) system (copyright 1990, Gaussian, Inc.),
 the Gaussian 88(TM) system (copyright 1988, Gaussian, Inc.),
 the Gaussian 86(TM) system (copyright 1986, Carnegie Mellon
 University), and the Gaussian 82(TM) system (copyright 1983,
 Carnegie Mellon University). Gaussian is a federally registered
 trademark of Gaussian, Inc.
  
 This software contains proprietary and confidential information,
 including trade secrets, belonging to Gaussian, Inc.
  
 This software is provided under written license and may be
 used, copied, transmitted, or stored only in accord with that
 written license.
  
 The following legend is applicable only to US Government
 contracts under FAR:
  
                    RESTRICTED RIGHTS LEGEND
  
 Use, reproduction and disclosure by the US Government is
 subject to restrictions as set forth in subparagraphs (a)
 and (c) of the Commercial Computer Software - Restricted
 Rights clause in FAR 52.227-19.
  
 Gaussian, Inc.
 340 Quinnipiac St., Bldg. 40, Wallingford CT 06492
  
  
 ---------------------------------------------------------------
 Warning -- This program may not be used in any manner that
 competes with the business of Gaussian, Inc. or will provide
 assistance to any competitor of Gaussian, Inc.  The licensee
 of this program is prohibited from giving any competitor of
 Gaussian, Inc. access to this program.  By using this program,
 the user acknowledges that Gaussian, Inc. is engaged in the
 business of creating and licensing software in the field of
 computational chemistry and represents and warrants to the
 licensee that it is not a competitor of Gaussian, Inc. and that
 it will not use this program in any manner prohibited above.
 ---------------------------------------------------------------
  

 Cite this work as:
 Gaussian Development Version, Revision H.21,
 M. J. Frisch, G. W. Trucks, H. B. Schlegel, G. E. Scuseria, 
 M. A. Robb, J. R. Cheeseman, G. Scalmani, V. Barone, B. Mennucci, 
 G. A. Petersson, H. Nakatsuji, M. Caricato, X. Li, H. P. Hratchian, 
 A. F. Izmaylov, J. Bloino, G. Zheng, J. L. Sonnenberg, W. Liang, 
 M. Hada, M. Ehara, K. Toyota, R. Fukuda, J. Hasegawa, M. Ishida, 
 T. Nakajima, Y. Honda, O. Kitao, H. Nakai, T. Vreven, 
 J. A. Montgomery, Jr., J. E. Peralta, F. Ogliaro, M. Bearpark, 
 J. J. Heyd, E. Brothers, K. N. Kudin, V. N. Staroverov, T. Keith, 
 R. Kobayashi, J. Normand, K. Raghavachari, A. Rendell, J. C. Burant, 
 S. S. Iyengar, J. Tomasi, M. Cossi, N. Rega, J. M. Millam, M. Klene, 
 J. E. Knox, J. B. Cross, V. Bakken, C. Adamo, J. Jaramillo, 
 R. Gomperts, R. E. Stratmann, O. Yazyev, A. J. Austin, R. Cammi, 
 C. Pomelli, J. W. Ochterski, R. L. Martin, K. Morokuma, 
 V. G. Zakrzewski, G. A. Voth, P. Salvador, J. J. Dannenberg, 
 S. Dapprich, P. V. Parandekar, N. J. Mayhall, A. D. Daniels, 
 O. Farkas, J. B. Foresman, J. V. Ortiz, J. Cioslowski, 
 and D. J. Fox, Gaussian, Inc., Wallingford CT, 2010.
 
 ******************************************
 Gaussian DV:  EM64L-GDVRevH.21 13-May-2012
                27-Feb-2017 
 ******************************************
 %chk=h10.chk
 ----------------------------------------------------------------------
 #ghf/gen scf(tight,novaracc,noincfock,fulldiag) stable guess=read geom
 =nocrowd use=l802 use=l902 test
 ----------------------------------------------------------------------
 ********************************************
   THE COMPLEX ERI TRANSFORMATION WITH L802  
        COMPLEX STABILITY WITH L902          
 ********************************************
 1/38=1/1;
 2/12=1,17=6,18=5,40=1/2;
 3/5=7,16=1,25=20,28=1,116=7/1,2,3,20;
 4/5=1/1;
 5/5=100001,16=1,32=2,38=6/2;
 8/6=1,10=90,11=11/1,2;
 9/8=4,13=1/1,2;
 6/7=2,8=2,9=2,10=2,28=1/1;
 99/5=1,9=1/99;
 ----------------------------------------------------------------------
 hf stability analysis of h10 triangular lattice, y= 2.2960291063410230
  alpha= 83.750000000000000
 ----------------------------------------------------------------------
 Symbolic Z-Matrix:
 Charge =  0 Multiplicity = 1
 H
 H                    1     2.30976 
 H                    1     2.30976  2     12.5 
 H                    2     2.30976  1     167.5    3     0.       0
 H                    3     2.30976  1     180.     2     0.       0
 H                    4     2.30976  2     180.     1     0.       0
 H                    5     2.30976  3     180.     2     0.       0
 H                    6     2.30976  4     180.     1     0.       0
 H                    7     2.30976  5     180.     2     0.       0
 H                    8     2.30976  6     180.     1     0.       0
 
                          Input orientation:                          
 ---------------------------------------------------------------------
 Center     Atomic      Atomic             Coordinates (Angstroms)
 Number     Number       Type             X           Y           Z
 ---------------------------------------------------------------------
      1          1           0        0.000000    0.000000    0.000000
      2          1           0        0.000000    0.000000    2.309758
      3          1           0        0.499923    0.000000    2.255007
      4          1           0        0.499923    0.000000    4.564765
      5          1           0        0.999846    0.000000    4.510014
      6          1           0        0.999846    0.000000    6.819772
      7          1           0        1.499769    0.000000    6.765021
      8          1           0        1.499769    0.000000    9.074779
      9          1           0        1.999692    0.000000    9.020028
     10          1           0        1.999692    0.000000   11.329786
 ---------------------------------------------------------------------
                    Distance matrix (angstroms):
                    1          2          3          4          5
     1  H    0.000000
     2  H    2.309758   0.000000
     3  H    2.309758   0.502912   0.000000
     4  H    4.592058   2.309758   2.309758   0.000000
     5  H    4.619515   2.416779   2.309758   0.502912   0.000000
     6  H    6.892676   4.619515   4.592058   2.309758   2.309758
     7  H    6.929273   4.700923   4.619515   2.416779   2.309758
     8  H    9.197876   6.929273   6.892676   4.619515   4.592058
     9  H    9.239030   7.001893   6.929273   4.700923   4.619515
    10  H   11.504904   9.239030   9.197876   6.929273   6.892676
                    6          7          8          9         10
     6  H    0.000000
     7  H    0.502912   0.000000
     8  H    2.309758   2.309758   0.000000
     9  H    2.416779   2.309758   0.502912   0.000000
    10  H    4.619515   4.592058   2.309758   2.309758   0.000000
 Stoichiometry    H10
 Framework group  C2H[SGH(H10)]
 Deg. of freedom     9
 Full point group                 C2H     NOp   4
 Largest Abelian subgroup         C2H     NOp   4
 Largest concise Abelian subgroup C2      NOp   2
                         Standard orientation:                         
 ---------------------------------------------------------------------
 Center     Atomic      Atomic             Coordinates (Angstroms)
 Number     Number       Type             X           Y           Z
 ---------------------------------------------------------------------
      1          1           0        0.999846    5.664893    0.000000
      2          1           0        0.999846    3.355135    0.000000
      3          1           0        0.499923    3.409886    0.000000
      4          1           0        0.499923    1.100128    0.000000
      5          1           0        0.000000    1.154879    0.000000
      6          1           0        0.000000   -1.154879    0.000000
      7          1           0       -0.499923   -1.100128    0.000000
      8          1           0       -0.499923   -3.409886    0.000000
      9          1           0       -0.999846   -3.355135    0.000000
     10          1           0       -0.999846   -5.664893    0.000000
 ---------------------------------------------------------------------
 Rotational constants (GHZ):    898.7001582      4.1970122      4.1775029
 General basis read from cards:  (5D, 7F)
 There are     5 symmetry adapted cartesian basis functions of AG  symmetry.
 There are     0 symmetry adapted cartesian basis functions of BG  symmetry.
 There are     0 symmetry adapted cartesian basis functions of AU  symmetry.
 There are     5 symmetry adapted cartesian basis functions of BU  symmetry.
 There are     5 symmetry adapted basis functions of AG  symmetry.
 There are     0 symmetry adapted basis functions of BG  symmetry.
 There are     0 symmetry adapted basis functions of AU  symmetry.
 There are     5 symmetry adapted basis functions of BU  symmetry.
    10 basis functions,   100 primitive gaussians,    10 cartesian basis functions
     5 alpha electrons        5 beta electrons
       nuclear repulsion energy        10.1045364517 Hartrees.
 NAtoms=   10 NActive=   10 NUniq=    5 SFac= 4.00D+00 NAtFMM=   60 NAOKFM=F Big=F
 Integral buffers will be    131072 words long.
 Regular integral format.
 Two-electron integral symmetry is turned off.
 One-electron integrals computed using PRISM.
 NBasis=    10 RedAO= T EigKep=  1.14D-01  NBF=     5     0     0     5
 NBsUse=    10 1.00D-06 EigRej= -1.00D+00 NBFU=     5     0     0     5
 IOp(28)                       1
                        1                       0
                        2                       1
                        3                       1
                        4                      20
                        5                       0
                        6                       0
                        7                      10
                        8                       1
                        9                       4
                       10                       0
                       11              1073741824
                       12                      20
                       13                       2
                       14                  131070
                       15                       1
                       16                       1
                       17                  131073
                       18                       0
                       19                       0
                       20                       0
                       21                       2
                       22                  131070
                       23                       0
                       24                       0
                       25                       0
                       26                       0
                       27                   65535
                       28                       2
                       29                  131072
                       30                       0
 IHMeth                       1
 ib3: ISMode =                        0                       4
 Enter DskPsm, NBasis=  10 NBas6D=  10 NShell=  10 IDoSP=4.
 Out2e will use a cutoff of  1.00D-10
 FoFCou: FMM=F IPFlag=           0 FMFlag=           0 FMFlg1=           0
         NFxFlg=           0 DoJE=F BraDBF=F KetDBF=F FulRan=T
         wScrn=  0.000000 ICntrl=     600 IOpCl=  9 I1Cent=           0 NGrid=           0
         NMat0=    0 NMatS0=      0 NMatT0=    0 NMatD0=    0 NMtDS0=    0 NMtDT0=    0
 Symmetry not used in FoFCou.
 Entering PrmDigJobTyp =                      20
 LenSav and NKeep                       0                       0
 Entered Stor2E with KNTT1,2                       2                  131070
 Leave Stor2X
 Entering PrmDigJobTyp =                      20
 LenSav and NKeep                       0                       0
 Entered Stor2E with KNTT1,2                       2                  131056
 Leave Stor2X
 Entering PrmDigJobTyp =                      20
 LenSav and NKeep                       0                       0
 Entered Stor2E with KNTT1,2                       2                  131042
 Leave Stor2X
 Entering PrmDigJobTyp =                      20
 LenSav and NKeep                       0                       0
 Entered Stor2E with KNTT1,2                       2                  131028
 Leave Stor2X
 Entering PrmDigJobTyp =                      20
 LenSav and NKeep                       0                       0
 Entered Stor2E with KNTT1,2                       2                  131014
 Leave Stor2X
 Entering PrmDigJobTyp =                      20
 LenSav and NKeep                       0                       0
 Entered Stor2E with KNTT1,2                       2                  131000
 Leave Stor2X
 Entering PrmDigJobTyp =                      20
 LenSav and NKeep                       0                       0
 Entered Stor2E with KNTT1,2                       2                  130986
 Leave Stor2X
 Entering PrmDigJobTyp =                      20
 LenSav and NKeep                       0                       0
 Entered Stor2E with KNTT1,2                       2                  130972
 Leave Stor2X
 Entering PrmDigJobTyp =                      20
 LenSav and NKeep                       0                       0
 Entered Stor2E with KNTT1,2                       2                  130960
 Leave Stor2X
 Entering PrmDigJobTyp =                      20
 LenSav and NKeep                       0                       0
 Entered Stor2E with KNTT1,2                       2                  130942
 Leave Stor2X
 Entering PrmDigJobTyp =                      20
 LenSav and NKeep                       0                       0
 Entered Stor2E with KNTT1,2                       2                  130924
 Leave Stor2X
 Entering PrmDigJobTyp =                      20
 LenSav and NKeep                       0                       0
 Entered Stor2E with KNTT1,2                       2                  130906
 Leave Stor2X
 Entering PrmDigJobTyp =                      20
 LenSav and NKeep                       0                       0
 Entered Stor2E with KNTT1,2                       2                  130888
 Leave Stor2X
 Entering PrmDigJobTyp =                      20
 LenSav and NKeep                       0                       0
 Entered Stor2E with KNTT1,2                       2                  130870
 Leave Stor2X
 Entering PrmDigJobTyp =                      20
 LenSav and NKeep                       0                       0
 Entered Stor2E with KNTT1,2                       2                  130852
 Leave Stor2X
 Entering PrmDigJobTyp =                      20
 LenSav and NKeep                       0                       0
 Entered Stor2E with KNTT1,2                       2                  130834
 Leave Stor2X
 Entering PrmDigJobTyp =                      20
 LenSav and NKeep                       0                       0
 Entered Stor2E with KNTT1,2                       2                  130816
 Leave Stor2X
 Entering PrmDigJobTyp =                      20
 LenSav and NKeep                       0                       0
 Entered Stor2E with KNTT1,2                       2                  130798
 Leave Stor2X
 Entering PrmDigJobTyp =                      20
 LenSav and NKeep                       0                       0
 Entered Stor2E with KNTT1,2                       2                  130780
 Leave Stor2X
 Entering PrmDigJobTyp =                      20
 LenSav and NKeep                       0                       0
 Entered Stor2E with KNTT1,2                       2                  130762
 Leave Stor2X
 Entering PrmDigJobTyp =                      20
 LenSav and NKeep                       0                       0
 Entered Stor2E with KNTT1,2                       2                  130744
 Leave Stor2X
 Entering PrmDigJobTyp =                      20
 LenSav and NKeep                       0                       0
 Entered Stor2E with KNTT1,2                       2                  130726
 Leave Stor2X
 Entering PrmDigJobTyp =                      20
 LenSav and NKeep                       0                       0
 Entered Stor2E with KNTT1,2                       2                  130708
 Leave Stor2X
 Entering PrmDigJobTyp =                      20
 LenSav and NKeep                       0                       0
 Entered Stor2E with KNTT1,2                       2                  130700
 Leave Stor2X
 Entering PrmDigJobTyp =                      20
 LenSav and NKeep                       0                       0
 Entered Stor2E with KNTT1,2                      10                  130678
 Leave Stor2X
 Entering PrmDigJobTyp =                      20
 LenSav and NKeep                       0                       0
 Entered Stor2E with KNTT1,2                      28                  130666
 Leave Stor2X
 Entering PrmDigJobTyp =                      20
 LenSav and NKeep                       0                       0
 Entered Stor2E with KNTT1,2                      46                  130654
 Leave Stor2X
 Entering PrmDigJobTyp =                      20
 LenSav and NKeep                       0                       0
 Entered Stor2E with KNTT1,2                      70                  130648
 Leave Stor2X
 Entering PrmDigJobTyp =                      20
 LenSav and NKeep                       0                       0
 Entered Stor2E with KNTT1,2                      92                  130640
 Leave Stor2X
 Entering PrmDigJobTyp =                      20
 LenSav and NKeep                       0                       0
 Entered Stor2E with KNTT1,2                     114                  130632
 Leave Stor2X
 Entering PrmDigJobTyp =                      20
 LenSav and NKeep                       0                       0
 Entered Stor2E with KNTT1,2                     114                  130630
 Leave Stor2X
 Entering PrmDigJobTyp =                      20
 LenSav and NKeep                       0                       0
 Entered Stor2E with KNTT1,2                     114                  130616
 Leave Stor2X
 Entering PrmDigJobTyp =                      20
 LenSav and NKeep                       0                       0
 Entered Stor2E with KNTT1,2                     114                  130602
 Leave Stor2X
 Entering PrmDigJobTyp =                      20
 LenSav and NKeep                       0                       0
 Entered Stor2E with KNTT1,2                     114                  130588
 Leave Stor2X
 Entering PrmDigJobTyp =                      20
 LenSav and NKeep                       0                       0
 Entered Stor2E with KNTT1,2                     114                  130574
 Leave Stor2X
 Entering PrmDigJobTyp =                      20
 LenSav and NKeep                       0                       0
 Entered Stor2E with KNTT1,2                     114                  130560
 Leave Stor2X
 Entering PrmDigJobTyp =                      20
 LenSav and NKeep                       0                       0
 Entered Stor2E with KNTT1,2                     114                  130550
 Leave Stor2X
 Entering PrmDigJobTyp =                      20
 LenSav and NKeep                       0                       0
 Entered Stor2E with KNTT1,2                     126                  130540
 Leave Stor2X
 Entering PrmDigJobTyp =                      20
 LenSav and NKeep                       0                       0
 Entered Stor2E with KNTT1,2                     136                  130528
 Leave Stor2X
 Entering PrmDigJobTyp =                      20
 LenSav and NKeep                       0                       0
 Entered Stor2E with KNTT1,2                     154                  130524
 Leave Stor2X
 Entering PrmDigJobTyp =                      20
 LenSav and NKeep                       0                       0
 Entered Stor2E with KNTT1,2                     168                  130516
 Leave Stor2X
 Entering PrmDigJobTyp =                      20
 LenSav and NKeep                       0                       0
 Entered Stor2E with KNTT1,2                     174                  130506
 Leave Stor2X
 Entering PrmDigJobTyp =                      20
 LenSav and NKeep                       0                       0
 Entered Stor2E with KNTT1,2                     184                  130500
 Leave Stor2X
 Entering PrmDigJobTyp =                      20
 LenSav and NKeep                       0                       0
 Entered Stor2E with KNTT1,2                     186                  130498
 Leave Stor2X
 Entering PrmDigJobTyp =                      20
 LenSav and NKeep                       0                       0
 Entered Stor2E with KNTT1,2                     186                  130472
 Leave Stor2X
 Entering PrmDigJobTyp =                      20
 LenSav and NKeep                       0                       0
 Entered Stor2E with KNTT1,2                     186                  130446
 Leave Stor2X
 Entering PrmDigJobTyp =                      20
 LenSav and NKeep                       0                       0
 Entered Stor2E with KNTT1,2                     186                  130420
 Leave Stor2X
 Entering PrmDigJobTyp =                      20
 LenSav and NKeep                       0                       0
 Entered Stor2E with KNTT1,2                     186                  130394
 Leave Stor2X
 Entering PrmDigJobTyp =                      20
 LenSav and NKeep                       0                       0
 Entered Stor2E with KNTT1,2                     186                  130368
 Leave Stor2X
 Entering PrmDigJobTyp =                      20
 LenSav and NKeep                       0                       0
 Entered Stor2E with KNTT1,2                     186                  130342
 Leave Stor2X
 Entering PrmDigJobTyp =                      20
 LenSav and NKeep                       0                       0
 Entered Stor2E with KNTT1,2                     186                  130316
 Leave Stor2X
 Entering PrmDigJobTyp =                      20
 LenSav and NKeep                       0                       0
 Entered Stor2E with KNTT1,2                     186                  130290
 Leave Stor2X
 Entering PrmDigJobTyp =                      20
 LenSav and NKeep                       0                       0
 Entered Stor2E with KNTT1,2                     186                  130264
 Leave Stor2X
 Entering PrmDigJobTyp =                      20
 LenSav and NKeep                       0                       0
 Entered Stor2E with KNTT1,2                     186                  130258
 Leave Stor2X
 Entering PrmDigJobTyp =                      20
 LenSav and NKeep                       0                       0
 Entered Stor2E with KNTT1,2                     208                  130238
 Leave Stor2X
 Entering PrmDigJobTyp =                      20
 LenSav and NKeep                       0                       0
 Entered Stor2E with KNTT1,2                     238                  130226
 Leave Stor2X
 Entering PrmDigJobTyp =                      20
 LenSav and NKeep                       0                       0
 Entered Stor2E with KNTT1,2                     260                  130206
 Leave Stor2X
 Entering PrmDigJobTyp =                      20
 LenSav and NKeep                       0                       0
 Entered Stor2E with KNTT1,2                     284                  130188
 Leave Stor2X
 Entering PrmDigJobTyp =                      20
 LenSav and NKeep                       0                       0
 Entered Stor2E with KNTT1,2                     308                  130170
 Leave Stor2X
 Entering PrmDigJobTyp =                      20
 LenSav and NKeep                       0                       0
 Entered Stor2E with KNTT1,2                     334                  130154
 Leave Stor2X
 Entering PrmDigJobTyp =                      20
 LenSav and NKeep                       0                       0
 Entered Stor2E with KNTT1,2                     362                  130140
 Leave Stor2X
 Entering PrmDigJobTyp =                      20
 LenSav and NKeep                       0                       0
 Entered Stor2E with KNTT1,2                     370                  130130
 Leave Stor2X
 Entering PrmDigJobTyp =                      20
 LenSav and NKeep                       0                       0
 Entered Stor2E with KNTT1,2                     388                  130118
 Leave Stor2X
 Entering PrmDigJobTyp =                      20
 LenSav and NKeep                       0                       0
 Entered Stor2E with KNTT1,2                     404                  130104
 Leave Stor2X
 Entering PrmDigJobTyp =                      20
 LenSav and NKeep                       0                       0
 Entered Stor2E with KNTT1,2                     422                  130092
 Leave Stor2X
 Entering PrmDigJobTyp =                      20
 LenSav and NKeep                       0                       0
 Entered Stor2E with KNTT1,2                     426                  130090
 Leave Stor2X
 Entering PrmDigJobTyp =                      20
 LenSav and NKeep                       0                       0
 Entered Stor2E with KNTT1,2                     460                  130062
 Leave Stor2X
 Entering PrmDigJobTyp =                      20
 LenSav and NKeep                       0                       0
 Entered Stor2E with KNTT1,2                     500                  130040
 Leave Stor2X
 Entering PrmDigJobTyp =                      20
 LenSav and NKeep                       0                       0
 Entered Stor2E with KNTT1,2                     522                  130030
 Leave Stor2X
 Entering PrmDigJobTyp =                      20
 LenSav and NKeep                       0                       0
 Entered Stor2E with KNTT1,2                     522                  130012
 Leave Stor2X
 Entering PrmDigJobTyp =                      20
 LenSav and NKeep                       0                       0
 Entered Stor2E with KNTT1,2                     522                  129994
 Leave Stor2X
 Entering PrmDigJobTyp =                      20
 LenSav and NKeep                       0                       0
 Entered Stor2E with KNTT1,2                     522                  129976
 Leave Stor2X
 Entering PrmDigJobTyp =                      20
 LenSav and NKeep                       0                       0
 Entered Stor2E with KNTT1,2                     522                  129970
 Leave Stor2X
 Entering PrmDigJobTyp =                      20
 LenSav and NKeep                       0                       0
 Entered Stor2E with KNTT1,2                     542                  129960
 Leave Stor2X
 Entering PrmDigJobTyp =                      20
 LenSav and NKeep                       0                       0
 Entered Stor2E with KNTT1,2                     560                  129948
 Leave Stor2X
 Entering PrmDigJobTyp =                      20
 LenSav and NKeep                       0                       0
 Entered Stor2E with KNTT1,2                     568                  129938
 Leave Stor2X
 Entering PrmDigJobTyp =                      20
 LenSav and NKeep                       0                       0
 Entered Stor2E with KNTT1,2                     580                  129928
 Leave Stor2X
 Entering PrmDigJobTyp =                      20
 LenSav and NKeep                       0                       0
 Entered Stor2E with KNTT1,2                     580                  129926
 Leave Stor2X
 Entering PrmDigJobTyp =                      20
 LenSav and NKeep                       0                       0
 Entered Stor2E with KNTT1,2                     604                  129906
 Leave Stor2X
 Entering PrmDigJobTyp =                      20
 LenSav and NKeep                       0                       0
 Entered Stor2E with KNTT1,2                     620                  129894
 Leave Stor2X
 Entering PrmDigJobTyp =                      20
 LenSav and NKeep                       0                       0
 Entered Stor2E with KNTT1,2                     626                  129888
 Leave Stor2X
 Entering PrmDigJobTyp =                      20
 LenSav and NKeep                       0                       0
 Entered Stor2E with KNTT1,2                     626                  129858
 Leave Stor2X
 Entering PrmDigJobTyp =                      20
 LenSav and NKeep                       0                       0
 Entered Stor2E with KNTT1,2                     626                  129828
 Leave Stor2X
 Entering PrmDigJobTyp =                      20
 LenSav and NKeep                       0                       0
 Entered Stor2E with KNTT1,2                     626                  129798
 Leave Stor2X
 Entering PrmDigJobTyp =                      20
 LenSav and NKeep                       0                       0
 Entered Stor2E with KNTT1,2                     626                  129768
 Leave Stor2X
 Entering PrmDigJobTyp =                      20
 LenSav and NKeep                       0                       0
 Entered Stor2E with KNTT1,2                     626                  129738
 Leave Stor2X
 Entering PrmDigJobTyp =                      20
 LenSav and NKeep                       0                       0
 Entered Stor2E with KNTT1,2                     626                  129728
 Leave Stor2X
 Entering PrmDigJobTyp =                      20
 LenSav and NKeep                       0                       0
 Entered Stor2E with KNTT1,2                     656                  129708
 Leave Stor2X
 Entering PrmDigJobTyp =                      20
 LenSav and NKeep                       0                       0
 Entered Stor2E with KNTT1,2                     686                  129688
 Leave Stor2X
 Entering PrmDigJobTyp =                      20
 LenSav and NKeep                       0                       0
 Entered Stor2E with KNTT1,2                     720                  129672
 Leave Stor2X
 Entering PrmDigJobTyp =                      20
 LenSav and NKeep                       0                       0
 Entered Stor2E with KNTT1,2                     750                  129652
 Leave Stor2X
 Entering PrmDigJobTyp =                      20
 LenSav and NKeep                       0                       0
 Entered Stor2E with KNTT1,2                     754                  129648
 Leave Stor2X
 Entering PrmDigJobTyp =                      20
 LenSav and NKeep                       0                       0
 Entered Stor2E with KNTT1,2                     776                  129634
 Leave Stor2X
 Entering PrmDigJobTyp =                      20
 LenSav and NKeep                       0                       0
 Entered Stor2E with KNTT1,2                     794                  129624
 Leave Stor2X
 Entering PrmDigJobTyp =                      20
 LenSav and NKeep                       0                       0
 Entered Stor2E with KNTT1,2                     838                  129596
 Leave Stor2X
 Entering PrmDigJobTyp =                      20
 LenSav and NKeep                       0                       0
 Entered Stor2E with KNTT1,2                     886                  129572
 Leave Stor2X
 Entering PrmDigJobTyp =                      20
 LenSav and NKeep                       0                       0
 Entered Stor2E with KNTT1,2                     914                  129552
 Leave Stor2X
 Entering PrmDigJobTyp =                      20
 LenSav and NKeep                       0                       0
 Entered Stor2E with KNTT1,2                     946                  129536
 Leave Stor2X
 Entering PrmDigJobTyp =                      20
 LenSav and NKeep                       0                       0
 Entered Stor2E with KNTT1,2                     990                  129508
 Leave Stor2X
 Entering PrmDigJobTyp =                      20
 LenSav and NKeep                       0                       0
 Entered Stor2E with KNTT1,2                     990                  129456
 Leave Stor2X
 Entering PrmDigJobTyp =                      20
 LenSav and NKeep                       0                       0
 Entered Stor2E with KNTT1,2                     990                  129428
 Leave Stor2X
 Entering PrmDigJobTyp =                      20
 LenSav and NKeep                       0                       0
 Entered Stor2E with KNTT1,2                    1046                  129400
 Leave Stor2X
 Entering PrmDigJobTyp =                      20
 LenSav and NKeep                       0                       0
 Entered Stor2E with KNTT1,2                    1058                  129392
 Leave Stor2X
 Entering PrmDigJobTyp =                      20
 LenSav and NKeep                       0                       0
 Entered Stor2E with KNTT1,2                    1082                  129384
 Leave Stor2X
 Entering PrmDigJobTyp =                      20
 LenSav and NKeep                       0                       0
 Entered Stor2E with KNTT1,2                    1090                  129378
 Leave Stor2X
 Entering PrmDigJobTyp =                      20
 LenSav and NKeep                       0                       0
 Entered Stor2E with KNTT1,2                    1098                  129372
 Leave Stor2X
 Entering PrmDigJobTyp =                      20
 LenSav and NKeep                       0                       0
 Entered Stor2E with KNTT1,2                    1110                  129370
 Leave Stor2X
 Entering PrmDigJobTyp =                      20
 LenSav and NKeep                       0                       0
 Entered Stor2E with KNTT1,2                    1120                  129366
 Leave Stor2X
 Entering PrmDigJobTyp =                      20
 LenSav and NKeep                       0                       0
 Entered Stor2E with KNTT1,2                    1130                  129362
 Leave Stor2X
 Entering PrmDigJobTyp =                      20
 LenSav and NKeep                       0                       0
 Entered Stor2E with KNTT1,2                    1138                  129356
 Leave Stor2X
 Entering PrmDigJobTyp =                      20
 LenSav and NKeep                       0                       0
 Entered Stor2E with KNTT1,2                    1146                  129352
 Leave Stor2X
 Entering PrmDigJobTyp =                      20
 LenSav and NKeep                       0                       0
 Entered Stor2E with KNTT1,2                    1166                  129348
 Leave Stor2X
 Entering PrmDigJobTyp =                      20
 LenSav and NKeep                       0                       0
 Entered Stor2E with KNTT1,2                    1166                  129348
 Leave Stor2X
 Entering PrmDigJobTyp =                      20
 LenSav and NKeep                       0                       0
 Entered Stor2E with KNTT1,2                    1166                  129348
 Leave Stor2X
 Entering PrmDigJobTyp =                      20
 LenSav and NKeep                       0                       0
 Entered Stor2E with KNTT1,2                    1166                  129348
 Leave Stor2X
 Entering PrmDigJobTyp =                      20
 LenSav and NKeep                       0                       0
 Entered Stor2E with KNTT1,2                    1166                  129348
 Leave Stor2X
 Entering PrmDigJobTyp =                      20
 LenSav and NKeep                       0                       0
 Entered Stor2E with KNTT1,2                    1166                  129328
 Leave Stor2X
 Entering PrmDigJobTyp =                      20
 LenSav and NKeep                       0                       0
 Entered Stor2E with KNTT1,2                    1176                  129324
 Leave Stor2X
 Entering PrmDigJobTyp =                      20
 LenSav and NKeep                       0                       0
 Entered Stor2E with KNTT1,2                    1184                  129320
 Leave Stor2X
 Entering PrmDigJobTyp =                      20
 LenSav and NKeep                       0                       0
 Entered Stor2E with KNTT1,2                    1192                  129320
 Leave Stor2X
 Entering PrmDigJobTyp =                      20
 LenSav and NKeep                       0                       0
 Entered Stor2E with KNTT1,2                    1192                  129320
 Leave Stor2X
 Entering PrmDigJobTyp =                      20
 LenSav and NKeep                       0                       0
 Entered Stor2E with KNTT1,2                    1192                  129320
 Leave Stor2X
 In PrSumR
 Called IWRITE
         1473 integrals produced for a total of         1473.
 Initial guess from the checkpoint file:  "h10.chk"
 B after Tr=     0.000000    0.000000    0.000000
         Rot=    0.979322    0.000000    0.000000   -0.202306 Ang= -23.34 deg.
 Initial guess <Sx>= 0.0000 <Sy>= 0.0000 <Sz>= 0.0000 <S**2>= 0.0000 S= 0.0000
 Two-electron integrals will be kept in memory, NGetB=      152788.
 Requested convergence on RMS density matrix=1.00D-08 within 128 cycles.
 Requested convergence on MAX density matrix=1.00D-06.
 Requested convergence on             energy=1.00D-06.
 No special actions if energy rises.
 ************************************************
 *READING THE YAODEN.PDM FILE TO GET NEW DENSITY*
 ************************************************
 EnCoef did   100 forward-backward iterations
 EnCoef did    91 forward-backward iterations
 EnCoef did   100 forward-backward iterations
 EnCoef did   100 forward-backward iterations
 Rare condition: small coef for last iteration:  0.167D-14
 EnCoef did   100 forward-backward iterations
 Rare condition: small coef for last iteration:  0.156D-16
 EnCoef did   100 forward-backward iterations
 SCF Done:  E(GHF) =  -4.83646362124     A.U. after   15 cycles
            NFock= 15  Conv=0.63D-08     -V/T= 2.0276
 <Sx>=-0.0711 <Sy>= 0.0000 <Sz>=-0.0373 <S**2>= 1.0064 S= 0.6209
 <L.S>= 0.000000000000E+00
 Range of M.O.s used for correlation:     1    10
 NBasis=    10 NAE=    10 NBE=     0 NFC=     0 NFV=     0
 NROrb=     20 NOA=    10 NOB=     0 NVA=    10 NVB=     0
 jaja DoHack is true or false? T
 jaja in hckghf.F, NBasis=                      10
 jaja in hckGHF/FixOG, LC =                      800
 jaja in hckGHF/FixOG, IRwC=                      548
 bfr conversion (real):
                 1             2             3             4             5 
      1a  0.699868D-02 -0.373456D-02  0.129439D-01  0.682126D-02  0.154586D-01
      1b  0.845601D-02  0.100149D-01  0.156680D-01 -0.184540D-01  0.197700D-01
      2a -0.719836D-01  0.137427D+00 -0.142363D+00 -0.246644D+00 -0.178332D+00
      2b  0.161583D+00  0.109263D+00  0.261556D+00 -0.165609D+00  0.268745D+00
      3a -0.711632D-01  0.136057D+00 -0.141808D+00 -0.245985D+00 -0.179362D+00
      3b  0.160218D+00  0.108429D+00  0.261223D+00 -0.165567D+00  0.270925D+00
      4a -0.135332D+00  0.231727D+00 -0.122941D+00 -0.172252D+00  0.740729D-01
      4b  0.239275D+00  0.149609D+00  0.133482D+00 -0.618375D-01 -0.195928D+00
      5a -0.134703D+00  0.230883D+00 -0.124459D+00 -0.175130D+00  0.716419D-01
      5b  0.238700D+00  0.149384D+00  0.136783D+00 -0.640618D-01 -0.192638D+00
      6a -0.148765D+00  0.239566D+00  0.632808D-01  0.138108D+00  0.137283D+00
      6b  0.230199D+00  0.135020D+00 -0.173768D+00  0.125303D+00 -0.152956D+00
      7a -0.148982D+00  0.240157D+00  0.610629D-01  0.134801D+00  0.139067D+00
      7b  0.231023D+00  0.135664D+00 -0.170889D+00  0.123787D+00 -0.156637D+00
      8a -0.108798D+00  0.159237D+00  0.165407D+00  0.260914D+00 -0.156546D+00
      8b  0.137466D+00  0.700873D-01 -0.246957D+00  0.140873D+00  0.284718D+00
      9a -0.109626D+00  0.160611D+00  0.165444D+00  0.261257D+00 -0.155094D+00
      9b  0.138827D+00  0.709129D-01 -0.247603D+00  0.141437D+00  0.282793D+00
     10a -0.107398D-01  0.713246D-02  0.198885D-01  0.131706D-01 -0.246893D-01
     10b -0.226759D-02 -0.796078D-02  0.418050D-02 -0.146156D-01 -0.450094D-02
                 6             7             8             9            10 
      1a -0.766563D-02  0.112464D-01  0.512138D-02  0.143108D+00  0.143097D+00
      1b  0.227655D-01  0.154925D-01 -0.173219D-01  0.700683D+00  0.700683D+00
      2a  0.283453D+00 -0.133233D+00 -0.199296D+00 -0.154977D-01 -0.147892D-01
      2b  0.156228D+00  0.172467D+00 -0.919948D-01 -0.740464D-01 -0.742498D-01
      3a  0.285372D+00 -0.135041D+00 -0.202154D+00 -0.155176D-01 -0.148179D-01
      3b  0.157678D+00  0.175174D+00 -0.935528D-01 -0.741668D-01 -0.743675D-01
      4a -0.155580D+00  0.194166D+00  0.311245D+00  0.479090D-02  0.422778D-03
      4b -0.138449D+00 -0.301401D+00  0.176427D+00  0.121317D-01  0.133959D-01
      5a -0.151904D+00  0.194465D+00  0.311958D+00  0.485923D-02  0.583113D-03
      5b -0.136664D+00 -0.302393D+00  0.177153D+00  0.127048D-01  0.139424D-01
      6a -0.191601D+00 -0.177391D+00 -0.301830D+00 -0.135078D-01  0.126165D-01
      6b -0.709988D-01  0.312714D+00 -0.193906D+00  0.160124D-02 -0.596272D-02
      7a -0.194891D+00 -0.176652D+00 -0.300856D+00 -0.129686D-01  0.120581D-01
      7b -0.734238D-01  0.311989D+00 -0.193612D+00  0.139542D-02 -0.585073D-02
      8a  0.272231D+00  0.923569D-01  0.176779D+00  0.728833D-01 -0.727360D-01
      8b  0.179415D+00 -0.200978D+00  0.135527D+00 -0.207250D-01  0.214378D-01
      9a  0.270055D+00  0.908006D-01  0.174072D+00  0.727675D-01 -0.726184D-01
      9b  0.178389D+00 -0.198119D+00  0.133721D+00 -0.206867D-01  0.214085D-01
     10a  0.165959D-01  0.189443D-01  0.129581D-01 -0.686935D+00  0.686929D+00
     10b -0.173668D-01  0.275892D-02 -0.125843D-01  0.198891D+00 -0.198900D+00
                11            12            13            14            15 
      1a  0.701221D+00  0.701236D+00  0.171780D-02  0.234566D-02  0.135302D-02
      1b -0.143245D+00 -0.143182D+00 -0.157726D-02  0.653315D-03 -0.128145D-02
      2a -0.486479D-01 -0.487303D-01  0.354731D+00  0.592194D+00  0.596998D+00
      2b  0.100866D-01  0.980123D-02 -0.599177D+00  0.365509D+00 -0.994211D+00
      3a -0.477460D-01 -0.477803D-01 -0.360389D+00 -0.601523D+00 -0.601907D+00
      3b  0.981446D-02  0.969512D-02  0.608443D+00 -0.371092D+00  0.100206D+01
      4a  0.276200D-02  0.330433D-02  0.570977D+00  0.946955D+00  0.376388D+00
      4b -0.155607D-02  0.317128D-03 -0.949356D+00  0.575421D+00 -0.603682D+00
      5a  0.885372D-02  0.920670D-02 -0.572629D+00 -0.949625D+00 -0.367573D+00
      5b -0.245382D-02 -0.123471D-02  0.951944D+00 -0.576947D+00  0.588851D+00
      6a  0.194155D-02 -0.318506D-02  0.576815D+00  0.952159D+00 -0.350598D+00
      6b  0.897998D-02 -0.872600D-02 -0.949413D+00  0.572755D+00  0.599114D+00
      7a -0.943479D-04 -0.181633D-02 -0.575291D+00 -0.949567D+00  0.359634D+00
      7b  0.316877D-02 -0.277850D-02  0.946748D+00 -0.571100D+00 -0.613811D+00
      8a -0.134972D-01  0.136188D-01  0.371284D+00  0.608118D+00 -0.607583D+00
      8b -0.468383D-01  0.468133D-01 -0.601857D+00  0.360183D+00  0.998626D+00
      9a -0.136754D-01  0.139663D-01 -0.365708D+00 -0.598840D+00  0.602917D+00
      9b -0.477634D-01  0.477038D-01  0.592541D+00 -0.354517D+00 -0.990632D+00
     10a  0.199018D+00 -0.199082D+00 -0.598354D-03 -0.166852D-02  0.505932D-03
     10b  0.687475D+00 -0.687459D+00  0.225401D-02 -0.177341D-02 -0.179354D-02
                16            17            18            19            20 
      1a -0.185970D-02 -0.675101D-03 -0.955994D-03 -0.168282D-02  0.238298D-02
      1b -0.546620D-03  0.701799D-03 -0.326428D-03  0.176738D-02  0.826483D-03
      2a -0.990427D+00  0.626820D+00  0.103387D+01  0.403817D+00 -0.663376D+00
      2b -0.602806D+00 -0.103001D+01  0.620887D+00 -0.657444D+00 -0.394677D+00
      3a  0.998432D+00 -0.624371D+00 -0.102975D+01 -0.396955D+00  0.652091D+00
      3b  0.607480D+00  0.102582D+01 -0.618311D+00  0.646248D+00  0.387948D+00
      4a -0.614132D+00 -0.379868D+00 -0.636292D+00 -0.658031D+00  0.108638D+01
      4b -0.359829D+00  0.646092D+00 -0.395382D+00  0.108435D+01  0.654265D+00
      5a  0.599433D+00  0.390831D+00  0.654319D+00  0.655145D+00 -0.108155D+01
      5b  0.350791D+00 -0.663998D+00  0.406141D+00 -0.107944D+01 -0.651254D+00
      6a  0.589171D+00 -0.406329D+00 -0.663687D+00  0.651359D+00 -0.107926D+01
      6b  0.367765D+00  0.654628D+00 -0.390645D+00 -0.108172D+01 -0.655037D+00
      7a -0.604004D+00  0.395569D+00  0.645783D+00 -0.654372D+00  0.108417D+01
      7b -0.376582D+00 -0.636600D+00  0.379682D+00  0.108656D+01  0.657920D+00
      8a  0.100188D+01  0.618184D+00  0.102602D+01 -0.387767D+00  0.646542D+00
      8b  0.601784D+00 -0.102956D+01  0.624480D+00  0.651803D+00  0.397126D+00
      9a -0.994017D+00 -0.620759D+00 -0.103021D+01  0.394492D+00 -0.657745D+00
      9b -0.596867D+00  0.103368D+01 -0.626930D+00 -0.663081D+00 -0.403992D+00
     10a -0.134822D-02  0.307701D-03  0.733292D-03 -0.782950D-03  0.183919D-02
     10b -0.139269D-02 -0.923907D-03  0.694810D-03  0.231138D-02  0.172598D-02
 bfr conversion (imaginary):
                 1             2             3             4             5 
      1a  0.000000D+00  0.000000D+00  0.000000D+00  0.000000D+00  0.000000D+00
      1b  0.000000D+00  0.000000D+00  0.000000D+00  0.000000D+00  0.000000D+00
      2a  0.000000D+00  0.000000D+00  0.000000D+00  0.000000D+00  0.000000D+00
      2b  0.000000D+00  0.000000D+00  0.000000D+00  0.000000D+00  0.000000D+00
      3a  0.000000D+00  0.000000D+00  0.000000D+00  0.000000D+00  0.000000D+00
      3b  0.000000D+00  0.000000D+00  0.000000D+00  0.000000D+00  0.000000D+00
      4a  0.000000D+00  0.000000D+00  0.000000D+00  0.000000D+00  0.000000D+00
      4b  0.000000D+00  0.000000D+00  0.000000D+00  0.000000D+00  0.000000D+00
      5a  0.000000D+00  0.000000D+00  0.000000D+00  0.000000D+00  0.000000D+00
      5b  0.000000D+00  0.000000D+00  0.000000D+00  0.000000D+00  0.000000D+00
      6a  0.000000D+00  0.000000D+00  0.000000D+00  0.000000D+00  0.000000D+00
      6b  0.000000D+00  0.000000D+00  0.000000D+00  0.000000D+00  0.000000D+00
      7a  0.000000D+00  0.000000D+00  0.000000D+00  0.000000D+00  0.000000D+00
      7b  0.000000D+00  0.000000D+00  0.000000D+00  0.000000D+00  0.000000D+00
      8a  0.000000D+00  0.000000D+00  0.000000D+00  0.000000D+00  0.000000D+00
      8b  0.000000D+00  0.000000D+00  0.000000D+00  0.000000D+00  0.000000D+00
      9a  0.000000D+00  0.000000D+00  0.000000D+00  0.000000D+00  0.000000D+00
      9b  0.000000D+00  0.000000D+00  0.000000D+00  0.000000D+00  0.000000D+00
     10a  0.000000D+00  0.000000D+00  0.000000D+00  0.000000D+00  0.000000D+00
     10b  0.000000D+00  0.000000D+00  0.000000D+00  0.000000D+00  0.000000D+00
                 6             7             8             9            10 
      1a  0.000000D+00  0.000000D+00  0.000000D+00  0.000000D+00  0.000000D+00
      1b  0.000000D+00  0.000000D+00  0.000000D+00  0.000000D+00  0.000000D+00
      2a  0.000000D+00  0.000000D+00  0.000000D+00  0.000000D+00  0.000000D+00
      2b  0.000000D+00  0.000000D+00  0.000000D+00  0.000000D+00  0.000000D+00
      3a  0.000000D+00  0.000000D+00  0.000000D+00  0.000000D+00  0.000000D+00
      3b  0.000000D+00  0.000000D+00  0.000000D+00  0.000000D+00  0.000000D+00
      4a  0.000000D+00  0.000000D+00  0.000000D+00  0.000000D+00  0.000000D+00
      4b  0.000000D+00  0.000000D+00  0.000000D+00  0.000000D+00  0.000000D+00
      5a  0.000000D+00  0.000000D+00  0.000000D+00  0.000000D+00  0.000000D+00
      5b  0.000000D+00  0.000000D+00  0.000000D+00  0.000000D+00  0.000000D+00
      6a  0.000000D+00  0.000000D+00  0.000000D+00  0.000000D+00  0.000000D+00
      6b  0.000000D+00  0.000000D+00  0.000000D+00  0.000000D+00  0.000000D+00
      7a  0.000000D+00  0.000000D+00  0.000000D+00  0.000000D+00  0.000000D+00
      7b  0.000000D+00  0.000000D+00  0.000000D+00  0.000000D+00  0.000000D+00
      8a  0.000000D+00  0.000000D+00  0.000000D+00  0.000000D+00  0.000000D+00
      8b  0.000000D+00  0.000000D+00  0.000000D+00  0.000000D+00  0.000000D+00
      9a  0.000000D+00  0.000000D+00  0.000000D+00  0.000000D+00  0.000000D+00
      9b  0.000000D+00  0.000000D+00  0.000000D+00  0.000000D+00  0.000000D+00
     10a  0.000000D+00  0.000000D+00  0.000000D+00  0.000000D+00  0.000000D+00
     10b  0.000000D+00  0.000000D+00  0.000000D+00  0.000000D+00  0.000000D+00
                11            12            13            14            15 
      1a  0.000000D+00  0.000000D+00  0.000000D+00  0.000000D+00  0.000000D+00
      1b  0.000000D+00  0.000000D+00  0.000000D+00  0.000000D+00  0.000000D+00
      2a  0.000000D+00  0.000000D+00  0.000000D+00  0.000000D+00  0.000000D+00
      2b  0.000000D+00  0.000000D+00  0.000000D+00  0.000000D+00  0.000000D+00
      3a  0.000000D+00  0.000000D+00  0.000000D+00  0.000000D+00  0.000000D+00
      3b  0.000000D+00  0.000000D+00  0.000000D+00  0.000000D+00  0.000000D+00
      4a  0.000000D+00  0.000000D+00  0.000000D+00  0.000000D+00  0.000000D+00
      4b  0.000000D+00  0.000000D+00  0.000000D+00  0.000000D+00  0.000000D+00
      5a  0.000000D+00  0.000000D+00  0.000000D+00  0.000000D+00  0.000000D+00
      5b  0.000000D+00  0.000000D+00  0.000000D+00  0.000000D+00  0.000000D+00
      6a  0.000000D+00  0.000000D+00  0.000000D+00  0.000000D+00  0.000000D+00
      6b  0.000000D+00  0.000000D+00  0.000000D+00  0.000000D+00  0.000000D+00
      7a  0.000000D+00  0.000000D+00  0.000000D+00  0.000000D+00  0.000000D+00
      7b  0.000000D+00  0.000000D+00  0.000000D+00  0.000000D+00  0.000000D+00
      8a  0.000000D+00  0.000000D+00  0.000000D+00  0.000000D+00  0.000000D+00
      8b  0.000000D+00  0.000000D+00  0.000000D+00  0.000000D+00  0.000000D+00
      9a  0.000000D+00  0.000000D+00  0.000000D+00  0.000000D+00  0.000000D+00
      9b  0.000000D+00  0.000000D+00  0.000000D+00  0.000000D+00  0.000000D+00
     10a  0.000000D+00  0.000000D+00  0.000000D+00  0.000000D+00  0.000000D+00
     10b  0.000000D+00  0.000000D+00  0.000000D+00  0.000000D+00  0.000000D+00
                16            17            18            19            20 
      1a  0.000000D+00  0.000000D+00  0.000000D+00  0.000000D+00  0.000000D+00
      1b  0.000000D+00  0.000000D+00  0.000000D+00  0.000000D+00  0.000000D+00
      2a  0.000000D+00  0.000000D+00  0.000000D+00  0.000000D+00  0.000000D+00
      2b  0.000000D+00  0.000000D+00  0.000000D+00  0.000000D+00  0.000000D+00
      3a  0.000000D+00  0.000000D+00  0.000000D+00  0.000000D+00  0.000000D+00
      3b  0.000000D+00  0.000000D+00  0.000000D+00  0.000000D+00  0.000000D+00
      4a  0.000000D+00  0.000000D+00  0.000000D+00  0.000000D+00  0.000000D+00
      4b  0.000000D+00  0.000000D+00  0.000000D+00  0.000000D+00  0.000000D+00
      5a  0.000000D+00  0.000000D+00  0.000000D+00  0.000000D+00  0.000000D+00
      5b  0.000000D+00  0.000000D+00  0.000000D+00  0.000000D+00  0.000000D+00
      6a  0.000000D+00  0.000000D+00  0.000000D+00  0.000000D+00  0.000000D+00
      6b  0.000000D+00  0.000000D+00  0.000000D+00  0.000000D+00  0.000000D+00
      7a  0.000000D+00  0.000000D+00  0.000000D+00  0.000000D+00  0.000000D+00
      7b  0.000000D+00  0.000000D+00  0.000000D+00  0.000000D+00  0.000000D+00
      8a  0.000000D+00  0.000000D+00  0.000000D+00  0.000000D+00  0.000000D+00
      8b  0.000000D+00  0.000000D+00  0.000000D+00  0.000000D+00  0.000000D+00
      9a  0.000000D+00  0.000000D+00  0.000000D+00  0.000000D+00  0.000000D+00
      9b  0.000000D+00  0.000000D+00  0.000000D+00  0.000000D+00  0.000000D+00
     10a  0.000000D+00  0.000000D+00  0.000000D+00  0.000000D+00  0.000000D+00
     10b  0.000000D+00  0.000000D+00  0.000000D+00  0.000000D+00  0.000000D+00
 afr conversion (alpha, real):
                 1             2             3             4             5 
      1   0.699868D-02 -0.373456D-02  0.129439D-01  0.682126D-02  0.154586D-01
      2  -0.719836D-01  0.137427D+00 -0.142363D+00 -0.246644D+00 -0.178332D+00
      3  -0.711632D-01  0.136057D+00 -0.141808D+00 -0.245985D+00 -0.179362D+00
      4  -0.135332D+00  0.231727D+00 -0.122941D+00 -0.172252D+00  0.740729D-01
      5  -0.134703D+00  0.230883D+00 -0.124459D+00 -0.175130D+00  0.716419D-01
      6  -0.148765D+00  0.239566D+00  0.632808D-01  0.138108D+00  0.137283D+00
      7  -0.148982D+00  0.240157D+00  0.610629D-01  0.134801D+00  0.139067D+00
      8  -0.108798D+00  0.159237D+00  0.165407D+00  0.260914D+00 -0.156546D+00
      9  -0.109626D+00  0.160611D+00  0.165444D+00  0.261257D+00 -0.155094D+00
     10  -0.107398D-01  0.713246D-02  0.198885D-01  0.131706D-01 -0.246893D-01
                 6             7             8             9            10 
      1  -0.766563D-02  0.112464D-01  0.512138D-02  0.143108D+00  0.143097D+00
      2   0.283453D+00 -0.133233D+00 -0.199296D+00 -0.154977D-01 -0.147892D-01
      3   0.285372D+00 -0.135041D+00 -0.202154D+00 -0.155176D-01 -0.148179D-01
      4  -0.155580D+00  0.194166D+00  0.311245D+00  0.479090D-02  0.422778D-03
      5  -0.151904D+00  0.194465D+00  0.311958D+00  0.485923D-02  0.583113D-03
      6  -0.191601D+00 -0.177391D+00 -0.301830D+00 -0.135078D-01  0.126165D-01
      7  -0.194891D+00 -0.176652D+00 -0.300856D+00 -0.129686D-01  0.120581D-01
      8   0.272231D+00  0.923569D-01  0.176779D+00  0.728833D-01 -0.727360D-01
      9   0.270055D+00  0.908006D-01  0.174072D+00  0.727675D-01 -0.726184D-01
     10   0.165959D-01  0.189443D-01  0.129581D-01 -0.686935D+00  0.686929D+00
                11            12            13            14            15 
      1   0.701221D+00  0.701236D+00  0.171780D-02  0.234566D-02  0.135302D-02
      2  -0.486479D-01 -0.487303D-01  0.354731D+00  0.592194D+00  0.596998D+00
      3  -0.477460D-01 -0.477803D-01 -0.360389D+00 -0.601523D+00 -0.601907D+00
      4   0.276200D-02  0.330433D-02  0.570977D+00  0.946955D+00  0.376388D+00
      5   0.885372D-02  0.920670D-02 -0.572629D+00 -0.949625D+00 -0.367573D+00
      6   0.194155D-02 -0.318506D-02  0.576815D+00  0.952159D+00 -0.350598D+00
      7  -0.943479D-04 -0.181633D-02 -0.575291D+00 -0.949567D+00  0.359634D+00
      8  -0.134972D-01  0.136188D-01  0.371284D+00  0.608118D+00 -0.607583D+00
      9  -0.136754D-01  0.139663D-01 -0.365708D+00 -0.598840D+00  0.602917D+00
     10   0.199018D+00 -0.199082D+00 -0.598354D-03 -0.166852D-02  0.505932D-03
                16            17            18            19            20 
      1  -0.185970D-02 -0.675101D-03 -0.955994D-03 -0.168282D-02  0.238298D-02
      2  -0.990427D+00  0.626820D+00  0.103387D+01  0.403817D+00 -0.663376D+00
      3   0.998432D+00 -0.624371D+00 -0.102975D+01 -0.396955D+00  0.652091D+00
      4  -0.614132D+00 -0.379868D+00 -0.636292D+00 -0.658031D+00  0.108638D+01
      5   0.599433D+00  0.390831D+00  0.654319D+00  0.655145D+00 -0.108155D+01
      6   0.589171D+00 -0.406329D+00 -0.663687D+00  0.651359D+00 -0.107926D+01
      7  -0.604004D+00  0.395569D+00  0.645783D+00 -0.654372D+00  0.108417D+01
      8   0.100188D+01  0.618184D+00  0.102602D+01 -0.387767D+00  0.646542D+00
      9  -0.994017D+00 -0.620759D+00 -0.103021D+01  0.394492D+00 -0.657745D+00
     10  -0.134822D-02  0.307701D-03  0.733292D-03 -0.782950D-03  0.183919D-02
 afr conversion (alpha, imaginary):
                 1             2             3             4             5 
      1   0.000000D+00  0.000000D+00  0.000000D+00  0.000000D+00  0.000000D+00
      2   0.000000D+00  0.000000D+00  0.000000D+00  0.000000D+00  0.000000D+00
      3   0.000000D+00  0.000000D+00  0.000000D+00  0.000000D+00  0.000000D+00
      4   0.000000D+00  0.000000D+00  0.000000D+00  0.000000D+00  0.000000D+00
      5   0.000000D+00  0.000000D+00  0.000000D+00  0.000000D+00  0.000000D+00
      6   0.000000D+00  0.000000D+00  0.000000D+00  0.000000D+00  0.000000D+00
      7   0.000000D+00  0.000000D+00  0.000000D+00  0.000000D+00  0.000000D+00
      8   0.000000D+00  0.000000D+00  0.000000D+00  0.000000D+00  0.000000D+00
      9   0.000000D+00  0.000000D+00  0.000000D+00  0.000000D+00  0.000000D+00
     10   0.000000D+00  0.000000D+00  0.000000D+00  0.000000D+00  0.000000D+00
                 6             7             8             9            10 
      1   0.000000D+00  0.000000D+00  0.000000D+00  0.000000D+00  0.000000D+00
      2   0.000000D+00  0.000000D+00  0.000000D+00  0.000000D+00  0.000000D+00
      3   0.000000D+00  0.000000D+00  0.000000D+00  0.000000D+00  0.000000D+00
      4   0.000000D+00  0.000000D+00  0.000000D+00  0.000000D+00  0.000000D+00
      5   0.000000D+00  0.000000D+00  0.000000D+00  0.000000D+00  0.000000D+00
      6   0.000000D+00  0.000000D+00  0.000000D+00  0.000000D+00  0.000000D+00
      7   0.000000D+00  0.000000D+00  0.000000D+00  0.000000D+00  0.000000D+00
      8   0.000000D+00  0.000000D+00  0.000000D+00  0.000000D+00  0.000000D+00
      9   0.000000D+00  0.000000D+00  0.000000D+00  0.000000D+00  0.000000D+00
     10   0.000000D+00  0.000000D+00  0.000000D+00  0.000000D+00  0.000000D+00
                11            12            13            14            15 
      1   0.000000D+00  0.000000D+00  0.000000D+00  0.000000D+00  0.000000D+00
      2   0.000000D+00  0.000000D+00  0.000000D+00  0.000000D+00  0.000000D+00
      3   0.000000D+00  0.000000D+00  0.000000D+00  0.000000D+00  0.000000D+00
      4   0.000000D+00  0.000000D+00  0.000000D+00  0.000000D+00  0.000000D+00
      5   0.000000D+00  0.000000D+00  0.000000D+00  0.000000D+00  0.000000D+00
      6   0.000000D+00  0.000000D+00  0.000000D+00  0.000000D+00  0.000000D+00
      7   0.000000D+00  0.000000D+00  0.000000D+00  0.000000D+00  0.000000D+00
      8   0.000000D+00  0.000000D+00  0.000000D+00  0.000000D+00  0.000000D+00
      9   0.000000D+00  0.000000D+00  0.000000D+00  0.000000D+00  0.000000D+00
     10   0.000000D+00  0.000000D+00  0.000000D+00  0.000000D+00  0.000000D+00
                16            17            18            19            20 
      1   0.000000D+00  0.000000D+00  0.000000D+00  0.000000D+00  0.000000D+00
      2   0.000000D+00  0.000000D+00  0.000000D+00  0.000000D+00  0.000000D+00
      3   0.000000D+00  0.000000D+00  0.000000D+00  0.000000D+00  0.000000D+00
      4   0.000000D+00  0.000000D+00  0.000000D+00  0.000000D+00  0.000000D+00
      5   0.000000D+00  0.000000D+00  0.000000D+00  0.000000D+00  0.000000D+00
      6   0.000000D+00  0.000000D+00  0.000000D+00  0.000000D+00  0.000000D+00
      7   0.000000D+00  0.000000D+00  0.000000D+00  0.000000D+00  0.000000D+00
      8   0.000000D+00  0.000000D+00  0.000000D+00  0.000000D+00  0.000000D+00
      9   0.000000D+00  0.000000D+00  0.000000D+00  0.000000D+00  0.000000D+00
     10   0.000000D+00  0.000000D+00  0.000000D+00  0.000000D+00  0.000000D+00
 afr conversion (beta, real):
                 1             2             3             4             5 
      1   0.845601D-02  0.100149D-01  0.156680D-01 -0.184540D-01  0.197700D-01
      2   0.161583D+00  0.109263D+00  0.261556D+00 -0.165609D+00  0.268745D+00
      3   0.160218D+00  0.108429D+00  0.261223D+00 -0.165567D+00  0.270925D+00
      4   0.239275D+00  0.149609D+00  0.133482D+00 -0.618375D-01 -0.195928D+00
      5   0.238700D+00  0.149384D+00  0.136783D+00 -0.640618D-01 -0.192638D+00
      6   0.230199D+00  0.135020D+00 -0.173768D+00  0.125303D+00 -0.152956D+00
      7   0.231023D+00  0.135664D+00 -0.170889D+00  0.123787D+00 -0.156637D+00
      8   0.137466D+00  0.700873D-01 -0.246957D+00  0.140873D+00  0.284718D+00
      9   0.138827D+00  0.709129D-01 -0.247603D+00  0.141437D+00  0.282793D+00
     10  -0.226759D-02 -0.796078D-02  0.418050D-02 -0.146156D-01 -0.450094D-02
                 6             7             8             9            10 
      1   0.227655D-01  0.154925D-01 -0.173219D-01  0.700683D+00  0.700683D+00
      2   0.156228D+00  0.172467D+00 -0.919948D-01 -0.740464D-01 -0.742498D-01
      3   0.157678D+00  0.175174D+00 -0.935528D-01 -0.741668D-01 -0.743675D-01
      4  -0.138449D+00 -0.301401D+00  0.176427D+00  0.121317D-01  0.133959D-01
      5  -0.136664D+00 -0.302393D+00  0.177153D+00  0.127048D-01  0.139424D-01
      6  -0.709988D-01  0.312714D+00 -0.193906D+00  0.160124D-02 -0.596272D-02
      7  -0.734238D-01  0.311989D+00 -0.193612D+00  0.139542D-02 -0.585073D-02
      8   0.179415D+00 -0.200978D+00  0.135527D+00 -0.207250D-01  0.214378D-01
      9   0.178389D+00 -0.198119D+00  0.133721D+00 -0.206867D-01  0.214085D-01
     10  -0.173668D-01  0.275892D-02 -0.125843D-01  0.198891D+00 -0.198900D+00
                11            12            13            14            15 
      1  -0.143245D+00 -0.143182D+00 -0.157726D-02  0.653315D-03 -0.128145D-02
      2   0.100866D-01  0.980123D-02 -0.599177D+00  0.365509D+00 -0.994211D+00
      3   0.981446D-02  0.969512D-02  0.608443D+00 -0.371092D+00  0.100206D+01
      4  -0.155607D-02  0.317128D-03 -0.949356D+00  0.575421D+00 -0.603682D+00
      5  -0.245382D-02 -0.123471D-02  0.951944D+00 -0.576947D+00  0.588851D+00
      6   0.897998D-02 -0.872600D-02 -0.949413D+00  0.572755D+00  0.599114D+00
      7   0.316877D-02 -0.277850D-02  0.946748D+00 -0.571100D+00 -0.613811D+00
      8  -0.468383D-01  0.468133D-01 -0.601857D+00  0.360183D+00  0.998626D+00
      9  -0.477634D-01  0.477038D-01  0.592541D+00 -0.354517D+00 -0.990632D+00
     10   0.687475D+00 -0.687459D+00  0.225401D-02 -0.177341D-02 -0.179354D-02
                16            17            18            19            20 
      1  -0.546620D-03  0.701799D-03 -0.326428D-03  0.176738D-02  0.826483D-03
      2  -0.602806D+00 -0.103001D+01  0.620887D+00 -0.657444D+00 -0.394677D+00
      3   0.607480D+00  0.102582D+01 -0.618311D+00  0.646248D+00  0.387948D+00
      4  -0.359829D+00  0.646092D+00 -0.395382D+00  0.108435D+01  0.654265D+00
      5   0.350791D+00 -0.663998D+00  0.406141D+00 -0.107944D+01 -0.651254D+00
      6   0.367765D+00  0.654628D+00 -0.390645D+00 -0.108172D+01 -0.655037D+00
      7  -0.376582D+00 -0.636600D+00  0.379682D+00  0.108656D+01  0.657920D+00
      8   0.601784D+00 -0.102956D+01  0.624480D+00  0.651803D+00  0.397126D+00
      9  -0.596867D+00  0.103368D+01 -0.626930D+00 -0.663081D+00 -0.403992D+00
     10  -0.139269D-02 -0.923907D-03  0.694810D-03  0.231138D-02  0.172598D-02
 afr conversion (beta, imaginary):
                 1             2             3             4             5 
      1   0.000000D+00  0.000000D+00  0.000000D+00  0.000000D+00  0.000000D+00
      2   0.000000D+00  0.000000D+00  0.000000D+00  0.000000D+00  0.000000D+00
      3   0.000000D+00  0.000000D+00  0.000000D+00  0.000000D+00  0.000000D+00
      4   0.000000D+00  0.000000D+00  0.000000D+00  0.000000D+00  0.000000D+00
      5   0.000000D+00  0.000000D+00  0.000000D+00  0.000000D+00  0.000000D+00
      6   0.000000D+00  0.000000D+00  0.000000D+00  0.000000D+00  0.000000D+00
      7   0.000000D+00  0.000000D+00  0.000000D+00  0.000000D+00  0.000000D+00
      8   0.000000D+00  0.000000D+00  0.000000D+00  0.000000D+00  0.000000D+00
      9   0.000000D+00  0.000000D+00  0.000000D+00  0.000000D+00  0.000000D+00
     10   0.000000D+00  0.000000D+00  0.000000D+00  0.000000D+00  0.000000D+00
                 6             7             8             9            10 
      1   0.000000D+00  0.000000D+00  0.000000D+00  0.000000D+00  0.000000D+00
      2   0.000000D+00  0.000000D+00  0.000000D+00  0.000000D+00  0.000000D+00
      3   0.000000D+00  0.000000D+00  0.000000D+00  0.000000D+00  0.000000D+00
      4   0.000000D+00  0.000000D+00  0.000000D+00  0.000000D+00  0.000000D+00
      5   0.000000D+00  0.000000D+00  0.000000D+00  0.000000D+00  0.000000D+00
      6   0.000000D+00  0.000000D+00  0.000000D+00  0.000000D+00  0.000000D+00
      7   0.000000D+00  0.000000D+00  0.000000D+00  0.000000D+00  0.000000D+00
      8   0.000000D+00  0.000000D+00  0.000000D+00  0.000000D+00  0.000000D+00
      9   0.000000D+00  0.000000D+00  0.000000D+00  0.000000D+00  0.000000D+00
     10   0.000000D+00  0.000000D+00  0.000000D+00  0.000000D+00  0.000000D+00
                11            12            13            14            15 
      1   0.000000D+00  0.000000D+00  0.000000D+00  0.000000D+00  0.000000D+00
      2   0.000000D+00  0.000000D+00  0.000000D+00  0.000000D+00  0.000000D+00
      3   0.000000D+00  0.000000D+00  0.000000D+00  0.000000D+00  0.000000D+00
      4   0.000000D+00  0.000000D+00  0.000000D+00  0.000000D+00  0.000000D+00
      5   0.000000D+00  0.000000D+00  0.000000D+00  0.000000D+00  0.000000D+00
      6   0.000000D+00  0.000000D+00  0.000000D+00  0.000000D+00  0.000000D+00
      7   0.000000D+00  0.000000D+00  0.000000D+00  0.000000D+00  0.000000D+00
      8   0.000000D+00  0.000000D+00  0.000000D+00  0.000000D+00  0.000000D+00
      9   0.000000D+00  0.000000D+00  0.000000D+00  0.000000D+00  0.000000D+00
     10   0.000000D+00  0.000000D+00  0.000000D+00  0.000000D+00  0.000000D+00
                16            17            18            19            20 
      1   0.000000D+00  0.000000D+00  0.000000D+00  0.000000D+00  0.000000D+00
      2   0.000000D+00  0.000000D+00  0.000000D+00  0.000000D+00  0.000000D+00
      3   0.000000D+00  0.000000D+00  0.000000D+00  0.000000D+00  0.000000D+00
      4   0.000000D+00  0.000000D+00  0.000000D+00  0.000000D+00  0.000000D+00
      5   0.000000D+00  0.000000D+00  0.000000D+00  0.000000D+00  0.000000D+00
      6   0.000000D+00  0.000000D+00  0.000000D+00  0.000000D+00  0.000000D+00
      7   0.000000D+00  0.000000D+00  0.000000D+00  0.000000D+00  0.000000D+00
      8   0.000000D+00  0.000000D+00  0.000000D+00  0.000000D+00  0.000000D+00
      9   0.000000D+00  0.000000D+00  0.000000D+00  0.000000D+00  0.000000D+00
     10   0.000000D+00  0.000000D+00  0.000000D+00  0.000000D+00  0.000000D+00
 jaja in hckghf.F, ISPECT =                     548
Spin block MO for GHF transformation
NOA =   10   NOB =   10
NVA =   10   NVB =   10
 NOAvA in Hack                     100
 jaja in tranN3.F, ISPECT =                     548
 in l802/tranN3.F, LSPECT =                      800
 NMat, NBtSiz,MDV                    8372                   16000
                133954722
 TranN3:  NGot= 134217728 NBasic=    263006 NTTT=       550 NMat=      8372.
 Defined bucket =                      51                   10000
 Defined bucket =                      52                   10000
 Defined bucket =                      53                   10000
 Defined bucket =                      55                   10000
 Defined bucket =                      57                   10000
 Defined bucket =                      58                   10000
 Defined bucket =                      60                   10000
 Defined bucket =                      72                   10000
 Defined bucket =                      73                   10000
 Defined bucket =                      74                   10000
 Defined bucket =                      75                   10000
 Defined bucket =                      76                   10000
 (IK/LS) integrals will be saved in memory.
 TrCghf made   2 passes through the AO integrals.
 jaja DoHack is true or false? F
 jaja in hckghf.F, NBasis=                      10
 jaja in hckGHF/FixOG, LC =                      800
 jaja in hckGHF/FixOG, IRwC=                      548
 bfr conversion (alpha, real):
                 1             2             3             4             5 
      1   0.699868D-02 -0.373456D-02  0.129439D-01  0.682126D-02  0.154586D-01
      2  -0.719836D-01  0.137427D+00 -0.142363D+00 -0.246644D+00 -0.178332D+00
      3  -0.711632D-01  0.136057D+00 -0.141808D+00 -0.245985D+00 -0.179362D+00
      4  -0.135332D+00  0.231727D+00 -0.122941D+00 -0.172252D+00  0.740729D-01
      5  -0.134703D+00  0.230883D+00 -0.124459D+00 -0.175130D+00  0.716419D-01
      6  -0.148765D+00  0.239566D+00  0.632808D-01  0.138108D+00  0.137283D+00
      7  -0.148982D+00  0.240157D+00  0.610629D-01  0.134801D+00  0.139067D+00
      8  -0.108798D+00  0.159237D+00  0.165407D+00  0.260914D+00 -0.156546D+00
      9  -0.109626D+00  0.160611D+00  0.165444D+00  0.261257D+00 -0.155094D+00
     10  -0.107398D-01  0.713246D-02  0.198885D-01  0.131706D-01 -0.246893D-01
                 6             7             8             9            10 
      1  -0.766563D-02  0.112464D-01  0.512138D-02  0.143108D+00  0.143097D+00
      2   0.283453D+00 -0.133233D+00 -0.199296D+00 -0.154977D-01 -0.147892D-01
      3   0.285372D+00 -0.135041D+00 -0.202154D+00 -0.155176D-01 -0.148179D-01
      4  -0.155580D+00  0.194166D+00  0.311245D+00  0.479090D-02  0.422778D-03
      5  -0.151904D+00  0.194465D+00  0.311958D+00  0.485923D-02  0.583113D-03
      6  -0.191601D+00 -0.177391D+00 -0.301830D+00 -0.135078D-01  0.126165D-01
      7  -0.194891D+00 -0.176652D+00 -0.300856D+00 -0.129686D-01  0.120581D-01
      8   0.272231D+00  0.923569D-01  0.176779D+00  0.728833D-01 -0.727360D-01
      9   0.270055D+00  0.908006D-01  0.174072D+00  0.727675D-01 -0.726184D-01
     10   0.165959D-01  0.189443D-01  0.129581D-01 -0.686935D+00  0.686929D+00
                11            12            13            14            15 
      1   0.701221D+00  0.701236D+00  0.171780D-02  0.234566D-02  0.135302D-02
      2  -0.486479D-01 -0.487303D-01  0.354731D+00  0.592194D+00  0.596998D+00
      3  -0.477460D-01 -0.477803D-01 -0.360389D+00 -0.601523D+00 -0.601907D+00
      4   0.276200D-02  0.330433D-02  0.570977D+00  0.946955D+00  0.376388D+00
      5   0.885372D-02  0.920670D-02 -0.572629D+00 -0.949625D+00 -0.367573D+00
      6   0.194155D-02 -0.318506D-02  0.576815D+00  0.952159D+00 -0.350598D+00
      7  -0.943479D-04 -0.181633D-02 -0.575291D+00 -0.949567D+00  0.359634D+00
      8  -0.134972D-01  0.136188D-01  0.371284D+00  0.608118D+00 -0.607583D+00
      9  -0.136754D-01  0.139663D-01 -0.365708D+00 -0.598840D+00  0.602917D+00
     10   0.199018D+00 -0.199082D+00 -0.598354D-03 -0.166852D-02  0.505932D-03
                16            17            18            19            20 
      1  -0.185970D-02 -0.675101D-03 -0.955994D-03 -0.168282D-02  0.238298D-02
      2  -0.990427D+00  0.626820D+00  0.103387D+01  0.403817D+00 -0.663376D+00
      3   0.998432D+00 -0.624371D+00 -0.102975D+01 -0.396955D+00  0.652091D+00
      4  -0.614132D+00 -0.379868D+00 -0.636292D+00 -0.658031D+00  0.108638D+01
      5   0.599433D+00  0.390831D+00  0.654319D+00  0.655145D+00 -0.108155D+01
      6   0.589171D+00 -0.406329D+00 -0.663687D+00  0.651359D+00 -0.107926D+01
      7  -0.604004D+00  0.395569D+00  0.645783D+00 -0.654372D+00  0.108417D+01
      8   0.100188D+01  0.618184D+00  0.102602D+01 -0.387767D+00  0.646542D+00
      9  -0.994017D+00 -0.620759D+00 -0.103021D+01  0.394492D+00 -0.657745D+00
     10  -0.134822D-02  0.307701D-03  0.733292D-03 -0.782950D-03  0.183919D-02
 bfr conversion (alpha, imaginary):
                 1             2             3             4             5 
      1   0.000000D+00  0.000000D+00  0.000000D+00  0.000000D+00  0.000000D+00
      2   0.000000D+00  0.000000D+00  0.000000D+00  0.000000D+00  0.000000D+00
      3   0.000000D+00  0.000000D+00  0.000000D+00  0.000000D+00  0.000000D+00
      4   0.000000D+00  0.000000D+00  0.000000D+00  0.000000D+00  0.000000D+00
      5   0.000000D+00  0.000000D+00  0.000000D+00  0.000000D+00  0.000000D+00
      6   0.000000D+00  0.000000D+00  0.000000D+00  0.000000D+00  0.000000D+00
      7   0.000000D+00  0.000000D+00  0.000000D+00  0.000000D+00  0.000000D+00
      8   0.000000D+00  0.000000D+00  0.000000D+00  0.000000D+00  0.000000D+00
      9   0.000000D+00  0.000000D+00  0.000000D+00  0.000000D+00  0.000000D+00
     10   0.000000D+00  0.000000D+00  0.000000D+00  0.000000D+00  0.000000D+00
                 6             7             8             9            10 
      1   0.000000D+00  0.000000D+00  0.000000D+00  0.000000D+00  0.000000D+00
      2   0.000000D+00  0.000000D+00  0.000000D+00  0.000000D+00  0.000000D+00
      3   0.000000D+00  0.000000D+00  0.000000D+00  0.000000D+00  0.000000D+00
      4   0.000000D+00  0.000000D+00  0.000000D+00  0.000000D+00  0.000000D+00
      5   0.000000D+00  0.000000D+00  0.000000D+00  0.000000D+00  0.000000D+00
      6   0.000000D+00  0.000000D+00  0.000000D+00  0.000000D+00  0.000000D+00
      7   0.000000D+00  0.000000D+00  0.000000D+00  0.000000D+00  0.000000D+00
      8   0.000000D+00  0.000000D+00  0.000000D+00  0.000000D+00  0.000000D+00
      9   0.000000D+00  0.000000D+00  0.000000D+00  0.000000D+00  0.000000D+00
     10   0.000000D+00  0.000000D+00  0.000000D+00  0.000000D+00  0.000000D+00
                11            12            13            14            15 
      1   0.000000D+00  0.000000D+00  0.000000D+00  0.000000D+00  0.000000D+00
      2   0.000000D+00  0.000000D+00  0.000000D+00  0.000000D+00  0.000000D+00
      3   0.000000D+00  0.000000D+00  0.000000D+00  0.000000D+00  0.000000D+00
      4   0.000000D+00  0.000000D+00  0.000000D+00  0.000000D+00  0.000000D+00
      5   0.000000D+00  0.000000D+00  0.000000D+00  0.000000D+00  0.000000D+00
      6   0.000000D+00  0.000000D+00  0.000000D+00  0.000000D+00  0.000000D+00
      7   0.000000D+00  0.000000D+00  0.000000D+00  0.000000D+00  0.000000D+00
      8   0.000000D+00  0.000000D+00  0.000000D+00  0.000000D+00  0.000000D+00
      9   0.000000D+00  0.000000D+00  0.000000D+00  0.000000D+00  0.000000D+00
     10   0.000000D+00  0.000000D+00  0.000000D+00  0.000000D+00  0.000000D+00
                16            17            18            19            20 
      1   0.000000D+00  0.000000D+00  0.000000D+00  0.000000D+00  0.000000D+00
      2   0.000000D+00  0.000000D+00  0.000000D+00  0.000000D+00  0.000000D+00
      3   0.000000D+00  0.000000D+00  0.000000D+00  0.000000D+00  0.000000D+00
      4   0.000000D+00  0.000000D+00  0.000000D+00  0.000000D+00  0.000000D+00
      5   0.000000D+00  0.000000D+00  0.000000D+00  0.000000D+00  0.000000D+00
      6   0.000000D+00  0.000000D+00  0.000000D+00  0.000000D+00  0.000000D+00
      7   0.000000D+00  0.000000D+00  0.000000D+00  0.000000D+00  0.000000D+00
      8   0.000000D+00  0.000000D+00  0.000000D+00  0.000000D+00  0.000000D+00
      9   0.000000D+00  0.000000D+00  0.000000D+00  0.000000D+00  0.000000D+00
     10   0.000000D+00  0.000000D+00  0.000000D+00  0.000000D+00  0.000000D+00
 bfr conversion (beta, real):
                 1             2             3             4             5 
      1   0.845601D-02  0.100149D-01  0.156680D-01 -0.184540D-01  0.197700D-01
      2   0.161583D+00  0.109263D+00  0.261556D+00 -0.165609D+00  0.268745D+00
      3   0.160218D+00  0.108429D+00  0.261223D+00 -0.165567D+00  0.270925D+00
      4   0.239275D+00  0.149609D+00  0.133482D+00 -0.618375D-01 -0.195928D+00
      5   0.238700D+00  0.149384D+00  0.136783D+00 -0.640618D-01 -0.192638D+00
      6   0.230199D+00  0.135020D+00 -0.173768D+00  0.125303D+00 -0.152956D+00
      7   0.231023D+00  0.135664D+00 -0.170889D+00  0.123787D+00 -0.156637D+00
      8   0.137466D+00  0.700873D-01 -0.246957D+00  0.140873D+00  0.284718D+00
      9   0.138827D+00  0.709129D-01 -0.247603D+00  0.141437D+00  0.282793D+00
     10  -0.226759D-02 -0.796078D-02  0.418050D-02 -0.146156D-01 -0.450094D-02
                 6             7             8             9            10 
      1   0.227655D-01  0.154925D-01 -0.173219D-01  0.700683D+00  0.700683D+00
      2   0.156228D+00  0.172467D+00 -0.919948D-01 -0.740464D-01 -0.742498D-01
      3   0.157678D+00  0.175174D+00 -0.935528D-01 -0.741668D-01 -0.743675D-01
      4  -0.138449D+00 -0.301401D+00  0.176427D+00  0.121317D-01  0.133959D-01
      5  -0.136664D+00 -0.302393D+00  0.177153D+00  0.127048D-01  0.139424D-01
      6  -0.709988D-01  0.312714D+00 -0.193906D+00  0.160124D-02 -0.596272D-02
      7  -0.734238D-01  0.311989D+00 -0.193612D+00  0.139542D-02 -0.585073D-02
      8   0.179415D+00 -0.200978D+00  0.135527D+00 -0.207250D-01  0.214378D-01
      9   0.178389D+00 -0.198119D+00  0.133721D+00 -0.206867D-01  0.214085D-01
     10  -0.173668D-01  0.275892D-02 -0.125843D-01  0.198891D+00 -0.198900D+00
                11            12            13            14            15 
      1  -0.143245D+00 -0.143182D+00 -0.157726D-02  0.653315D-03 -0.128145D-02
      2   0.100866D-01  0.980123D-02 -0.599177D+00  0.365509D+00 -0.994211D+00
      3   0.981446D-02  0.969512D-02  0.608443D+00 -0.371092D+00  0.100206D+01
      4  -0.155607D-02  0.317128D-03 -0.949356D+00  0.575421D+00 -0.603682D+00
      5  -0.245382D-02 -0.123471D-02  0.951944D+00 -0.576947D+00  0.588851D+00
      6   0.897998D-02 -0.872600D-02 -0.949413D+00  0.572755D+00  0.599114D+00
      7   0.316877D-02 -0.277850D-02  0.946748D+00 -0.571100D+00 -0.613811D+00
      8  -0.468383D-01  0.468133D-01 -0.601857D+00  0.360183D+00  0.998626D+00
      9  -0.477634D-01  0.477038D-01  0.592541D+00 -0.354517D+00 -0.990632D+00
     10   0.687475D+00 -0.687459D+00  0.225401D-02 -0.177341D-02 -0.179354D-02
                16            17            18            19            20 
      1  -0.546620D-03  0.701799D-03 -0.326428D-03  0.176738D-02  0.826483D-03
      2  -0.602806D+00 -0.103001D+01  0.620887D+00 -0.657444D+00 -0.394677D+00
      3   0.607480D+00  0.102582D+01 -0.618311D+00  0.646248D+00  0.387948D+00
      4  -0.359829D+00  0.646092D+00 -0.395382D+00  0.108435D+01  0.654265D+00
      5   0.350791D+00 -0.663998D+00  0.406141D+00 -0.107944D+01 -0.651254D+00
      6   0.367765D+00  0.654628D+00 -0.390645D+00 -0.108172D+01 -0.655037D+00
      7  -0.376582D+00 -0.636600D+00  0.379682D+00  0.108656D+01  0.657920D+00
      8   0.601784D+00 -0.102956D+01  0.624480D+00  0.651803D+00  0.397126D+00
      9  -0.596867D+00  0.103368D+01 -0.626930D+00 -0.663081D+00 -0.403992D+00
     10  -0.139269D-02 -0.923907D-03  0.694810D-03  0.231138D-02  0.172598D-02
 bfr conversion (beta, imaginary):
                 1             2             3             4             5 
      1   0.000000D+00  0.000000D+00  0.000000D+00  0.000000D+00  0.000000D+00
      2   0.000000D+00  0.000000D+00  0.000000D+00  0.000000D+00  0.000000D+00
      3   0.000000D+00  0.000000D+00  0.000000D+00  0.000000D+00  0.000000D+00
      4   0.000000D+00  0.000000D+00  0.000000D+00  0.000000D+00  0.000000D+00
      5   0.000000D+00  0.000000D+00  0.000000D+00  0.000000D+00  0.000000D+00
      6   0.000000D+00  0.000000D+00  0.000000D+00  0.000000D+00  0.000000D+00
      7   0.000000D+00  0.000000D+00  0.000000D+00  0.000000D+00  0.000000D+00
      8   0.000000D+00  0.000000D+00  0.000000D+00  0.000000D+00  0.000000D+00
      9   0.000000D+00  0.000000D+00  0.000000D+00  0.000000D+00  0.000000D+00
     10   0.000000D+00  0.000000D+00  0.000000D+00  0.000000D+00  0.000000D+00
[...]
      6b 0.178312D+00  0.110936D+00 -0.996630D+00  0.120761D+01 -0.101632D+01
      7a-0.780212D-01 -0.448876D-01  0.526519D+00 -0.498389D+00  0.538147D+00
      7b 0.176110D+00  0.109648D+00 -0.984594D+00  0.119131D+01 -0.100412D+01
      8a 0.271479D-01  0.154909D-01 -0.186709D+00  0.172601D+00 -0.190531D+00
      8b-0.738522D-01 -0.466640D-01  0.411105D+00 -0.492284D+00  0.419340D+00
      9a 0.265180D-01  0.151331D-01 -0.182388D+00  0.168555D+00 -0.186114D+00
      9b-0.723440D-01 -0.457152D-01  0.402725D+00 -0.482200D+00  0.410793D+00
     10a 0.796142D-02  0.424750D-02 -0.536600D-01  0.572123D-01 -0.547412D-01
     10b 0.508482D-02  0.306476D-02 -0.302752D-01  0.344689D-01 -0.308855D-01
                3b            4a            4b            5a            5b
      3b 0.430548D+01
      4a 0.121972D+01  0.251981D+01
      4b-0.270584D+01 -0.324667D+01  0.579967D+01
      5a 0.120376D+01  0.252007D+01 -0.324151D+01  0.252054D+01
      5b-0.268206D+01 -0.325416D+01  0.580338D+01 -0.324924D+01  0.580754D+01
      6a-0.517912D+00 -0.137722D+01  0.142815D+01 -0.139140D+01  0.144843D+01
      6b 0.123552D+01  0.226476D+01 -0.331353D+01  0.228113D+01 -0.334870D+01
      7a-0.510182D+00 -0.136162D+01  0.140714D+01 -0.137584D+01  0.142742D+01
      7b 0.121893D+01  0.224754D+01 -0.327962D+01  0.226404D+01 -0.331491D+01
      8a 0.176432D+00  0.448814D+00 -0.463299D+00  0.455391D+00 -0.470194D+00
      8b-0.503197D+00 -0.957236D+00  0.130826D+01 -0.968599D+00  0.132645D+01
      9a 0.172289D+00  0.437534D+00 -0.451689D+00  0.443988D+00 -0.458414D+00
      9b-0.492879D+00 -0.937895D+00  0.128029D+01 -0.949105D+00  0.129817D+01
     10a 0.584683D-01  0.123122D+00 -0.150453D+00  0.124569D+00 -0.152350D+00
     10b 0.352315D-01  0.705703D-01 -0.915121D-01  0.714341D-01 -0.927745D-01
                6a            6b            7a            7b            8a
      6a 0.242375D+01
      6b-0.319844D+01  0.590433D+01
      7a 0.242154D+01 -0.318980D+01  0.241953D+01
      7b-0.320245D+01  0.590191D+01 -0.319404D+01  0.589995D+01
      8a-0.104977D+01  0.108595D+01 -0.105938D+01  0.110044D+01  0.169395D+01
      8b 0.190651D+01 -0.290653D+01  0.191754D+01 -0.293312D+01 -0.236270D+01
      9a-0.102902D+01  0.105943D+01 -0.103863D+01  0.107384D+01  0.168173D+01
      9b 0.187753D+01 -0.285472D+01  0.188859D+01 -0.288126D+01 -0.234827D+01
     10a-0.227800D+00  0.312398D+00 -0.229566D+00  0.314707D+00  0.220685D+00
     10b-0.140870D+00  0.202577D+00 -0.141835D+00  0.204443D+00  0.170389D+00
                8b            9a            9b           10a           10b
      8b 0.478330D+01
      9a-0.234241D+01  0.166970D+01
      9b 0.474881D+01 -0.232823D+01  0.471481D+01
     10a-0.475306D+00  0.218264D+00 -0.471733D+00  0.671971D+00
     10b-0.339824D+00  0.168871D+00 -0.337408D+00  0.148498D+00  0.452678D-01
 jaja lower-tri density matrix (imaginary):
                1a            1b            2a            2b            3a
      1a 0.000000D+00
      1b 0.000000D+00  0.000000D+00
      2a 0.000000D+00  0.000000D+00  0.000000D+00
      2b 0.000000D+00  0.000000D+00  0.000000D+00  0.000000D+00
      3a 0.000000D+00  0.000000D+00  0.000000D+00  0.000000D+00  0.000000D+00
      3b 0.000000D+00  0.000000D+00  0.000000D+00  0.000000D+00  0.000000D+00
      4a 0.000000D+00  0.000000D+00  0.000000D+00  0.000000D+00  0.000000D+00
      4b 0.000000D+00  0.000000D+00  0.000000D+00  0.000000D+00  0.000000D+00
      5a 0.000000D+00  0.000000D+00  0.000000D+00  0.000000D+00  0.000000D+00
      5b 0.000000D+00  0.000000D+00  0.000000D+00  0.000000D+00  0.000000D+00
      6a 0.000000D+00  0.000000D+00  0.000000D+00  0.000000D+00  0.000000D+00
      6b 0.000000D+00  0.000000D+00  0.000000D+00  0.000000D+00  0.000000D+00
      7a 0.000000D+00  0.000000D+00  0.000000D+00  0.000000D+00  0.000000D+00
      7b 0.000000D+00  0.000000D+00  0.000000D+00  0.000000D+00  0.000000D+00
      8a 0.000000D+00  0.000000D+00  0.000000D+00  0.000000D+00  0.000000D+00
      8b 0.000000D+00  0.000000D+00  0.000000D+00  0.000000D+00  0.000000D+00
      9a 0.000000D+00  0.000000D+00  0.000000D+00  0.000000D+00  0.000000D+00
      9b 0.000000D+00  0.000000D+00  0.000000D+00  0.000000D+00  0.000000D+00
     10a 0.000000D+00  0.000000D+00  0.000000D+00  0.000000D+00  0.000000D+00
     10b 0.000000D+00  0.000000D+00  0.000000D+00  0.000000D+00  0.000000D+00
                3b            4a            4b            5a            5b
      3b 0.000000D+00
      4a 0.000000D+00  0.000000D+00
      4b 0.000000D+00  0.000000D+00  0.000000D+00
      5a 0.000000D+00  0.000000D+00  0.000000D+00  0.000000D+00
      5b 0.000000D+00  0.000000D+00  0.000000D+00  0.000000D+00  0.000000D+00
      6a 0.000000D+00  0.000000D+00  0.000000D+00  0.000000D+00  0.000000D+00
      6b 0.000000D+00  0.000000D+00  0.000000D+00  0.000000D+00  0.000000D+00
      7a 0.000000D+00  0.000000D+00  0.000000D+00  0.000000D+00  0.000000D+00
      7b 0.000000D+00  0.000000D+00  0.000000D+00  0.000000D+00  0.000000D+00
      8a 0.000000D+00  0.000000D+00  0.000000D+00  0.000000D+00  0.000000D+00
      8b 0.000000D+00  0.000000D+00  0.000000D+00  0.000000D+00  0.000000D+00
      9a 0.000000D+00  0.000000D+00  0.000000D+00  0.000000D+00  0.000000D+00
      9b 0.000000D+00  0.000000D+00  0.000000D+00  0.000000D+00  0.000000D+00
     10a 0.000000D+00  0.000000D+00  0.000000D+00  0.000000D+00  0.000000D+00
     10b 0.000000D+00  0.000000D+00  0.000000D+00  0.000000D+00  0.000000D+00
                6a            6b            7a            7b            8a
      6a 0.000000D+00
      6b 0.000000D+00  0.000000D+00
      7a 0.000000D+00  0.000000D+00  0.000000D+00
      7b 0.000000D+00  0.000000D+00  0.000000D+00  0.000000D+00
      8a 0.000000D+00  0.000000D+00  0.000000D+00  0.000000D+00  0.000000D+00
      8b 0.000000D+00  0.000000D+00  0.000000D+00  0.000000D+00  0.000000D+00
      9a 0.000000D+00  0.000000D+00  0.000000D+00  0.000000D+00  0.000000D+00
      9b 0.000000D+00  0.000000D+00  0.000000D+00  0.000000D+00  0.000000D+00
     10a 0.000000D+00  0.000000D+00  0.000000D+00  0.000000D+00  0.000000D+00
     10b 0.000000D+00  0.000000D+00  0.000000D+00  0.000000D+00  0.000000D+00
                8b            9a            9b           10a           10b
      8b 0.000000D+00
      9a 0.000000D+00  0.000000D+00
      9b 0.000000D+00  0.000000D+00  0.000000D+00
     10a 0.000000D+00  0.000000D+00  0.000000D+00  0.000000D+00
     10b 0.000000D+00  0.000000D+00  0.000000D+00  0.000000D+00  0.000000D+00
 jaja non-ortho density matrix               [Gau-style] (real):
                 1             2             3             4             5 
      1a  0.302688D+00  0.342179D+00 -0.341979D+00  0.462847D+00 -0.344196D+00
      1b  0.342179D+00  0.414458D+00 -0.177690D+00  0.222902D+00 -0.178829D+00
      2a -0.341979D+00 -0.177690D+00  0.214119D+01 -0.257567D+01  0.215637D+01
      2b  0.462847D+00  0.222902D+00 -0.257567D+01  0.424330D+01 -0.259150D+01
      3a -0.344196D+00 -0.178829D+00  0.215637D+01 -0.259150D+01  0.217176D+01
      3b  0.466799D+00  0.225125D+00 -0.259736D+01  0.427416D+01 -0.261346D+01
      4a  0.181827D+00  0.987961D-01 -0.126437D+01  0.119232D+01 -0.128666D+01
      4b -0.357696D+00 -0.206987D+00  0.200706D+01 -0.265551D+01  0.203681D+01
      5a  0.180192D+00  0.982715D-01 -0.125198D+01  0.117644D+01 -0.127424D+01
      5b -0.354946D+00 -0.205453D+00  0.199454D+01 -0.263176D+01  0.202431D+01
      6a -0.791236D-01 -0.454471D-01  0.534547D+00 -0.505941D+00  0.546314D+00
      6b  0.178312D+00  0.110936D+00 -0.996630D+00  0.120761D+01 -0.101632D+01
      7a -0.780212D-01 -0.448876D-01  0.526519D+00 -0.498389D+00  0.538147D+00
      7b  0.176110D+00  0.109648D+00 -0.984594D+00  0.119131D+01 -0.100412D+01
      8a  0.271479D-01  0.154909D-01 -0.186709D+00  0.172601D+00 -0.190531D+00
      8b -0.738522D-01 -0.466640D-01  0.411105D+00 -0.492284D+00  0.419340D+00
      9a  0.265180D-01  0.151331D-01 -0.182388D+00  0.168555D+00 -0.186114D+00
      9b -0.723440D-01 -0.457152D-01  0.402725D+00 -0.482200D+00  0.410793D+00
     10a  0.796142D-02  0.424750D-02 -0.536600D-01  0.572123D-01 -0.547412D-01
     10b  0.508482D-02  0.306476D-02 -0.302752D-01  0.344689D-01 -0.308855D-01
                 6             7             8             9            10 
      1a  0.466799D+00  0.181827D+00 -0.357696D+00  0.180192D+00 -0.354946D+00
      1b  0.225125D+00  0.987961D-01 -0.206987D+00  0.982715D-01 -0.205453D+00
      2a -0.259736D+01 -0.126437D+01  0.200706D+01 -0.125198D+01  0.199454D+01
      2b  0.427416D+01  0.119232D+01 -0.265551D+01  0.117644D+01 -0.263176D+01
      3a -0.261346D+01 -0.128666D+01  0.203681D+01 -0.127424D+01  0.202431D+01
      3b  0.430548D+01  0.121972D+01 -0.270584D+01  0.120376D+01 -0.268206D+01
      4a  0.121972D+01  0.251981D+01 -0.324667D+01  0.252007D+01 -0.325416D+01
      4b -0.270584D+01 -0.324667D+01  0.579967D+01 -0.324151D+01  0.580338D+01
      5a  0.120376D+01  0.252007D+01 -0.324151D+01  0.252054D+01 -0.324924D+01
      5b -0.268206D+01 -0.325416D+01  0.580338D+01 -0.324924D+01  0.580754D+01
      6a -0.517912D+00 -0.137722D+01  0.142815D+01 -0.139140D+01  0.144843D+01
      6b  0.123552D+01  0.226476D+01 -0.331353D+01  0.228113D+01 -0.334870D+01
      7a -0.510182D+00 -0.136162D+01  0.140714D+01 -0.137584D+01  0.142742D+01
      7b  0.121893D+01  0.224754D+01 -0.327962D+01  0.226404D+01 -0.331491D+01
      8a  0.176432D+00  0.448814D+00 -0.463299D+00  0.455391D+00 -0.470194D+00
      8b -0.503197D+00 -0.957236D+00  0.130826D+01 -0.968599D+00  0.132645D+01
      9a  0.172289D+00  0.437534D+00 -0.451689D+00  0.443988D+00 -0.458414D+00
      9b -0.492879D+00 -0.937895D+00  0.128029D+01 -0.949105D+00  0.129817D+01
     10a  0.584683D-01  0.123122D+00 -0.150453D+00  0.124569D+00 -0.152350D+00
     10b  0.352315D-01  0.705703D-01 -0.915121D-01  0.714341D-01 -0.927745D-01
                11            12            13            14            15 
      1a -0.791236D-01  0.178312D+00 -0.780212D-01  0.176110D+00  0.271479D-01
      1b -0.454471D-01  0.110936D+00 -0.448876D-01  0.109648D+00  0.154909D-01
      2a  0.534547D+00 -0.996630D+00  0.526519D+00 -0.984594D+00 -0.186709D+00
      2b -0.505941D+00  0.120761D+01 -0.498389D+00  0.119131D+01  0.172601D+00
      3a  0.546314D+00 -0.101632D+01  0.538147D+00 -0.100412D+01 -0.190531D+00
      3b -0.517912D+00  0.123552D+01 -0.510182D+00  0.121893D+01  0.176432D+00
      4a -0.137722D+01  0.226476D+01 -0.136162D+01  0.224754D+01  0.448814D+00
      4b  0.142815D+01 -0.331353D+01  0.140714D+01 -0.327962D+01 -0.463299D+00
      5a -0.139140D+01  0.228113D+01 -0.137584D+01  0.226404D+01  0.455391D+00
      5b  0.144843D+01 -0.334870D+01  0.142742D+01 -0.331491D+01 -0.470194D+00
      6a  0.242375D+01 -0.319844D+01  0.242154D+01 -0.320245D+01 -0.104977D+01
      6b -0.319844D+01  0.590433D+01 -0.318980D+01  0.590191D+01  0.108595D+01
      7a  0.242154D+01 -0.318980D+01  0.241953D+01 -0.319404D+01 -0.105938D+01
      7b -0.320245D+01  0.590191D+01 -0.319404D+01  0.589995D+01  0.110044D+01
      8a -0.104977D+01  0.108595D+01 -0.105938D+01  0.110044D+01  0.169395D+01
      8b  0.190651D+01 -0.290653D+01  0.191754D+01 -0.293312D+01 -0.236270D+01
      9a -0.102902D+01  0.105943D+01 -0.103863D+01  0.107384D+01  0.168173D+01
      9b  0.187753D+01 -0.285472D+01  0.188859D+01 -0.288126D+01 -0.234827D+01
     10a -0.227800D+00  0.312398D+00 -0.229566D+00  0.314707D+00  0.220685D+00
     10b -0.140870D+00  0.202577D+00 -0.141835D+00  0.204443D+00  0.170389D+00
                16            17            18            19            20 
      1a -0.738522D-01  0.265180D-01 -0.723440D-01  0.796142D-02  0.508482D-02
      1b -0.466640D-01  0.151331D-01 -0.457152D-01  0.424750D-02  0.306476D-02
      2a  0.411105D+00 -0.182388D+00  0.402725D+00 -0.536600D-01 -0.302752D-01
      2b -0.492284D+00  0.168555D+00 -0.482200D+00  0.572123D-01  0.344689D-01
      3a  0.419340D+00 -0.186114D+00  0.410793D+00 -0.547412D-01 -0.308855D-01
      3b -0.503197D+00  0.172289D+00 -0.492879D+00  0.584683D-01  0.352315D-01
      4a -0.957236D+00  0.437534D+00 -0.937895D+00  0.123122D+00  0.705703D-01
      4b  0.130826D+01 -0.451689D+00  0.128029D+01 -0.150453D+00 -0.915121D-01
      5a -0.968599D+00  0.443988D+00 -0.949105D+00  0.124569D+00  0.714341D-01
      5b  0.132645D+01 -0.458414D+00  0.129817D+01 -0.152350D+00 -0.927745D-01
      6a  0.190651D+01 -0.102902D+01  0.187753D+01 -0.227800D+00 -0.140870D+00
      6b -0.290653D+01  0.105943D+01 -0.285472D+01  0.312398D+00  0.202577D+00
      7a  0.191754D+01 -0.103863D+01  0.188859D+01 -0.229566D+00 -0.141835D+00
      7b -0.293312D+01  0.107384D+01 -0.288126D+01  0.314707D+00  0.204443D+00
      8a -0.236270D+01  0.168173D+01 -0.234827D+01  0.220685D+00  0.170389D+00
      8b  0.478330D+01 -0.234241D+01  0.474881D+01 -0.475306D+00 -0.339824D+00
      9a -0.234241D+01  0.166970D+01 -0.232823D+01  0.218264D+00  0.168871D+00
      9b  0.474881D+01 -0.232823D+01  0.471481D+01 -0.471733D+00 -0.337408D+00
     10a -0.475306D+00  0.218264D+00 -0.471733D+00  0.671971D+00  0.148498D+00
     10b -0.339824D+00  0.168871D+00 -0.337408D+00  0.148498D+00  0.452678D-01
 jaja non-ortho density matrix               [Gau-style] (imaginary):
                 1             2             3             4             5 
      1a  0.000000D+00  0.000000D+00  0.000000D+00  0.000000D+00  0.000000D+00
      1b  0.000000D+00  0.000000D+00  0.000000D+00  0.000000D+00  0.000000D+00
      2a  0.000000D+00  0.000000D+00  0.000000D+00  0.000000D+00  0.000000D+00
      2b  0.000000D+00  0.000000D+00  0.000000D+00  0.000000D+00  0.000000D+00
      3a  0.000000D+00  0.000000D+00  0.000000D+00  0.000000D+00  0.000000D+00
      3b  0.000000D+00  0.000000D+00  0.000000D+00  0.000000D+00  0.000000D+00
      4a  0.000000D+00  0.000000D+00  0.000000D+00  0.000000D+00  0.000000D+00
      4b  0.000000D+00  0.000000D+00  0.000000D+00  0.000000D+00  0.000000D+00
      5a  0.000000D+00  0.000000D+00  0.000000D+00  0.000000D+00  0.000000D+00
      5b  0.000000D+00  0.000000D+00  0.000000D+00  0.000000D+00  0.000000D+00
      6a  0.000000D+00  0.000000D+00  0.000000D+00  0.000000D+00  0.000000D+00
      6b  0.000000D+00  0.000000D+00  0.000000D+00  0.000000D+00  0.000000D+00
      7a  0.000000D+00  0.000000D+00  0.000000D+00  0.000000D+00  0.000000D+00
      7b  0.000000D+00  0.000000D+00  0.000000D+00  0.000000D+00  0.000000D+00
      8a  0.000000D+00  0.000000D+00  0.000000D+00  0.000000D+00  0.000000D+00
      8b  0.000000D+00  0.000000D+00  0.000000D+00  0.000000D+00  0.000000D+00
      9a  0.000000D+00  0.000000D+00  0.000000D+00  0.000000D+00  0.000000D+00
      9b  0.000000D+00  0.000000D+00  0.000000D+00  0.000000D+00  0.000000D+00
     10a  0.000000D+00  0.000000D+00  0.000000D+00  0.000000D+00  0.000000D+00
     10b  0.000000D+00  0.000000D+00  0.000000D+00  0.000000D+00  0.000000D+00
                 6             7             8             9            10 
      1a  0.000000D+00  0.000000D+00  0.000000D+00  0.000000D+00  0.000000D+00
      1b  0.000000D+00  0.000000D+00  0.000000D+00  0.000000D+00  0.000000D+00
      2a  0.000000D+00  0.000000D+00  0.000000D+00  0.000000D+00  0.000000D+00
      2b  0.000000D+00  0.000000D+00  0.000000D+00  0.000000D+00  0.000000D+00
      3a  0.000000D+00  0.000000D+00  0.000000D+00  0.000000D+00  0.000000D+00
      3b  0.000000D+00  0.000000D+00  0.000000D+00  0.000000D+00  0.000000D+00
      4a  0.000000D+00  0.000000D+00  0.000000D+00  0.000000D+00  0.000000D+00
      4b  0.000000D+00  0.000000D+00  0.000000D+00  0.000000D+00  0.000000D+00
      5a  0.000000D+00  0.000000D+00  0.000000D+00  0.000000D+00  0.000000D+00
      5b  0.000000D+00  0.000000D+00  0.000000D+00  0.000000D+00  0.000000D+00
      6a  0.000000D+00  0.000000D+00  0.000000D+00  0.000000D+00  0.000000D+00
      6b  0.000000D+00  0.000000D+00  0.000000D+00  0.000000D+00  0.000000D+00
      7a  0.000000D+00  0.000000D+00  0.000000D+00  0.000000D+00  0.000000D+00
      7b  0.000000D+00  0.000000D+00  0.000000D+00  0.000000D+00  0.000000D+00
      8a  0.000000D+00  0.000000D+00  0.000000D+00  0.000000D+00  0.000000D+00
      8b  0.000000D+00  0.000000D+00  0.000000D+00  0.000000D+00  0.000000D+00
      9a  0.000000D+00  0.000000D+00  0.000000D+00  0.000000D+00  0.000000D+00
      9b  0.000000D+00  0.000000D+00  0.000000D+00  0.000000D+00  0.000000D+00
     10a  0.000000D+00  0.000000D+00  0.000000D+00  0.000000D+00  0.000000D+00
     10b  0.000000D+00  0.000000D+00  0.000000D+00  0.000000D+00  0.000000D+00
                11            12            13            14            15 
      1a  0.000000D+00  0.000000D+00  0.000000D+00  0.000000D+00  0.000000D+00
      1b  0.000000D+00  0.000000D+00  0.000000D+00  0.000000D+00  0.000000D+00
      2a  0.000000D+00  0.000000D+00  0.000000D+00  0.000000D+00  0.000000D+00
      2b  0.000000D+00  0.000000D+00  0.000000D+00  0.000000D+00  0.000000D+00
      3a  0.000000D+00  0.000000D+00  0.000000D+00  0.000000D+00  0.000000D+00
      3b  0.000000D+00  0.000000D+00  0.000000D+00  0.000000D+00  0.000000D+00
      4a  0.000000D+00  0.000000D+00  0.000000D+00  0.000000D+00  0.000000D+00
      4b  0.000000D+00  0.000000D+00  0.000000D+00  0.000000D+00  0.000000D+00
      5a  0.000000D+00  0.000000D+00  0.000000D+00  0.000000D+00  0.000000D+00
      5b  0.000000D+00  0.000000D+00  0.000000D+00  0.000000D+00  0.000000D+00
      6a  0.000000D+00  0.000000D+00  0.000000D+00  0.000000D+00  0.000000D+00
      6b  0.000000D+00  0.000000D+00  0.000000D+00  0.000000D+00  0.000000D+00
      7a  0.000000D+00  0.000000D+00  0.000000D+00  0.000000D+00  0.000000D+00
      7b  0.000000D+00  0.000000D+00  0.000000D+00  0.000000D+00  0.000000D+00
      8a  0.000000D+00  0.000000D+00  0.000000D+00  0.000000D+00  0.000000D+00
      8b  0.000000D+00  0.000000D+00  0.000000D+00  0.000000D+00  0.000000D+00
      9a  0.000000D+00  0.000000D+00  0.000000D+00  0.000000D+00  0.000000D+00
      9b  0.000000D+00  0.000000D+00  0.000000D+00  0.000000D+00  0.000000D+00
     10a  0.000000D+00  0.000000D+00  0.000000D+00  0.000000D+00  0.000000D+00
     10b  0.000000D+00  0.000000D+00  0.000000D+00  0.000000D+00  0.000000D+00
                16            17            18            19            20 
      1a  0.000000D+00  0.000000D+00  0.000000D+00  0.000000D+00  0.000000D+00
      1b  0.000000D+00  0.000000D+00  0.000000D+00  0.000000D+00  0.000000D+00
      2a  0.000000D+00  0.000000D+00  0.000000D+00  0.000000D+00  0.000000D+00
      2b  0.000000D+00  0.000000D+00  0.000000D+00  0.000000D+00  0.000000D+00
      3a  0.000000D+00  0.000000D+00  0.000000D+00  0.000000D+00  0.000000D+00
      3b  0.000000D+00  0.000000D+00  0.000000D+00  0.000000D+00  0.000000D+00
      4a  0.000000D+00  0.000000D+00  0.000000D+00  0.000000D+00  0.000000D+00
      4b  0.000000D+00  0.000000D+00  0.000000D+00  0.000000D+00  0.000000D+00
      5a  0.000000D+00  0.000000D+00  0.000000D+00  0.000000D+00  0.000000D+00
      5b  0.000000D+00  0.000000D+00  0.000000D+00  0.000000D+00  0.000000D+00
      6a  0.000000D+00  0.000000D+00  0.000000D+00  0.000000D+00  0.000000D+00
      6b  0.000000D+00  0.000000D+00  0.000000D+00  0.000000D+00  0.000000D+00
      7a  0.000000D+00  0.000000D+00  0.000000D+00  0.000000D+00  0.000000D+00
      7b  0.000000D+00  0.000000D+00  0.000000D+00  0.000000D+00  0.000000D+00
      8a  0.000000D+00  0.000000D+00  0.000000D+00  0.000000D+00  0.000000D+00
      8b  0.000000D+00  0.000000D+00  0.000000D+00  0.000000D+00  0.000000D+00
      9a  0.000000D+00  0.000000D+00  0.000000D+00  0.000000D+00  0.000000D+00
      9b  0.000000D+00  0.000000D+00  0.000000D+00  0.000000D+00  0.000000D+00
     10a  0.000000D+00  0.000000D+00  0.000000D+00  0.000000D+00  0.000000D+00
     10b  0.000000D+00  0.000000D+00  0.000000D+00  0.000000D+00  0.000000D+00
FORTRAN STOP
