 Entering Gaussian System, Link 0=g09
 AtFile(1): H.gbs
            H     0
            S   10   1.00
               1000.000000000000            0.000068713567
                316.227766000000            0.000169141320
                100.000000000000            0.000823394812
                 31.622776600000            0.003425569236
                 10.000000000000            0.013951996000
                  3.162277660000            0.056909313560
                  1.000000000000            0.198286399900
                  0.316227766000            0.496922426700
                  0.100000000000            0.369846276400
                  0.031622776600            0.003752720039
            ****
 Initial command:
 /projects/guscus/apps/gau/g09-e1/g09/l1.exe "/users/lcj1/gaussian/h8/rows/stable/zmatrix/fwd/Gau-25796.inp" -scrdir="/users/lcj1/gaussian/h8/rows/stable/zmatrix/fwd/"
 Entering Link 1 = /projects/guscus/apps/gau/g09-e1/g09/l1.exe PID=     25797.
  
 Copyright (c) 1988,1990,1992,1993,1995,1998,2003,2009,2015,
            Gaussian, Inc.  All Rights Reserved.
  
 This is part of the Gaussian(R) 09 program.  It is based on
 the Gaussian(R) 03 system (copyright 2003, Gaussian, Inc.),
 the Gaussian(R) 98 system (copyright 1998, Gaussian, Inc.),
 the Gaussian(R) 94 system (copyright 1995, Gaussian, Inc.),
 the Gaussian 92(TM) system (copyright 1992, Gaussian, Inc.),
 the Gaussian 90(TM) system (copyright 1990, Gaussian, Inc.),
 the Gaussian 88(TM) system (copyright 1988, Gaussian, Inc.),
 the Gaussian 86(TM) system (copyright 1986, Carnegie Mellon
 University), and the Gaussian 82(TM) system (copyright 1983,
 Carnegie Mellon University). Gaussian is a federally registered
 trademark of Gaussian, Inc.
  
 This software contains proprietary and confidential information,
 including trade secrets, belonging to Gaussian, Inc.
  
 This software is provided under written license and may be
 used, copied, transmitted, or stored only in accord with that
 written license.
  
 The following legend is applicable only to US Government
 contracts under FAR:
  
                    RESTRICTED RIGHTS LEGEND
  
 Use, reproduction and disclosure by the US Government is
 subject to restrictions as set forth in subparagraphs (a)
 and (c) of the Commercial Computer Software - Restricted
 Rights clause in FAR 52.227-19.
  
 Gaussian, Inc.
 340 Quinnipiac St., Bldg. 40, Wallingford CT 06492
  
  
 ---------------------------------------------------------------
 Warning -- This program may not be used in any manner that
 competes with the business of Gaussian, Inc. or will provide
 assistance to any competitor of Gaussian, Inc.  The licensee
 of this program is prohibited from giving any competitor of
 Gaussian, Inc. access to this program.  By using this program,
 the user acknowledges that Gaussian, Inc. is engaged in the
 business of creating and licensing software in the field of
 computational chemistry and represents and warrants to the
 licensee that it is not a competitor of Gaussian, Inc. and that
 it will not use this program in any manner prohibited above.
 ---------------------------------------------------------------
  

 Cite this work as:
 Gaussian 09, Revision E.01,
 M. J. Frisch, G. W. Trucks, H. B. Schlegel, G. E. Scuseria, 
 M. A. Robb, J. R. Cheeseman, G. Scalmani, V. Barone, B. Mennucci, 
 G. A. Petersson, H. Nakatsuji, M. Caricato, X. Li, H. P. Hratchian, 
 A. F. Izmaylov, J. Bloino, G. Zheng, J. L. Sonnenberg, M. Hada, 
 M. Ehara, K. Toyota, R. Fukuda, J. Hasegawa, M. Ishida, T. Nakajima, 
 Y. Honda, O. Kitao, H. Nakai, T. Vreven, J. A. Montgomery, Jr., 
 J. E. Peralta, F. Ogliaro, M. Bearpark, J. J. Heyd, E. Brothers, 
 K. N. Kudin, V. N. Staroverov, T. Keith, R. Kobayashi, J. Normand, 
 K. Raghavachari, A. Rendell, J. C. Burant, S. S. Iyengar, J. Tomasi, 
 M. Cossi, N. Rega, J. M. Millam, M. Klene, J. E. Knox, J. B. Cross, 
 V. Bakken, C. Adamo, J. Jaramillo, R. Gomperts, R. E. Stratmann, 
 O. Yazyev, A. J. Austin, R. Cammi, C. Pomelli, J. W. Ochterski, 
 R. L. Martin, K. Morokuma, V. G. Zakrzewski, G. A. Voth, 
 P. Salvador, J. J. Dannenberg, S. Dapprich, A. D. Daniels, 
 O. Farkas, J. B. Foresman, J. V. Ortiz, J. Cioslowski, 
 and D. J. Fox, Gaussian, Inc., Wallingford CT, 2013.
 
 ******************************************
 Gaussian 09:  ES64L-G09RevE.01 30-Nov-2015
                 9-Feb-2017 
 ******************************************
 %chk=h10.chk
 ----------------------------------------------------------------------
 #rhf/gen scf(symm,tight,novaracc,noincfock,fulldiag) stable(crhf) geom
 =nocrowd test
 ----------------------------------------------------------------------
 1/38=1/1;
 2/12=1,17=6,18=5,40=1/2;
 3/5=7,16=1,25=1,30=1,116=1/1,2,3;
 4/9=4/1;
 5/5=100002,15=2,16=1,32=2,38=1/2;
 8/6=1,10=90,11=11/1,4;
 9/8=4,13=1/2;
 6/7=2,8=2,9=2,10=2,28=1/1;
 99/5=1,9=1/99;
 ----------------------------------------------------------------------
 hf stability analysis of h10 triangular lattice, y= 0.9870686609978258
 6
 ----------------------------------------------------------------------
 Symbolic Z-matrix:
 Charge =  0 Multiplicity = 1
 H
 H                    1     1.14736 
 H                    1     1.14736  2     61.3 
 H                    2     1.14736  1     118.7    3     0.       0
 H                    3     1.14736  1     180.     2     0.       0
 H                    4     1.14736  2     180.     1     0.       0
 H                    5     1.14736  3     180.     2     0.       0
 H                    6     1.14736  4     180.     1     0.       0
 
                          Input orientation:                          
 ---------------------------------------------------------------------
 Center     Atomic      Atomic             Coordinates (Angstroms)
 Number     Number       Type             X           Y           Z
 ---------------------------------------------------------------------
      1          1           0        0.000000    0.000000    0.000000
      2          1           0        0.000000    0.000000    1.147357
      3          1           0        1.006400    0.000000    0.550988
      4          1           0        1.006400    0.000000    1.698345
      5          1           0        2.012800    0.000000    1.101976
      6          1           0        2.012800    0.000000    2.249333
      7          1           0        3.019200    0.000000    1.652964
      8          1           0        3.019200    0.000000    2.800321
 ---------------------------------------------------------------------
                    Distance matrix (angstroms):
                    1          2          3          4          5
     1  H    0.000000
     2  H    1.147357   0.000000
     3  H    1.147357   1.169828   0.000000
     4  H    1.974137   1.147357   1.147357   0.000000
     5  H    2.294715   2.013312   1.147357   1.169828   0.000000
     6  H    3.018421   2.294715   1.974137   1.147357   1.147357
     7  H    3.442072   3.061243   2.294715   2.013312   1.147357
     8  H    4.117933   3.442072   3.018421   2.294715   1.974137
                    6          7          8
     6  H    0.000000
     7  H    1.169828   0.000000
     8  H    1.147357   1.147357   0.000000
 Stoichiometry    H8
 Framework group  C2H[SGH(H8)]
 Deg. of freedom     7
 Full point group                 C2H     NOp   4
 Largest Abelian subgroup         C2H     NOp   4
 Largest concise Abelian subgroup C2      NOp   2
                         Standard orientation:                         
 ---------------------------------------------------------------------
 Center     Atomic      Atomic             Coordinates (Angstroms)
 Number     Number       Type             X           Y           Z
 ---------------------------------------------------------------------
      1          1           0        1.974137    0.584914    0.000000
      2          1           0        0.987069    1.169828    0.000000
      3          1           0        0.987069    0.000000    0.000000
      4          1           0        0.000000    0.584914   -0.000000
      5          1           0       -0.000000   -0.584914    0.000000
      6          1           0       -0.987069    0.000000    0.000000
      7          1           0       -0.987069   -1.169828    0.000000
      8          1           0       -1.974137   -0.584914    0.000000
 ---------------------------------------------------------------------
 Rotational constants (GHZ):    260.9182510     36.1402279     31.7433964
 General basis read from cards:  (5D, 7F)
 There are     4 symmetry adapted cartesian basis functions of AG  symmetry.
 There are     0 symmetry adapted cartesian basis functions of BG  symmetry.
 There are     0 symmetry adapted cartesian basis functions of AU  symmetry.
 There are     4 symmetry adapted cartesian basis functions of BU  symmetry.
 There are     4 symmetry adapted basis functions of AG  symmetry.
 There are     0 symmetry adapted basis functions of BG  symmetry.
 There are     0 symmetry adapted basis functions of AU  symmetry.
 There are     4 symmetry adapted basis functions of BU  symmetry.
     8 basis functions,    80 primitive gaussians,     8 cartesian basis functions
     4 alpha electrons        4 beta electrons
       nuclear repulsion energy         9.1809513112 Hartrees.
 NAtoms=    8 NActive=    8 NUniq=    4 SFac= 4.00D+00 NAtFMM=   60 NAOKFM=F Big=F
 Integral buffers will be    131072 words long.
 Regular integral format.
 Two-electron integral symmetry is turned on.
 One-electron integrals computed using PRISM.
 NBasis=     8 RedAO= T EigKep=  1.98D-01  NBF=     4     0     0     4
 NBsUse=     8 1.00D-06 EigRej= -1.00D+00 NBFU=     4     0     0     4
 ExpMin= 3.16D-02 ExpMax= 1.00D+03 ExpMxC= 1.00D+01 IAcc=3 IRadAn=         5 AccDes= 0.00D+00
 Harris functional with IExCor=  205 and IRadAn=       5 diagonalized for initial guess.
 HarFok:  IExCor=  205 AccDes= 0.00D+00 IRadAn=         5 IDoV= 1 UseB2=F ITyADJ=14
 ICtDFT=  3500011 ScaDFX=  1.000000  1.000000  1.000000  1.000000
 FoFCou: FMM=F IPFlag=           0 FMFlag=      100000 FMFlg1=           0
         NFxFlg=           0 DoJE=T BraDBF=F KetDBF=T FulRan=T
         wScrn=  0.000000 ICntrl=     500 IOpCl=  0 I1Cent=   200000004 NGrid=           0
         NMat0=    1 NMatS0=      1 NMatT0=    0 NMatD0=    1 NMtDS0=    0 NMtDT0=    0
 Petite list used in FoFCou.
 Initial guess orbital symmetries:
       Occupied  (AG) (BU) (AG) (BU)
       Virtual   (AG) (BU) (BU) (AG)
 The electronic state of the initial guess is 1-AG.
 Keep R1 ints in memory in symmetry-blocked form, NReq=861065.
 Requested convergence on RMS density matrix=1.00D-08 within 128 cycles.
 Requested convergence on MAX density matrix=1.00D-06.
 Requested convergence on             energy=1.00D-06.
 No special actions if energy rises.
 SCF Done:  E(RHF) =  -3.95639172546     A.U. after    9 cycles
            NFock=  9  Conv=0.37D-08     -V/T= 2.0117
 Range of M.O.s used for correlation:     1     8
 NBasis=     8 NAE=     4 NBE=     4 NFC=     0 NFV=     0
 NROrb=      8 NOA=     4 NOB=     4 NVA=     4 NVB=     4
 Semi-Direct transformation.
 ModeAB=           4 MOrb=             4 LenV=     134124363
 LASXX=          409 LTotXX=         409 LenRXX=        1025
 LTotAB=         616 MaxLAS=         640 LenRXY=           0
 NonZer=        1434 LenScr=      655360 LnRSAI=         640
 LnScr1=      655360 LExtra=           0 Total=      1312385
 MaxDsk=          -1 SrtSym=           T ITran=            3
 JobTyp=0 Pass  1:  I=   1 to   4.
 (rs|ai) integrals will be sorted in core.
 Spin components of T(2) and E(2):
     alpha-alpha T2 =       0.4023788059D-02 E2=     -0.5116203570D-02
     alpha-beta  T2 =       0.5256507364D-01 E2=     -0.7024140980D-01
     beta-beta   T2 =       0.4023788059D-02 E2=     -0.5116203570D-02
 ANorm=    0.1029860500D+01
 E2 =    -0.8047381694D-01 EUMP2 =    -0.40368655424050D+01
 Second order stability test of a single determinant RHF wave function:
 Stabil:  MDV=134217728
 ***********************************************************************
 Matrix         Lowest Root    Major Pairs
 ***********************************************************************
 Internal RHF     0.1951561    Stable
 RRHF --> CRHF    0.1622126    Stable
 RRHF --> RUHF   -0.0124578    4A=5B
 Not stable.
 ***********************************************************************

 **********************************************************************

            Population analysis using the SCF density.

 **********************************************************************

 Orbital symmetries:
       Occupied  (AG) (BU) (AG) (BU)
       Virtual   (AG) (BU) (BU) (AG)
 The electronic state is 1-AG.
 Alpha  occ. eigenvalues --   -0.82916  -0.66736  -0.40825  -0.34538
 Alpha virt. eigenvalues --    0.08249   0.14757   0.46378   0.55676
          Condensed to atoms (all electrons):
               1          2          3          4          5          6
     1  H    0.836678   0.196932   0.191665  -0.145585  -0.042054  -0.018278
     2  H    0.196932   0.696250  -0.044588   0.175589  -0.152845   0.031374
     3  H    0.191665  -0.044588   0.643463  -0.171860   0.323688  -0.094551
     4  H   -0.145585   0.175589  -0.171860   1.311231  -0.089863   0.323688
     5  H   -0.042054  -0.152845   0.323688  -0.089863   1.311231  -0.171860
     6  H   -0.018278   0.031374  -0.094551   0.323688  -0.171860   0.643463
     7  H    0.009846  -0.014807   0.031374  -0.152845   0.175589  -0.044588
     8  H    0.003831   0.009846  -0.018278  -0.042054  -0.145585   0.191665
               7          8
     1  H    0.009846   0.003831
     2  H   -0.014807   0.009846
     3  H    0.031374  -0.018278
     4  H   -0.152845  -0.042054
     5  H    0.175589  -0.145585
     6  H   -0.044588   0.191665
     7  H    0.696250   0.196932
     8  H    0.196932   0.836678
 Mulliken charges:
               1
     1  H   -0.033035
     2  H    0.102249
     3  H    0.139086
     4  H   -0.208300
     5  H   -0.208300
     6  H    0.139086
     7  H    0.102249
     8  H   -0.033035
 Sum of Mulliken charges =  -0.00000
 Mulliken charges with hydrogens summed into heavy atoms:
               1
 Electronic spatial extent (au):  <R**2>=             80.7403
 Charge=             -0.0000 electrons
 Dipole moment (field-independent basis, Debye):
    X=             -0.0000    Y=              0.0000    Z=              0.0000  Tot=              0.0000
 Quadrupole moment (field-independent basis, Debye-Ang):
   XX=            -10.7442   YY=            -11.4395   ZZ=            -10.5378
   XY=              1.1111   XZ=             -0.0000   YZ=              0.0000
 Traceless Quadrupole moment (field-independent basis, Debye-Ang):
   XX=              0.1630   YY=             -0.5324   ZZ=              0.3694
   XY=              1.1111   XZ=             -0.0000   YZ=              0.0000
 Octapole moment (field-independent basis, Debye-Ang**2):
  XXX=             -0.0000  YYY=              0.0000  ZZZ=             -0.0000  XYY=             -0.0000
  XXY=             -0.0000  XXZ=             -0.0000  XZZ=              0.0000  YZZ=              0.0000
  YYZ=             -0.0000  XYZ=             -0.0000
 Hexadecapole moment (field-independent basis, Debye-Ang**3):
 XXXX=           -112.8405 YYYY=            -47.7106 ZZZZ=            -12.8758 XXXY=            -19.4130
 XXXZ=              0.0000 YYYX=            -16.8977 YYYZ=              0.0000 ZZZX=              0.0000
 ZZZY=              0.0000 XXYY=            -26.7885 XXZZ=            -20.5227 YYZZ=            -10.2960
 XXYZ=              0.0000 YYXZ=              0.0000 ZZXY=             -5.9769
 N-N= 9.180951311200D+00 E-N=-2.568520899942D+01  KE= 3.910818636938D+00
 Symmetry AG   KE= 1.768900572465D+00
 Symmetry BG   KE= 0.000000000000D+00
 Symmetry AU   KE= 0.000000000000D+00
 Symmetry BU   KE= 2.141918064473D+00

 Test job not archived.
 1\1\GINC-SULU\Stability\RHF\Gen\H8\LCJ1\09-Feb-2017\0\\#rhf/gen scf(sy
 mm,tight,novaracc,noincfock,fulldiag) stable(crhf) geom=nocrowd test\\
 hf stability analysis of h10 triangular lattice, y= 0.9870686609978258
 6\\0,1\H\H,1,1.1473573626\H,1,1.1473573626,2,61.3\H,2,1.1473573626,1,1
 18.7,3,0.,0\H,3,1.1473573626,1,180.,2,0.,0\H,4,1.1473573626,2,180.,1,0
 .,0\H,5,1.1473573626,3,180.,2,0.,0\H,6,1.1473573626,4,180.,1,0.,0\\Ver
 sion=ES64L-G09RevE.01\State=1-AG\HF=-3.9563917\MP2=-4.0368655\RMSD=3.6
 66e-09\Dipole=0.,0.,0.\Quadrupole=0.4631474,0.2746196,-0.737767,0.,0.6
 234268,0.\PG=C02H [SGH(H8)]\\@


            ARSENIC

 FOR SMELTER FUMES HAVE I BEEN NAMED,
    I AM AN EVIL POISONOUS SMOKE...
 BUT WHEN FROM POISON I AM FREED,
    THROUGH ART AND SLEIGHT OF HAND,
 THEN CAN I CURE BOTH MAN AND BEAST,
    FROM DIRE DISEASE OFTTIMES DIRECT THEM;
 BUT PREPARE ME CORRECTLY, AND TAKE GREAT CARE
    THAT YOU FAITHFULLY KEEP WATCHFUL GUARD OVER ME;
 FOR ELSE I AM POISON, AND POISON REMAIN,
    THAT PIERCES THE HEART OF MANY A ONE.

 ATTRIBUTED TO THE PROBABLY MYTHICAL 15TH
 CENTURY MONK, BASILIUS VALENTINUS
 Job cpu time:       0 days  0 hours  0 minutes  0.8 seconds.
 File lengths (MBytes):  RWF=     84 Int=      0 D2E=      0 Chk=      2 Scr=      2
 Normal termination of Gaussian 09 at Thu Feb  9 15:40:06 2017.
