 Entering Gaussian System, Link 0=g09
 AtFile(1): H.gbs
            H     0
            S   10   1.00
               1000.000000000000            0.000068713567
                316.227766000000            0.000169141320
                100.000000000000            0.000823394812
                 31.622776600000            0.003425569236
                 10.000000000000            0.013951996000
                  3.162277660000            0.056909313560
                  1.000000000000            0.198286399900
                  0.316227766000            0.496922426700
                  0.100000000000            0.369846276400
                  0.031622776600            0.003752720039
            ****
 Initial command:
 /projects/guscus/apps/gau/g09-e1/g09/l1.exe "/users/lcj1/gaussian/h10/rhfstability/2rows/zmat/guessfrommix/alpha25/finermeshCX2/Gau-15627.inp" -scrdir="/users/lcj1/gaussian/h10/rhfstability/2rows/zmat/guessfrommix/alpha25/finermeshCX2/"
 Entering Link 1 = /projects/guscus/apps/gau/g09-e1/g09/l1.exe PID=     15628.
  
 Copyright (c) 1988,1990,1992,1993,1995,1998,2003,2009,2015,
            Gaussian, Inc.  All Rights Reserved.
  
 This is part of the Gaussian(R) 09 program.  It is based on
 the Gaussian(R) 03 system (copyright 2003, Gaussian, Inc.),
 the Gaussian(R) 98 system (copyright 1998, Gaussian, Inc.),
 the Gaussian(R) 94 system (copyright 1995, Gaussian, Inc.),
 the Gaussian 92(TM) system (copyright 1992, Gaussian, Inc.),
 the Gaussian 90(TM) system (copyright 1990, Gaussian, Inc.),
 the Gaussian 88(TM) system (copyright 1988, Gaussian, Inc.),
 the Gaussian 86(TM) system (copyright 1986, Carnegie Mellon
 University), and the Gaussian 82(TM) system (copyright 1983,
 Carnegie Mellon University). Gaussian is a federally registered
 trademark of Gaussian, Inc.
  
 This software contains proprietary and confidential information,
 including trade secrets, belonging to Gaussian, Inc.
  
 This software is provided under written license and may be
 used, copied, transmitted, or stored only in accord with that
 written license.
  
 The following legend is applicable only to US Government
 contracts under FAR:
  
                    RESTRICTED RIGHTS LEGEND
  
 Use, reproduction and disclosure by the US Government is
 subject to restrictions as set forth in subparagraphs (a)
 and (c) of the Commercial Computer Software - Restricted
 Rights clause in FAR 52.227-19.
  
 Gaussian, Inc.
 340 Quinnipiac St., Bldg. 40, Wallingford CT 06492
  
  
 ---------------------------------------------------------------
 Warning -- This program may not be used in any manner that
 competes with the business of Gaussian, Inc. or will provide
 assistance to any competitor of Gaussian, Inc.  The licensee
 of this program is prohibited from giving any competitor of
 Gaussian, Inc. access to this program.  By using this program,
 the user acknowledges that Gaussian, Inc. is engaged in the
 business of creating and licensing software in the field of
 computational chemistry and represents and warrants to the
 licensee that it is not a competitor of Gaussian, Inc. and that
 it will not use this program in any manner prohibited above.
 ---------------------------------------------------------------
  

 Cite this work as:
 Gaussian 09, Revision E.01,
 M. J. Frisch, G. W. Trucks, H. B. Schlegel, G. E. Scuseria, 
 M. A. Robb, J. R. Cheeseman, G. Scalmani, V. Barone, B. Mennucci, 
 G. A. Petersson, H. Nakatsuji, M. Caricato, X. Li, H. P. Hratchian, 
 A. F. Izmaylov, J. Bloino, G. Zheng, J. L. Sonnenberg, M. Hada, 
 M. Ehara, K. Toyota, R. Fukuda, J. Hasegawa, M. Ishida, T. Nakajima, 
 Y. Honda, O. Kitao, H. Nakai, T. Vreven, J. A. Montgomery, Jr., 
 J. E. Peralta, F. Ogliaro, M. Bearpark, J. J. Heyd, E. Brothers, 
 K. N. Kudin, V. N. Staroverov, T. Keith, R. Kobayashi, J. Normand, 
 K. Raghavachari, A. Rendell, J. C. Burant, S. S. Iyengar, J. Tomasi, 
 M. Cossi, N. Rega, J. M. Millam, M. Klene, J. E. Knox, J. B. Cross, 
 V. Bakken, C. Adamo, J. Jaramillo, R. Gomperts, R. E. Stratmann, 
 O. Yazyev, A. J. Austin, R. Cammi, C. Pomelli, J. W. Ochterski, 
 R. L. Martin, K. Morokuma, V. G. Zakrzewski, G. A. Voth, 
 P. Salvador, J. J. Dannenberg, S. Dapprich, A. D. Daniels, 
 O. Farkas, J. B. Foresman, J. V. Ortiz, J. Cioslowski, 
 and D. J. Fox, Gaussian, Inc., Wallingford CT, 2013.
 
 ******************************************
 Gaussian 09:  ES64L-G09RevE.01 30-Nov-2015
                21-Feb-2017 
 ******************************************
 %chk=h10.chk
 ----------------------------------------------------------------------
 #rhf/gen scf(symm,tight,novaracc,noincfock,fulldiag) stable(crhf) gues
 s=read geom=nocrowd test
 ----------------------------------------------------------------------
 1/38=1/1;
 2/12=1,17=6,18=5,40=1/2;
 3/5=7,16=1,25=1,30=1,116=1/1,2,3;
 4/5=1,9=4/1;
 5/5=100002,15=2,16=1,32=2,38=6/2;
 8/6=1,10=90,11=11/1,4;
 9/8=4,13=1/2;
 6/7=2,8=2,9=2,10=2,28=1/1;
 99/5=1,9=1/99;
 ----------------------------------------------------------------------
 hf stability analysis of h10 triangular lattice, y= 1.2825171094998111
 ----------------------------------------------------------------------
 Symbolic Z-matrix:
 Charge =  0 Multiplicity = 1
 H
 H                    1     1.35923 
 H                    1     1.35923  2     38.68264 
 H                    2     1.35923  1     141.31736  3     0.       0
 H                    3     1.35923  1     180.     2     0.       0
 H                    4     1.35923  2     180.     1     0.       0
 H                    5     1.35923  3     180.     2     0.       0
 H                    6     1.35923  4     180.     1     0.       0
 H                    7     1.35923  5     180.     2     0.       0
 H                    8     1.35923  6     180.     1     0.       0
 
                          Input orientation:                          
 ---------------------------------------------------------------------
 Center     Atomic      Atomic             Coordinates (Angstroms)
 Number     Number       Type             X           Y           Z
 ---------------------------------------------------------------------
      1          1           0        0.000000    0.000000    0.000000
      2          1           0        0.000000    0.000000    1.359229
      3          1           0        0.849526    0.000000    1.061041
      4          1           0        0.849526    0.000000    2.420270
      5          1           0        1.699053    0.000000    2.122082
      6          1           0        1.699053    0.000000    3.481311
      7          1           0        2.548579    0.000000    3.183123
      8          1           0        2.548579    0.000000    4.542352
      9          1           0        3.398105    0.000000    4.244164
     10          1           0        3.398105    0.000000    5.603392
 ---------------------------------------------------------------------
                    Distance matrix (angstroms):
                    1          2          3          4          5
     1  H    0.000000
     2  H    1.359229   0.000000
     3  H    1.359229   0.900339   0.000000
     4  H    2.565034   1.359229   1.359229   0.000000
     5  H    2.718458   1.862451   1.359229   0.900339   0.000000
     6  H    3.873797   2.718458   2.565034   1.359229   1.359229
     7  H    4.077686   3.133982   2.718458   1.862451   1.359229
     8  H    5.208475   4.077686   3.873797   2.718458   2.565034
     9  H    5.436915   4.457574   4.077686   3.133982   2.718458
    10  H    6.553253   5.436915   5.208475   4.077686   3.873797
                    6          7          8          9         10
     6  H    0.000000
     7  H    0.900339   0.000000
     8  H    1.359229   1.359229   0.000000
     9  H    1.862451   1.359229   0.900339   0.000000
    10  H    2.718458   2.565034   1.359229   1.359229   0.000000
 Stoichiometry    H10
 Framework group  C2H[SGH(H10)]
 Deg. of freedom     9
 Full point group                 C2H     NOp   4
 Largest Abelian subgroup         C2H     NOp   4
 Largest concise Abelian subgroup C2      NOp   2
                         Standard orientation:                         
 ---------------------------------------------------------------------
 Center     Atomic      Atomic             Coordinates (Angstroms)
 Number     Number       Type             X           Y           Z
 ---------------------------------------------------------------------
      1          1           0        1.699053    2.801696    0.000000
      2          1           0        1.699053    1.442467   -0.000000
      3          1           0        0.849526    1.740655    0.000000
      4          1           0        0.849526    0.381427   -0.000000
      5          1           0        0.000000    0.679614    0.000000
      6          1           0       -0.000000   -0.679614   -0.000000
      7          1           0       -0.849526   -0.381427    0.000000
      8          1           0       -0.849526   -1.740655   -0.000000
      9          1           0       -1.699053   -1.442467    0.000000
     10          1           0       -1.699053   -2.801696   -0.000000
 ---------------------------------------------------------------------
 Rotational constants (GHZ):    300.1048887     12.5684644     12.0632525
 General basis read from cards:  (5D, 7F)
 There are     5 symmetry adapted cartesian basis functions of AG  symmetry.
 There are     0 symmetry adapted cartesian basis functions of BG  symmetry.
 There are     0 symmetry adapted cartesian basis functions of AU  symmetry.
 There are     5 symmetry adapted cartesian basis functions of BU  symmetry.
 There are     5 symmetry adapted basis functions of AG  symmetry.
 There are     0 symmetry adapted basis functions of BG  symmetry.
 There are     0 symmetry adapted basis functions of AU  symmetry.
 There are     5 symmetry adapted basis functions of BU  symmetry.
    10 basis functions,   100 primitive gaussians,    10 cartesian basis functions
     5 alpha electrons        5 beta electrons
       nuclear repulsion energy        12.1216986524 Hartrees.
 NAtoms=   10 NActive=   10 NUniq=    5 SFac= 4.00D+00 NAtFMM=   60 NAOKFM=F Big=F
 Integral buffers will be    131072 words long.
 Regular integral format.
 Two-electron integral symmetry is turned on.
 One-electron integrals computed using PRISM.
 NBasis=    10 RedAO= T EigKep=  1.84D-01  NBF=     5     0     0     5
 NBsUse=    10 1.00D-06 EigRej= -1.00D+00 NBFU=     5     0     0     5
 Initial guess from the checkpoint file:  "h10.chk"
 B after Tr=     0.000000    0.000000    0.000000
         Rot=    1.000000   -0.000000    0.000000   -0.000000 Ang=   0.00 deg.
 Initial guess orbital symmetries:
       Occupied  (AG) (BU) (AG) (BU) (BU)
       Virtual   (AG) (BU) (AG) (BU) (AG)
 Keep R1 ints in memory in symmetry-blocked form, NReq=876823.
 Requested convergence on RMS density matrix=1.00D-08 within 128 cycles.
 Requested convergence on MAX density matrix=1.00D-06.
 Requested convergence on             energy=1.00D-06.
 No special actions if energy rises.
 Skip diagonalization as Alpha Fock matrix is already diagonal.
 SCF Done:  E(RHF) =  -4.71757218173     A.U. after    1 cycles
            NFock=  1  Conv=0.00D+00     -V/T= 1.9399
 Range of M.O.s used for correlation:     1    10
 NBasis=    10 NAE=     5 NBE=     5 NFC=     0 NFV=     0
 NROrb=     10 NOA=     5 NOB=     5 NVA=     5 NVB=     5
 Semi-Direct transformation.
 ModeAB=           4 MOrb=             5 LenV=     134109892
 LASXX=         1030 LTotXX=        1030 LenRXX=        2480
 LTotAB=        1450 MaxLAS=        1500 LenRXY=           0
 NonZer=        3510 LenScr=      655360 LnRSAI=        1500
 LnScr1=      655360 LExtra=           0 Total=      1314700
 MaxDsk=          -1 SrtSym=           T ITran=            3
 JobTyp=0 Pass  1:  I=   1 to   5.
 (rs|ai) integrals will be sorted in core.
 Spin components of T(2) and E(2):
     alpha-alpha T2 =       0.7293723653D-02 E2=     -0.7294309090D-02
     alpha-beta  T2 =       0.1521033630D+00 E2=     -0.1247090076D+00
     beta-beta   T2 =       0.7293723653D-02 E2=     -0.7294309090D-02
 ANorm=    0.1080134626D+01
 E2 =    -0.1392976257D+00 EUMP2 =    -0.48568698074740D+01
 Second order stability test of a single determinant RHF wave function:
 Stabil:  MDV=134217728
 ***********************************************************************
 Matrix         Lowest Root    Major Pairs
 ***********************************************************************
 Internal RHF    -0.0109696    5A=6A 5A=8A 4A=8A 4A=6A
 RRHF --> CRHF   -0.049148     5A=6A
 RRHF --> RUHF   -0.1835569    5A=6B 5A=8B 4A=6B
 Not stable.
 ***********************************************************************

 **********************************************************************

            Population analysis using the SCF density.

 **********************************************************************

 Orbital symmetries:
       Occupied  (AG) (BU) (AG) (BU) (BU)
       Virtual   (AG) (BU) (AG) (BU) (AG)
 The electronic state is 1-AG.
 Alpha  occ. eigenvalues --   -0.76962  -0.71421  -0.55054  -0.35027  -0.14973
 Alpha virt. eigenvalues --   -0.00234   0.14219   0.16923   0.40728   0.64511
          Condensed to atoms (all electrons):
               1          2          3          4          5          6
     1  H    0.774521   0.083244   0.158204  -0.073625  -0.021010  -0.000859
     2  H    0.083244   0.958361  -0.000641   0.136834  -0.211950   0.055265
     3  H    0.158204  -0.000641   0.617922  -0.078198   0.215404  -0.063177
     4  H   -0.073625   0.136834  -0.078198   0.985871   0.064822   0.148421
     5  H   -0.021010  -0.211950   0.215404   0.064822   1.407656  -0.413232
     6  H   -0.000859   0.055265  -0.063177   0.148421  -0.413232   1.407656
     7  H    0.005133  -0.021842   0.012225  -0.150309   0.148421   0.064822
     8  H   -0.000061   0.004644  -0.003740   0.012225  -0.063177   0.215404
     9  H    0.000208  -0.003071   0.004644  -0.021842   0.055265  -0.211950
    10  H   -0.000060   0.000208  -0.000061   0.005133  -0.000859  -0.021010
               7          8          9         10
     1  H    0.005133  -0.000061   0.000208  -0.000060
     2  H   -0.021842   0.004644  -0.003071   0.000208
     3  H    0.012225  -0.003740   0.004644  -0.000061
     4  H   -0.150309   0.012225  -0.021842   0.005133
     5  H    0.148421  -0.063177   0.055265  -0.000859
     6  H    0.064822   0.215404  -0.211950  -0.021010
     7  H    0.985871  -0.078198   0.136834  -0.073625
     8  H   -0.078198   0.617922  -0.000641   0.158204
     9  H    0.136834  -0.000641   0.958361   0.083244
    10  H   -0.073625   0.158204   0.083244   0.774521
 Mulliken charges:
               1
     1  H    0.074304
     2  H   -0.001051
     3  H    0.137418
     4  H   -0.029331
     5  H   -0.181339
     6  H   -0.181339
     7  H   -0.029331
     8  H    0.137418
     9  H   -0.001051
    10  H    0.074304
 Sum of Mulliken charges =  -0.00000
 Mulliken charges with hydrogens summed into heavy atoms:
               1
 Electronic spatial extent (au):  <R**2>=            171.5141
 Charge=             -0.0000 electrons
 Dipole moment (field-independent basis, Debye):
    X=              0.0000    Y=              0.0000    Z=              0.0000  Tot=              0.0000
 Quadrupole moment (field-independent basis, Debye-Ang):
   XX=            -11.8423   YY=             -6.0101   ZZ=            -13.1764
   XY=              5.3829   XZ=              0.0000   YZ=              0.0000
 Traceless Quadrupole moment (field-independent basis, Debye-Ang):
   XX=             -1.4994   YY=              4.3329   ZZ=             -2.8335
   XY=              5.3829   XZ=              0.0000   YZ=              0.0000
 Octapole moment (field-independent basis, Debye-Ang**2):
  XXX=             -0.0000  YYY=              0.0000  ZZZ=             -0.0000  XYY=              0.0000
  XXY=             -0.0000  XXZ=              0.0000  XZZ=             -0.0000  YZZ=             -0.0000
  YYZ=              0.0000  XYZ=              0.0000
 Hexadecapole moment (field-independent basis, Debye-Ang**3):
 XXXX=           -130.9097 YYYY=           -167.4140 ZZZZ=            -16.1595 XXXY=            -60.2503
 XXXZ=             -0.0000 YYYX=            -33.4434 YYYZ=             -0.0000 ZZZX=             -0.0000
 ZZZY=             -0.0000 XXYY=            -40.7444 XXZZ=            -24.8241 YYZZ=            -40.7938
 XXYZ=             -0.0000 YYXZ=              0.0000 ZZXY=            -23.1180
 N-N= 1.212169865243D+01 E-N=-3.362926957541D+01  KE= 5.019460913557D+00
 Symmetry AG   KE= 1.428422852117D+00
 Symmetry BG   KE= 0.000000000000D+00
 Symmetry AU   KE= 0.000000000000D+00
 Symmetry BU   KE= 3.591038061440D+00

 Test job not archived.
 1\1\GINC-SULU\Stability\RHF\Gen\H10\LCJ1\21-Feb-2017\0\\#rhf/gen scf(s
 ymm,tight,novaracc,noincfock,fulldiag) stable(crhf) guess=read geom=no
 crowd test\\hf stability analysis of h10 triangular lattice, y= 1.2825
 171094998111\\0,1\H\H,1,1.3592287679\H,1,1.3592287679,2,38.68263877\H,
 2,1.3592287679,1,141.31736123,3,0.,0\H,3,1.3592287679,1,180.,2,0.,0\H,
 4,1.3592287679,2,180.,1,0.,0\H,5,1.3592287679,3,180.,2,0.,0\H,6,1.3592
 287679,4,180.,1,0.,0\H,7,1.3592287679,5,180.,2,0.,0\H,8,1.3592287679,6
 ,180.,1,0.,0\\Version=ES64L-G09RevE.01\State=1-AG\HF=-4.7175722\MP2=-4
 .8568698\RMSD=0.000e+00\Dipole=0.,0.,0.\Quadrupole=-1.1147436,-2.10663
 64,3.2213799,0.,4.0020208,0.\PG=C02H [SGH(H10)]\\@


 NO HUMAN INVESTIGATION CAN BECOME REAL SCIENCE
 WITHOUT GOING THROUGH MATHEMATICAL PEOPLE.
 -- LEONARDO DA VINCI, IN "PENSIERI" CA. 1492
 Job cpu time:       0 days  0 hours  0 minutes  0.8 seconds.
 File lengths (MBytes):  RWF=     84 Int=      0 D2E=      0 Chk=      2 Scr=      2
 Normal termination of Gaussian 09 at Tue Feb 21 16:58:16 2017.
