 Entering Gaussian System, Link 0=g09
 AtFile(1): H.gbs
            H     0
            S   10   1.00
               1000.000000000000            0.000068713567
                316.227766000000            0.000169141320
                100.000000000000            0.000823394812
                 31.622776600000            0.003425569236
                 10.000000000000            0.013951996000
                  3.162277660000            0.056909313560
                  1.000000000000            0.198286399900
                  0.316227766000            0.496922426700
                  0.100000000000            0.369846276400
                  0.031622776600            0.003752720039
            ****
 Initial command:
 /projects/guscus/apps/gau/g09-e1/g09/l1.exe "/users/lcj1/gaussian/h14_rhf2rows/alpha30/Gau-14052.inp" -scrdir="/users/lcj1/gaussian/h14_rhf2rows/alpha30/"
 Entering Link 1 = /projects/guscus/apps/gau/g09-e1/g09/l1.exe PID=     14053.
  
 Copyright (c) 1988,1990,1992,1993,1995,1998,2003,2009,2015,
            Gaussian, Inc.  All Rights Reserved.
  
 This is part of the Gaussian(R) 09 program.  It is based on
 the Gaussian(R) 03 system (copyright 2003, Gaussian, Inc.),
 the Gaussian(R) 98 system (copyright 1998, Gaussian, Inc.),
 the Gaussian(R) 94 system (copyright 1995, Gaussian, Inc.),
 the Gaussian 92(TM) system (copyright 1992, Gaussian, Inc.),
 the Gaussian 90(TM) system (copyright 1990, Gaussian, Inc.),
 the Gaussian 88(TM) system (copyright 1988, Gaussian, Inc.),
 the Gaussian 86(TM) system (copyright 1986, Carnegie Mellon
 University), and the Gaussian 82(TM) system (copyright 1983,
 Carnegie Mellon University). Gaussian is a federally registered
 trademark of Gaussian, Inc.
  
 This software contains proprietary and confidential information,
 including trade secrets, belonging to Gaussian, Inc.
  
 This software is provided under written license and may be
 used, copied, transmitted, or stored only in accord with that
 written license.
  
 The following legend is applicable only to US Government
 contracts under FAR:
  
                    RESTRICTED RIGHTS LEGEND
  
 Use, reproduction and disclosure by the US Government is
 subject to restrictions as set forth in subparagraphs (a)
 and (c) of the Commercial Computer Software - Restricted
 Rights clause in FAR 52.227-19.
  
 Gaussian, Inc.
 340 Quinnipiac St., Bldg. 40, Wallingford CT 06492
  
  
 ---------------------------------------------------------------
 Warning -- This program may not be used in any manner that
 competes with the business of Gaussian, Inc. or will provide
 assistance to any competitor of Gaussian, Inc.  The licensee
 of this program is prohibited from giving any competitor of
 Gaussian, Inc. access to this program.  By using this program,
 the user acknowledges that Gaussian, Inc. is engaged in the
 business of creating and licensing software in the field of
 computational chemistry and represents and warrants to the
 licensee that it is not a competitor of Gaussian, Inc. and that
 it will not use this program in any manner prohibited above.
 ---------------------------------------------------------------
  

 Cite this work as:
 Gaussian 09, Revision E.01,
 M. J. Frisch, G. W. Trucks, H. B. Schlegel, G. E. Scuseria, 
 M. A. Robb, J. R. Cheeseman, G. Scalmani, V. Barone, B. Mennucci, 
 G. A. Petersson, H. Nakatsuji, M. Caricato, X. Li, H. P. Hratchian, 
 A. F. Izmaylov, J. Bloino, G. Zheng, J. L. Sonnenberg, M. Hada, 
 M. Ehara, K. Toyota, R. Fukuda, J. Hasegawa, M. Ishida, T. Nakajima, 
 Y. Honda, O. Kitao, H. Nakai, T. Vreven, J. A. Montgomery, Jr., 
 J. E. Peralta, F. Ogliaro, M. Bearpark, J. J. Heyd, E. Brothers, 
 K. N. Kudin, V. N. Staroverov, T. Keith, R. Kobayashi, J. Normand, 
 K. Raghavachari, A. Rendell, J. C. Burant, S. S. Iyengar, J. Tomasi, 
 M. Cossi, N. Rega, J. M. Millam, M. Klene, J. E. Knox, J. B. Cross, 
 V. Bakken, C. Adamo, J. Jaramillo, R. Gomperts, R. E. Stratmann, 
 O. Yazyev, A. J. Austin, R. Cammi, C. Pomelli, J. W. Ochterski, 
 R. L. Martin, K. Morokuma, V. G. Zakrzewski, G. A. Voth, 
 P. Salvador, J. J. Dannenberg, S. Dapprich, A. D. Daniels, 
 O. Farkas, J. B. Foresman, J. V. Ortiz, J. Cioslowski, 
 and D. J. Fox, Gaussian, Inc., Wallingford CT, 2013.
 
 ******************************************
 Gaussian 09:  ES64L-G09RevE.01 30-Nov-2015
                15-Feb-2017 
 ******************************************
 %chk=h14.chk
 ----------------------------------------------------------------------
 #rhf/gen scf(symm,tight,novaracc,noincfock,fulldiag) stable(crhf) gues
 s=read geom=nocrowd test
 ----------------------------------------------------------------------
 1/38=1/1;
 2/12=1,17=6,18=5,40=1/2;
 3/5=7,16=1,25=1,30=1,116=1/1,2,3;
 4/5=1,9=4/1;
 5/5=100002,15=2,16=1,32=2,38=6/2;
 8/6=1,10=90,11=11/1,4;
 9/8=4,13=1/2;
 6/7=2,8=2,9=2,10=2,28=1/1;
 99/5=1,9=1/99;
 ----------------------------------------------------------------------
 hf stability analysis of h12 triangular lattice, y= 1.0940617386278098
  alpha= 64.250000000000000
 ----------------------------------------------------------------------
 Symbolic Z-matrix:
 Charge =  0 Multiplicity = 1
 H
 H                    1     1.21468 
 H                    1     1.21468  2     51.5 
 H                    2     1.21468  1     128.5    3     0.       0
 H                    3     1.21468  1     180.     2     0.       0
 H                    4     1.21468  2     180.     1     0.       0
 H                    5     1.21468  3     180.     2     0.       0
 H                    6     1.21468  4     180.     1     0.       0
 H                    7     1.21468  5     180.     2     0.       0
 H                    8     1.21468  6     180.     1     0.       0
 H                    9     1.21468  7     180.     2     0.       0
 H                    10    1.21468  8     180.     1     0.       0
 H                    11    1.21468  9     180.     2     0.       0
 H                    12    1.21468  10    180.     1     0.       0
 
                          Input orientation:                          
 ---------------------------------------------------------------------
 Center     Atomic      Atomic             Coordinates (Angstroms)
 Number     Number       Type             X           Y           Z
 ---------------------------------------------------------------------
      1          1           0        0.000000    0.000000    0.000000
      2          1           0        0.000000    0.000000    1.214682
      3          1           0        0.950620    0.000000    0.756157
      4          1           0        0.950620    0.000000    1.970839
      5          1           0        1.901240    0.000000    1.512314
      6          1           0        1.901240    0.000000    2.726996
      7          1           0        2.851860    0.000000    2.268472
      8          1           0        2.851860    0.000000    3.483153
      9          1           0        3.802479    0.000000    3.024629
     10          1           0        3.802479    0.000000    4.239310
     11          1           0        4.753099    0.000000    3.780786
     12          1           0        4.753099    0.000000    4.995468
     13          1           0        5.703719    0.000000    4.536943
     14          1           0        5.703719    0.000000    5.751625
 ---------------------------------------------------------------------
                    Distance matrix (angstroms):
                    1          2          3          4          5
     1  H    0.000000
     2  H    1.214682   0.000000
     3  H    1.214682   1.055425   0.000000
     4  H    2.188123   1.214682   1.214682   0.000000
     5  H    2.429364   1.924395   1.214682   1.055425   0.000000
     6  H    3.324338   2.429364   2.188123   1.214682   1.214682
     7  H    3.644045   3.040325   2.429364   1.924395   1.214682
     8  H    4.501717   3.644045   3.324338   2.429364   2.188123
     9  H    4.858727   4.211266   3.644045   3.040325   2.429364
    10  H    5.694787   4.858727   4.501717   3.644045   3.324338
    11  H    6.073409   5.401559   4.858727   4.211266   3.644045
    12  H    6.895408   6.073409   5.694787   4.858727   4.501717
    13  H    7.288091   6.600745   6.073409   5.401559   4.858727
    14  H    8.100222   7.288091   6.895408   6.073409   5.694787
                    6          7          8          9         10
     6  H    0.000000
     7  H    1.055425   0.000000
     8  H    1.214682   1.214682   0.000000
     9  H    1.924395   1.214682   1.055425   0.000000
    10  H    2.429364   2.188123   1.214682   1.214682   0.000000
    11  H    3.040325   2.429364   1.924395   1.214682   1.055425
    12  H    3.644045   3.324338   2.429364   2.188123   1.214682
    13  H    4.211266   3.644045   3.040325   2.429364   1.924395
    14  H    4.858727   4.501717   3.644045   3.324338   2.429364
                   11         12         13         14
    11  H    0.000000
    12  H    1.214682   0.000000
    13  H    1.214682   1.055425   0.000000
    14  H    2.188123   1.214682   1.214682   0.000000
 Stoichiometry    H14
 Framework group  C2H[SGH(H14)]
 Deg. of freedom    13
 Full point group                 C2H     NOp   4
 Largest Abelian subgroup         C2H     NOp   4
 Largest concise Abelian subgroup C2      NOp   2
                         Standard orientation:                         
 ---------------------------------------------------------------------
 Center     Atomic      Atomic             Coordinates (Angstroms)
 Number     Number       Type             X           Y           Z
 ---------------------------------------------------------------------
      1          1           0        2.851860    2.875812   -0.000000
      2          1           0        2.851860    1.661131   -0.000000
      3          1           0        1.901240    2.119655   -0.000000
      4          1           0        1.901240    0.904973   -0.000000
      5          1           0        0.950620    1.363498   -0.000000
      6          1           0        0.950620    0.148816   -0.000000
      7          1           0       -0.000000    0.607341   -0.000000
      8          1           0       -0.000000   -0.607341    0.000000
      9          1           0       -0.950620   -0.148816   -0.000000
     10          1           0       -0.950620   -1.363498   -0.000000
     11          1           0       -1.901240   -0.904973   -0.000000
     12          1           0       -1.901240   -2.119655   -0.000000
     13          1           0       -2.851860   -1.661131   -0.000000
     14          1           0       -2.851860   -2.875812   -0.000000
 ---------------------------------------------------------------------
 Rotational constants (GHZ):    162.5330913      5.9200784      5.7120246
 General basis read from cards:  (5D, 7F)
 There are     7 symmetry adapted cartesian basis functions of AG  symmetry.
 There are     0 symmetry adapted cartesian basis functions of BG  symmetry.
 There are     0 symmetry adapted cartesian basis functions of AU  symmetry.
 There are     7 symmetry adapted cartesian basis functions of BU  symmetry.
 There are     7 symmetry adapted basis functions of AG  symmetry.
 There are     0 symmetry adapted basis functions of BG  symmetry.
 There are     0 symmetry adapted basis functions of AU  symmetry.
 There are     7 symmetry adapted basis functions of BU  symmetry.
    14 basis functions,   140 primitive gaussians,    14 cartesian basis functions
     7 alpha electrons        7 beta electrons
       nuclear repulsion energy        21.7118461517 Hartrees.
 NAtoms=   14 NActive=   14 NUniq=    7 SFac= 4.00D+00 NAtFMM=   60 NAOKFM=F Big=F
 Integral buffers will be    131072 words long.
 Regular integral format.
 Two-electron integral symmetry is turned on.
 One-electron integrals computed using PRISM.
 NBasis=    14 RedAO= T EigKep=  1.76D-01  NBF=     7     0     0     7
 NBsUse=    14 1.00D-06 EigRej= -1.00D+00 NBFU=     7     0     0     7
 Initial guess from the checkpoint file:  "h14.chk"
 B after Tr=     0.000000    0.000000   -0.000000
         Rot=    0.999992   -0.000000   -0.000000   -0.004107 Ang=  -0.47 deg.
 Initial guess orbital symmetries:
       Occupied  (AG) (BU) (AG) (BU) (AG) (BU) (AG)
       Virtual   (BU) (BU) (AG) (AG) (BU) (BU) (AG)
 Keep R1 ints in memory in symmetry-blocked form, NReq=922582.
 Requested convergence on RMS density matrix=1.00D-08 within 128 cycles.
 Requested convergence on MAX density matrix=1.00D-06.
 Requested convergence on             energy=1.00D-06.
 No special actions if energy rises.
 SCF Done:  E(RHF) =  -6.73522377492     A.U. after   11 cycles
            NFock= 11  Conv=0.11D-08     -V/T= 1.9556
 Range of M.O.s used for correlation:     1    14
 NBasis=    14 NAE=     7 NBE=     7 NFC=     0 NFV=     0
 NROrb=     14 NOA=     7 NOB=     7 NVA=     7 NVB=     7
 Semi-Direct transformation.
 ModeAB=           4 MOrb=             7 LenV=     134068046
 LASXX=         4102 LTotXX=        4102 LenRXX=        9443
 LTotAB=        5341 MaxLAS=        5488 LenRXY=           0
 NonZer=       13545 LenScr=      655360 LnRSAI=        5488
 LnScr1=      655360 LExtra=           0 Total=      1325651
 MaxDsk=          -1 SrtSym=           T ITran=            3
 JobTyp=0 Pass  1:  I=   1 to   7.
 (rs|ai) integrals will be sorted in core.
 Spin components of T(2) and E(2):
     alpha-alpha T2 =       0.1311705865D-01 E2=     -0.1450913518D-01
     alpha-beta  T2 =       0.1213383224D+00 E2=     -0.1430858371D+00
     beta-beta   T2 =       0.1311705865D-01 E2=     -0.1450913518D-01
 ANorm=    0.1071248076D+01
 E2 =    -0.1721041074D+00 EUMP2 =    -0.69073278823391D+01
 Second order stability test of a single determinant RHF wave function:
 Stabil:  MDV=134217728
 ***********************************************************************
 Matrix         Lowest Root    Major Pairs
 ***********************************************************************
 Internal RHF     0.0210793    Stable
 RRHF --> CRHF    0.0000037    Stable

 RRHF --> RUHF   -0.0845592    7A=8B 7A=9B 6A=10B 5A=8B 5A=9B 6A=11B 6A=14B
 Not stable.
 ***********************************************************************

 **********************************************************************

            Population analysis using the SCF density.

 **********************************************************************

 Orbital symmetries:
       Occupied  (AG) (BU) (AG) (BU) (AG) (BU) (AG)
       Virtual   (BU) (BU) (AG) (AG) (BU) (BU) (AG)
 The electronic state is 1-AG.
 Alpha  occ. eigenvalues --   -0.84771  -0.78472  -0.70013  -0.55655  -0.37907
 Alpha  occ. eigenvalues --   -0.33693  -0.24077
 Alpha virt. eigenvalues --   -0.01678   0.08392   0.17379   0.34222   0.37202
 Alpha virt. eigenvalues --    0.54991   0.64556
          Condensed to atoms (all electrons):
               1          2          3          4          5          6
     1  H    0.696354   0.144814   0.203748  -0.096404  -0.027566  -0.010318
     2  H    0.144814   0.895309  -0.108714   0.230497  -0.200463   0.040198
     3  H    0.203748  -0.108714   0.764266  -0.209056   0.331059  -0.086325
     4  H   -0.096404   0.230497  -0.209056   1.181396  -0.124690   0.312401
     5  H   -0.027566  -0.200463   0.331059  -0.124690   1.370667  -0.202460
     6  H   -0.010318   0.040198  -0.086325   0.312401  -0.202460   0.731303
     7  H    0.005955  -0.017775   0.023848  -0.145927   0.168051  -0.044464
     8  H    0.001294   0.005455  -0.007470  -0.016175  -0.097322   0.193064
     9  H    0.000476   0.001302  -0.001071  -0.011453  -0.024915  -0.034042
    10  H   -0.000073  -0.000771   0.001598   0.000682   0.011128  -0.024915
    11  H   -0.000090   0.000152  -0.000299   0.003316   0.000682  -0.011453
    12  H   -0.000001  -0.000087   0.000138  -0.000299   0.001598  -0.001071
    13  H   -0.000000   0.000033  -0.000087   0.000152  -0.000771   0.001302
    14  H    0.000003  -0.000000  -0.000001  -0.000090  -0.000073   0.000476
               7          8          9         10         11         12
     1  H    0.005955   0.001294   0.000476  -0.000073  -0.000090  -0.000001
     2  H   -0.017775   0.005455   0.001302  -0.000771   0.000152  -0.000087
     3  H    0.023848  -0.007470  -0.001071   0.001598  -0.000299   0.000138
     4  H   -0.145927  -0.016175  -0.011453   0.000682   0.003316  -0.000299
     5  H    0.168051  -0.097322  -0.024915   0.011128   0.000682   0.001598
     6  H   -0.044464   0.193064  -0.034042  -0.024915  -0.011453  -0.001071
     7  H    0.891928   0.026790   0.193064  -0.097322  -0.016175  -0.007470
     8  H    0.026790   0.891928  -0.044464   0.168051  -0.145927   0.023848
     9  H    0.193064  -0.044464   0.731303  -0.202460   0.312401  -0.086325
    10  H   -0.097322   0.168051  -0.202460   1.370667  -0.124690   0.331059
    11  H   -0.016175  -0.145927   0.312401  -0.124690   1.181396  -0.209056
    12  H   -0.007470   0.023848  -0.086325   0.331059  -0.209056   0.764266
    13  H    0.005455  -0.017775   0.040198  -0.200463   0.230497  -0.108714
    14  H    0.001294   0.005955  -0.010318  -0.027566  -0.096404   0.203748
              13         14
     1  H   -0.000000   0.000003
     2  H    0.000033  -0.000000
     3  H   -0.000087  -0.000001
     4  H    0.000152  -0.000090
     5  H   -0.000771  -0.000073
     6  H    0.001302   0.000476
     7  H    0.005455   0.001294
     8  H   -0.017775   0.005955
     9  H    0.040198  -0.010318
    10  H   -0.200463  -0.027566
    11  H    0.230497  -0.096404
    12  H   -0.108714   0.203748
    13  H    0.895309   0.144814
    14  H    0.144814   0.696354
 Mulliken charges:
               1
     1  H    0.081807
     2  H    0.010051
     3  H    0.088366
     4  H   -0.124351
     5  H   -0.204926
     6  H    0.136305
     7  H    0.012747
     8  H    0.012747
     9  H    0.136305
    10  H   -0.204926
    11  H   -0.124351
    12  H    0.088366
    13  H    0.010051
    14  H    0.081807
 Sum of Mulliken charges =   0.00000
 Mulliken charges with hydrogens summed into heavy atoms:
               1
 Electronic spatial extent (au):  <R**2>=            349.9778
 Charge=              0.0000 electrons
 Dipole moment (field-independent basis, Debye):
    X=              0.0000    Y=              0.0000    Z=             -0.0000  Tot=              0.0000
 Quadrupole moment (field-independent basis, Debye-Ang):
   XX=            -15.5378   YY=            -15.2403   ZZ=            -18.2836
   XY=              7.3296   XZ=             -0.0000   YZ=              0.0000
 Traceless Quadrupole moment (field-independent basis, Debye-Ang):
   XX=              0.8161   YY=              1.1136   ZZ=             -1.9297
   XY=              7.3296   XZ=             -0.0000   YZ=              0.0000
 Octapole moment (field-independent basis, Debye-Ang**2):
  XXX=              0.0000  YYY=              0.0000  ZZZ=              0.0000  XYY=             -0.0000
  XXY=             -0.0000  XXZ=              0.0000  XZZ=              0.0000  YZZ=             -0.0000
  YYZ=              0.0000  XYZ=             -0.0000
 Hexadecapole moment (field-independent basis, Debye-Ang**3):
 XXXX=           -405.1796 YYYY=           -268.5349 ZZZZ=            -22.2027 XXXY=            -95.7444
 XXXZ=             -0.0000 YYYX=            -91.2753 YYYZ=             -0.0000 ZZZX=             -0.0000
 ZZZY=             -0.0000 XXYY=            -54.9915 XXZZ=            -74.7887 YYZZ=            -56.9780
 XXYZ=             -0.0000 YYXZ=             -0.0000 ZZXY=            -51.9167
 N-N= 2.171184615166D+01 E-N=-5.625026636738D+01  KE= 7.047877316871D+00
 Symmetry AG   KE= 4.134551726582D+00
 Symmetry BG   KE= 0.000000000000D+00
 Symmetry AU   KE= 0.000000000000D+00
 Symmetry BU   KE= 2.913325590289D+00

 Test job not archived.
 1\1\GINC-SULU\Stability\RHF\Gen\H14\LCJ1\15-Feb-2017\0\\#rhf/gen scf(s
 ymm,tight,novaracc,noincfock,fulldiag) stable(crhf) guess=read geom=no
 crowd test\\hf stability analysis of h12 triangular lattice, y= 1.0940
 617386278098 alpha= 64.250000000000000\\0,1\H\H,1,1.2146817595\H,1,1.2
 146817595,2,51.5\H,2,1.2146817595,1,128.5,3,0.,0\H,3,1.2146817595,1,18
 0.,2,0.,0\H,4,1.2146817595,2,180.,1,0.,0\H,5,1.2146817595,3,180.,2,0.,
 0\H,6,1.2146817595,4,180.,1,0.,0\H,7,1.2146817595,5,180.,2,0.,0\H,8,1.
 2146817595,6,180.,1,0.,0\H,9,1.2146817595,7,180.,2,0.,0\H,10,1.2146817
 595,8,180.,1,0.,0\H,11,1.2146817595,9,180.,2,0.,0\H,12,1.2146817595,10
 ,180.,1,0.,0\\Version=ES64L-G09RevE.01\State=1-AG\HF=-6.7352238\MP2=-6
 .9073279\RMSD=1.148e-09\Dipole=0.,0.,0.\Quadrupole=0.6067689,-1.434693
 3,0.8279244,0.,5.4493931,0.\PG=C02H [SGH(H14)]\\@


 IF NO USE IS MADE OF THE LABOR OF PAST AGES,
 THE WORLD MUST REMAIN ALWAYS IN THE INFANCY OF KNOWLEDGE.

                          -- CICERO
 Job cpu time:       0 days  0 hours  0 minutes  1.2 seconds.
 File lengths (MBytes):  RWF=     84 Int=      0 D2E=      0 Chk=      2 Scr=      2
 Normal termination of Gaussian 09 at Wed Feb 15 13:13:05 2017.
