 Entering Gaussian System, Link 0=g09
 AtFile(1): H.gbs
            H     0
            S   10   1.00
               1000.000000000000            0.000068713567
                316.227766000000            0.000169141320
                100.000000000000            0.000823394812
                 31.622776600000            0.003425569236
                 10.000000000000            0.013951996000
                  3.162277660000            0.056909313560
                  1.000000000000            0.198286399900
                  0.316227766000            0.496922426700
                  0.100000000000            0.369846276400
                  0.031622776600            0.003752720039
            ****
 Initial command:
 /projects/guscus/apps/gau/g09-e1/g09/l1.exe "/users/lcj1/gaussian/h14_rhf2rows/alpha30/Gau-8982.inp" -scrdir="/users/lcj1/gaussian/h14_rhf2rows/alpha30/"
 Entering Link 1 = /projects/guscus/apps/gau/g09-e1/g09/l1.exe PID=      8983.
  
 Copyright (c) 1988,1990,1992,1993,1995,1998,2003,2009,2015,
            Gaussian, Inc.  All Rights Reserved.
  
 This is part of the Gaussian(R) 09 program.  It is based on
 the Gaussian(R) 03 system (copyright 2003, Gaussian, Inc.),
 the Gaussian(R) 98 system (copyright 1998, Gaussian, Inc.),
 the Gaussian(R) 94 system (copyright 1995, Gaussian, Inc.),
 the Gaussian 92(TM) system (copyright 1992, Gaussian, Inc.),
 the Gaussian 90(TM) system (copyright 1990, Gaussian, Inc.),
 the Gaussian 88(TM) system (copyright 1988, Gaussian, Inc.),
 the Gaussian 86(TM) system (copyright 1986, Carnegie Mellon
 University), and the Gaussian 82(TM) system (copyright 1983,
 Carnegie Mellon University). Gaussian is a federally registered
 trademark of Gaussian, Inc.
  
 This software contains proprietary and confidential information,
 including trade secrets, belonging to Gaussian, Inc.
  
 This software is provided under written license and may be
 used, copied, transmitted, or stored only in accord with that
 written license.
  
 The following legend is applicable only to US Government
 contracts under FAR:
  
                    RESTRICTED RIGHTS LEGEND
  
 Use, reproduction and disclosure by the US Government is
 subject to restrictions as set forth in subparagraphs (a)
 and (c) of the Commercial Computer Software - Restricted
 Rights clause in FAR 52.227-19.
  
 Gaussian, Inc.
 340 Quinnipiac St., Bldg. 40, Wallingford CT 06492
  
  
 ---------------------------------------------------------------
 Warning -- This program may not be used in any manner that
 competes with the business of Gaussian, Inc. or will provide
 assistance to any competitor of Gaussian, Inc.  The licensee
 of this program is prohibited from giving any competitor of
 Gaussian, Inc. access to this program.  By using this program,
 the user acknowledges that Gaussian, Inc. is engaged in the
 business of creating and licensing software in the field of
 computational chemistry and represents and warrants to the
 licensee that it is not a competitor of Gaussian, Inc. and that
 it will not use this program in any manner prohibited above.
 ---------------------------------------------------------------
  

 Cite this work as:
 Gaussian 09, Revision E.01,
 M. J. Frisch, G. W. Trucks, H. B. Schlegel, G. E. Scuseria, 
 M. A. Robb, J. R. Cheeseman, G. Scalmani, V. Barone, B. Mennucci, 
 G. A. Petersson, H. Nakatsuji, M. Caricato, X. Li, H. P. Hratchian, 
 A. F. Izmaylov, J. Bloino, G. Zheng, J. L. Sonnenberg, M. Hada, 
 M. Ehara, K. Toyota, R. Fukuda, J. Hasegawa, M. Ishida, T. Nakajima, 
 Y. Honda, O. Kitao, H. Nakai, T. Vreven, J. A. Montgomery, Jr., 
 J. E. Peralta, F. Ogliaro, M. Bearpark, J. J. Heyd, E. Brothers, 
 K. N. Kudin, V. N. Staroverov, T. Keith, R. Kobayashi, J. Normand, 
 K. Raghavachari, A. Rendell, J. C. Burant, S. S. Iyengar, J. Tomasi, 
 M. Cossi, N. Rega, J. M. Millam, M. Klene, J. E. Knox, J. B. Cross, 
 V. Bakken, C. Adamo, J. Jaramillo, R. Gomperts, R. E. Stratmann, 
 O. Yazyev, A. J. Austin, R. Cammi, C. Pomelli, J. W. Ochterski, 
 R. L. Martin, K. Morokuma, V. G. Zakrzewski, G. A. Voth, 
 P. Salvador, J. J. Dannenberg, S. Dapprich, A. D. Daniels, 
 O. Farkas, J. B. Foresman, J. V. Ortiz, J. Cioslowski, 
 and D. J. Fox, Gaussian, Inc., Wallingford CT, 2013.
 
 ******************************************
 Gaussian 09:  ES64L-G09RevE.01 30-Nov-2015
                15-Feb-2017 
 ******************************************
 %chk=h14.chk
 ----------------------------------------------------------------------
 #rhf/gen scf(symm,tight,novaracc,noincfock,fulldiag) stable(crhf) gues
 s=read geom=nocrowd test
 ----------------------------------------------------------------------
 1/38=1/1;
 2/12=1,17=6,18=5,40=1/2;
 3/5=7,16=1,25=1,30=1,116=1/1,2,3;
 4/5=1,9=4/1;
 5/5=100002,15=2,16=1,32=2,38=6/2;
 8/6=1,10=90,11=11/1,4;
 9/8=4,13=1/2;
 6/7=2,8=2,9=2,10=2,28=1/1;
 99/5=1,9=1/99;
 ----------------------------------------------------------------------
 hf stability analysis of h12 triangular lattice, y= 0.6181745873441064
 6 alpha= 33.500000000000000
 ----------------------------------------------------------------------
 Symbolic Z-matrix:
 Charge =  0 Multiplicity = 1
 H
 H                    1     1.12001 
 H                    1     1.12001  2     113. 
 H                    2     1.12001  1     67.      3     0.       0
 H                    3     1.12001  1     180.     2     0.       0
 H                    4     1.12001  2     180.     1     0.       0
 H                    5     1.12001  3     180.     2     0.       0
 H                    6     1.12001  4     180.     1     0.       0
 H                    7     1.12001  5     180.     2     0.       0
 H                    8     1.12001  6     180.     1     0.       0
 H                    9     1.12001  7     180.     2     0.       0
 H                    10    1.12001  8     180.     1     0.       0
 H                    11    1.12001  9     180.     2     0.       0
 H                    12    1.12001  10    180.     1     0.       0
 
                          Input orientation:                          
 ---------------------------------------------------------------------
 Center     Atomic      Atomic             Coordinates (Angstroms)
 Number     Number       Type             X           Y           Z
 ---------------------------------------------------------------------
      1          1           0        0.000000    0.000000    0.000000
      2          1           0        0.000000    0.000000    1.120009
      3          1           0        1.030974    0.000000   -0.437623
      4          1           0        1.030974    0.000000    0.682387
      5          1           0        2.061948    0.000000   -0.875245
      6          1           0        2.061948    0.000000    0.244764
      7          1           0        3.092922    0.000000   -1.312868
      8          1           0        3.092922    0.000000   -0.192858
      9          1           0        4.123896    0.000000   -1.750490
     10          1           0        4.123896    0.000000   -0.630481
     11          1           0        5.154870    0.000000   -2.188113
     12          1           0        5.154870    0.000000   -1.068103
     13          1           0        6.185844    0.000000   -2.625735
     14          1           0        6.185844    0.000000   -1.505726
 ---------------------------------------------------------------------
                    Distance matrix (angstroms):
                    1          2          3          4          5
     1  H    0.000000
     2  H    1.120009   0.000000
     3  H    1.120009   1.867920   0.000000
     4  H    1.236349   1.120009   1.120009   0.000000
     5  H    2.240019   2.869263   1.120009   1.867920   0.000000
     6  H    2.076425   2.240019   1.236349   1.120009   1.120009
     7  H    3.360028   3.935106   2.240019   2.869263   1.120009
     8  H    3.098929   3.360028   2.076425   2.240019   1.236349
     9  H    4.480037   5.024568   3.360028   3.935106   2.240019
    10  H    4.171813   4.480037   3.098929   3.360028   2.076425
    11  H    5.600047   6.125060   4.480037   5.024568   3.360028
    12  H    5.264364   5.600047   4.171813   4.480037   3.098929
    13  H    6.720056   7.231547   5.600047   6.125060   4.480037
    14  H    6.366465   6.720056   5.264364   5.600047   4.171813
                    6          7          8          9         10
     6  H    0.000000
     7  H    1.867920   0.000000
     8  H    1.120009   1.120009   0.000000
     9  H    2.869263   1.120009   1.867920   0.000000
    10  H    2.240019   1.236349   1.120009   1.120009   0.000000
    11  H    3.935106   2.240019   2.869263   1.120009   1.867920
    12  H    3.360028   2.076425   2.240019   1.236349   1.120009
    13  H    5.024568   3.360028   3.935106   2.240019   2.869263
    14  H    4.480037   3.098929   3.360028   2.076425   2.240019
                   11         12         13         14
    11  H    0.000000
    12  H    1.120009   0.000000
    13  H    1.120009   1.867920   0.000000
    14  H    1.236349   1.120009   1.120009   0.000000
 Stoichiometry    H14
 Framework group  C2H[SGH(H14)]
 Deg. of freedom    13
 Full point group                 C2H     NOp   4
 Largest Abelian subgroup         C2H     NOp   4
 Largest concise Abelian subgroup C2      NOp   2
                         Standard orientation:                         
 ---------------------------------------------------------------------
 Center     Atomic      Atomic             Coordinates (Angstroms)
 Number     Number       Type             X           Y           Z
 ---------------------------------------------------------------------
      1          1           0        3.092922   -0.752863    0.000000
      2          1           0        3.092922   -1.872872    0.000000
      3          1           0        2.061948   -0.315240    0.000000
      4          1           0        2.061948   -1.435250    0.000000
      5          1           0        1.030974    0.122382    0.000000
      6          1           0        1.030974   -0.997627    0.000000
      7          1           0       -0.000000    0.560005    0.000000
      8          1           0       -0.000000   -0.560005    0.000000
      9          1           0       -1.030974    0.997627   -0.000000
     10          1           0       -1.030974   -0.122382   -0.000000
     11          1           0       -2.061948    1.435250   -0.000000
     12          1           0       -2.061948    0.315240   -0.000000
     13          1           0       -3.092922    1.872872   -0.000000
     14          1           0       -3.092922    0.752863   -0.000000
 ---------------------------------------------------------------------
 Rotational constants (GHZ):    136.1507347      7.0672315      6.7184920
 General basis read from cards:  (5D, 7F)
 There are     7 symmetry adapted cartesian basis functions of AG  symmetry.
 There are     0 symmetry adapted cartesian basis functions of BG  symmetry.
 There are     0 symmetry adapted cartesian basis functions of AU  symmetry.
 There are     7 symmetry adapted cartesian basis functions of BU  symmetry.
 There are     7 symmetry adapted basis functions of AG  symmetry.
 There are     0 symmetry adapted basis functions of BG  symmetry.
 There are     0 symmetry adapted basis functions of AU  symmetry.
 There are     7 symmetry adapted basis functions of BU  symmetry.
    14 basis functions,   140 primitive gaussians,    14 cartesian basis functions
     7 alpha electrons        7 beta electrons
       nuclear repulsion energy        22.7553877855 Hartrees.
 NAtoms=   14 NActive=   14 NUniq=    7 SFac= 4.00D+00 NAtFMM=   60 NAOKFM=F Big=F
 Integral buffers will be    131072 words long.
 Regular integral format.
 Two-electron integral symmetry is turned on.
 One-electron integrals computed using PRISM.
 NBasis=    14 RedAO= T EigKep=  1.49D-01  NBF=     7     0     0     7
 NBsUse=    14 1.00D-06 EigRej= -1.00D+00 NBFU=     7     0     0     7
 Initial guess from the checkpoint file:  "h14.chk"
 B after Tr=     0.000000   -0.000000   -0.000000
         Rot=    0.999992    0.000000    0.000000   -0.004107 Ang=  -0.47 deg.
 Initial guess orbital symmetries:
       Occupied  (AG) (BU) (AG) (BU) (BU) (AG) (AG)
       Virtual   (BU) (BU) (AG) (AG) (BU) (AG) (BU)
 Keep R1 ints in memory in symmetry-blocked form, NReq=924780.
 Requested convergence on RMS density matrix=1.00D-08 within 128 cycles.
 Requested convergence on MAX density matrix=1.00D-06.
 Requested convergence on             energy=1.00D-06.
 No special actions if energy rises.
 SCF Done:  E(RHF) =  -6.87096213904     A.U. after   10 cycles
            NFock= 10  Conv=0.13D-08     -V/T= 1.9677
 Range of M.O.s used for correlation:     1    14
 NBasis=    14 NAE=     7 NBE=     7 NFC=     0 NFV=     0
 NROrb=     14 NOA=     7 NOB=     7 NVA=     7 NVB=     7
 Semi-Direct transformation.
 ModeAB=           4 MOrb=             7 LenV=     134066212
 LASXX=         4102 LTotXX=        4102 LenRXX=        9443
 LTotAB=        5341 MaxLAS=        5488 LenRXY=           0
 NonZer=       13545 LenScr=      655360 LnRSAI=        5488
 LnScr1=      655360 LExtra=           0 Total=      1325651
 MaxDsk=          -1 SrtSym=           T ITran=            3
 JobTyp=0 Pass  1:  I=   1 to   7.
 (rs|ai) integrals will be sorted in core.
 Spin components of T(2) and E(2):
     alpha-alpha T2 =       0.1154926532D-01 E2=     -0.1391745066D-01
     alpha-beta  T2 =       0.1008526771D+00 E2=     -0.1317500405D+00
     beta-beta   T2 =       0.1154926532D-01 E2=     -0.1391745066D-01
 ANorm=    0.1060165651D+01
 E2 =    -0.1595849419D+00 EUMP2 =    -0.70305470808977D+01
 Second order stability test of a single determinant RHF wave function:
 Stabil:  MDV=134217728
 ***********************************************************************
 Matrix         Lowest Root    Major Pairs
 ***********************************************************************
 Internal RHF     0.1016767    Stable
 RRHF --> CRHF    0.0808703    Stable

 RRHF --> RUHF   -0.0518588    6A=8B 7A=9B 4A=10B 5A=11B 3A=12B 6A=9B 7A=12B 5A=1
 3B 2A=13B 3A=9B
 Not stable.
 ***********************************************************************

 **********************************************************************

            Population analysis using the SCF density.

 **********************************************************************

 Orbital symmetries:
       Occupied  (AG) (BU) (AG) (BU) (BU) (AG) (AG)
       Virtual   (BU) (BU) (AG) (AG) (BU) (AG) (BU)
 The electronic state is 1-AG.
 Alpha  occ. eigenvalues --   -0.87948  -0.81209  -0.70546  -0.54981  -0.41993
 Alpha  occ. eigenvalues --   -0.35989  -0.31946
 Alpha virt. eigenvalues --   -0.00252   0.10195   0.19293   0.41253   0.43130
 Alpha virt. eigenvalues --    0.66423   0.75501
          Condensed to atoms (all electrons):
               1          2          3          4          5          6
     1  H    0.775677   0.252718   0.143748  -0.105987   0.023173  -0.146839
     2  H    0.252718   0.778028  -0.128442   0.141099  -0.026421  -0.046553
     3  H    0.143748  -0.128442   1.122251  -0.154360   0.364444  -0.079616
     4  H   -0.105987   0.141099  -0.154360   0.795096  -0.118226   0.397889
     5  H    0.023173  -0.026421   0.364444  -0.118226   0.736647  -0.127617
     6  H   -0.146839  -0.046553  -0.079616   0.397889  -0.127617   1.192583
     7  H    0.009861   0.004264  -0.035471  -0.025024   0.160595  -0.133812
     8  H   -0.004796   0.010924  -0.124481   0.007294  -0.050749   0.090044
     9  H   -0.001011  -0.000144   0.000801   0.003987  -0.025753   0.008724
    10  H    0.001503   0.000553  -0.004126  -0.002668  -0.035704  -0.025753
    11  H   -0.000198  -0.000020  -0.000270   0.000605  -0.002668   0.003987
    12  H    0.000069  -0.000239   0.004269  -0.000270  -0.004126   0.000801
    13  H    0.000005   0.000011  -0.000239  -0.000020   0.000553  -0.000144
    14  H    0.000036   0.000005   0.000069  -0.000198   0.001503  -0.001011
               7          8          9         10         11         12
     1  H    0.009861  -0.004796  -0.001011   0.001503  -0.000198   0.000069
     2  H    0.004264   0.010924  -0.000144   0.000553  -0.000020  -0.000239
     3  H   -0.035471  -0.124481   0.000801  -0.004126  -0.000270   0.004269
     4  H   -0.025024   0.007294   0.003987  -0.002668   0.000605  -0.000270
     5  H    0.160595  -0.050749  -0.025753  -0.035704  -0.002668  -0.004126
     6  H   -0.133812   0.090044   0.008724  -0.025753   0.003987   0.000801
     7  H    0.899672   0.181812   0.090044  -0.050749   0.007294  -0.124481
     8  H    0.181812   0.899672  -0.133812   0.160595  -0.025024  -0.035471
     9  H    0.090044  -0.133812   1.192583  -0.127617   0.397889  -0.079616
    10  H   -0.050749   0.160595  -0.127617   0.736647  -0.118226   0.364444
    11  H    0.007294  -0.025024   0.397889  -0.118226   0.795096  -0.154360
    12  H   -0.124481  -0.035471  -0.079616   0.364444  -0.154360   1.122251
    13  H    0.010924   0.004264  -0.046553  -0.026421   0.141099  -0.128442
    14  H   -0.004796   0.009861  -0.146839   0.023173  -0.105987   0.143748
              13         14
     1  H    0.000005   0.000036
     2  H    0.000011   0.000005
     3  H   -0.000239   0.000069
     4  H   -0.000020  -0.000198
     5  H    0.000553   0.001503
     6  H   -0.000144  -0.001011
     7  H    0.010924  -0.004796
     8  H    0.004264   0.009861
     9  H   -0.046553  -0.146839
    10  H   -0.026421   0.023173
    11  H    0.141099  -0.105987
    12  H   -0.128442   0.143748
    13  H    0.778028   0.252718
    14  H    0.252718   0.775677
 Mulliken charges:
               1
     1  H    0.052041
     2  H    0.014218
     3  H   -0.108576
     4  H    0.060785
     5  H    0.104348
     6  H   -0.132683
     7  H    0.009869
     8  H    0.009869
     9  H   -0.132683
    10  H    0.104348
    11  H    0.060785
    12  H   -0.108576
    13  H    0.014218
    14  H    0.052041
 Sum of Mulliken charges =  -0.00000
 Mulliken charges with hydrogens summed into heavy atoms:
               1
 Electronic spatial extent (au):  <R**2>=            308.4557
 Charge=             -0.0000 electrons
 Dipole moment (field-independent basis, Debye):
    X=             -0.0000    Y=              0.0000    Z=             -0.0000  Tot=              0.0000
 Quadrupole moment (field-independent basis, Debye-Ang):
   XX=            -17.3829   YY=            -20.8973   ZZ=            -18.1016
   XY=             -1.9165   XZ=              0.0000   YZ=             -0.0000
 Traceless Quadrupole moment (field-independent basis, Debye-Ang):
   XX=              1.4110   YY=             -2.1034   ZZ=              0.6923
   XY=             -1.9165   XZ=              0.0000   YZ=             -0.0000
 Octapole moment (field-independent basis, Debye-Ang**2):
  XXX=             -0.0000  YYY=             -0.0000  ZZZ=              0.0000  XYY=             -0.0000
  XXY=              0.0000  XXZ=              0.0000  XZZ=              0.0000  YZZ=             -0.0000
  YYZ=              0.0000  XYZ=              0.0000
 Hexadecapole moment (field-independent basis, Debye-Ang**3):
 XXXX=           -501.0559 YYYY=           -153.1299 ZZZZ=            -21.7842 XXXY=             85.9560
 XXXZ=             -0.0000 YYYX=             99.4759 YYYZ=              0.0000 ZZZX=             -0.0000
 ZZZY=              0.0000 XXYY=           -102.8078 XXZZ=            -86.6166 YYZZ=            -28.5837
 XXYZ=              0.0000 YYXZ=             -0.0000 ZZXY=             33.0648
 N-N= 2.275538778549D+01 E-N=-5.826060569120D+01  KE= 7.100147977175D+00
 Symmetry AG   KE= 4.209628347998D+00
 Symmetry BG   KE= 0.000000000000D+00
 Symmetry AU   KE= 0.000000000000D+00
 Symmetry BU   KE= 2.890519629177D+00

 Test job not archived.
 1\1\GINC-SULU\Stability\RHF\Gen\H14\LCJ1\15-Feb-2017\0\\#rhf/gen scf(s
 ymm,tight,novaracc,noincfock,fulldiag) stable(crhf) guess=read geom=no
 crowd test\\hf stability analysis of h12 triangular lattice, y= 0.6181
 7458734410646 alpha= 33.500000000000000\\0,1\H\H,1,1.1200093282\H,1,1.
 1200093282,2,113.\H,2,1.1200093282,1,67.,3,0.,0\H,3,1.1200093282,1,180
 .,2,0.,0\H,4,1.1200093282,2,180.,1,0.,0\H,5,1.1200093282,3,180.,2,0.,0
 \H,6,1.1200093282,4,180.,1,0.,0\H,7,1.1200093282,5,180.,2,0.,0\H,8,1.1
 200093282,6,180.,1,0.,0\H,9,1.1200093282,7,180.,2,0.,0\H,10,1.12000932
 82,8,180.,1,0.,0\H,11,1.1200093282,9,180.,2,0.,0\H,12,1.1200093282,10,
 180.,1,0.,0\\Version=ES64L-G09RevE.01\State=1-AG\HF=-6.8709621\MP2=-7.
 0305471\RMSD=1.338e-09\Dipole=0.,0.,0.\Quadrupole=1.0490704,0.5147289,
 -1.5637993,0.,-1.4248578,0.\PG=C02H [SGH(H14)]\\@


 THE PROBLEM WITH THE LADDER OF SUCCESS IS YOU CAN'T
 CLIMB IT WHILE YOU'RE TWIDDLING YOUR THUMBS.
 Job cpu time:       0 days  0 hours  0 minutes  1.3 seconds.
 File lengths (MBytes):  RWF=     84 Int=      0 D2E=      0 Chk=      2 Scr=      2
 Normal termination of Gaussian 09 at Wed Feb 15 13:07:22 2017.
