 Entering Gaussian System, Link 0=g09
 AtFile(1): H.gbs
            H     0
            S   10   1.00
               1000.000000000000            0.000068713567
                316.227766000000            0.000169141320
                100.000000000000            0.000823394812
                 31.622776600000            0.003425569236
                 10.000000000000            0.013951996000
                  3.162277660000            0.056909313560
                  1.000000000000            0.198286399900
                  0.316227766000            0.496922426700
                  0.100000000000            0.369846276400
                  0.031622776600            0.003752720039
            ****
 Initial command:
 /projects/guscus/apps/gau/g09-e1/g09/l1.exe "/users/lcj1/gaussian/h14_rhf2rows/alpha30/Gau-11788.inp" -scrdir="/users/lcj1/gaussian/h14_rhf2rows/alpha30/"
 Entering Link 1 = /projects/guscus/apps/gau/g09-e1/g09/l1.exe PID=     11789.
  
 Copyright (c) 1988,1990,1992,1993,1995,1998,2003,2009,2015,
            Gaussian, Inc.  All Rights Reserved.
  
 This is part of the Gaussian(R) 09 program.  It is based on
 the Gaussian(R) 03 system (copyright 2003, Gaussian, Inc.),
 the Gaussian(R) 98 system (copyright 1998, Gaussian, Inc.),
 the Gaussian(R) 94 system (copyright 1995, Gaussian, Inc.),
 the Gaussian 92(TM) system (copyright 1992, Gaussian, Inc.),
 the Gaussian 90(TM) system (copyright 1990, Gaussian, Inc.),
 the Gaussian 88(TM) system (copyright 1988, Gaussian, Inc.),
 the Gaussian 86(TM) system (copyright 1986, Carnegie Mellon
 University), and the Gaussian 82(TM) system (copyright 1983,
 Carnegie Mellon University). Gaussian is a federally registered
 trademark of Gaussian, Inc.
  
 This software contains proprietary and confidential information,
 including trade secrets, belonging to Gaussian, Inc.
  
 This software is provided under written license and may be
 used, copied, transmitted, or stored only in accord with that
 written license.
  
 The following legend is applicable only to US Government
 contracts under FAR:
  
                    RESTRICTED RIGHTS LEGEND
  
 Use, reproduction and disclosure by the US Government is
 subject to restrictions as set forth in subparagraphs (a)
 and (c) of the Commercial Computer Software - Restricted
 Rights clause in FAR 52.227-19.
  
 Gaussian, Inc.
 340 Quinnipiac St., Bldg. 40, Wallingford CT 06492
  
  
 ---------------------------------------------------------------
 Warning -- This program may not be used in any manner that
 competes with the business of Gaussian, Inc. or will provide
 assistance to any competitor of Gaussian, Inc.  The licensee
 of this program is prohibited from giving any competitor of
 Gaussian, Inc. access to this program.  By using this program,
 the user acknowledges that Gaussian, Inc. is engaged in the
 business of creating and licensing software in the field of
 computational chemistry and represents and warrants to the
 licensee that it is not a competitor of Gaussian, Inc. and that
 it will not use this program in any manner prohibited above.
 ---------------------------------------------------------------
  

 Cite this work as:
 Gaussian 09, Revision E.01,
 M. J. Frisch, G. W. Trucks, H. B. Schlegel, G. E. Scuseria, 
 M. A. Robb, J. R. Cheeseman, G. Scalmani, V. Barone, B. Mennucci, 
 G. A. Petersson, H. Nakatsuji, M. Caricato, X. Li, H. P. Hratchian, 
 A. F. Izmaylov, J. Bloino, G. Zheng, J. L. Sonnenberg, M. Hada, 
 M. Ehara, K. Toyota, R. Fukuda, J. Hasegawa, M. Ishida, T. Nakajima, 
 Y. Honda, O. Kitao, H. Nakai, T. Vreven, J. A. Montgomery, Jr., 
 J. E. Peralta, F. Ogliaro, M. Bearpark, J. J. Heyd, E. Brothers, 
 K. N. Kudin, V. N. Staroverov, T. Keith, R. Kobayashi, J. Normand, 
 K. Raghavachari, A. Rendell, J. C. Burant, S. S. Iyengar, J. Tomasi, 
 M. Cossi, N. Rega, J. M. Millam, M. Klene, J. E. Knox, J. B. Cross, 
 V. Bakken, C. Adamo, J. Jaramillo, R. Gomperts, R. E. Stratmann, 
 O. Yazyev, A. J. Austin, R. Cammi, C. Pomelli, J. W. Ochterski, 
 R. L. Martin, K. Morokuma, V. G. Zakrzewski, G. A. Voth, 
 P. Salvador, J. J. Dannenberg, S. Dapprich, A. D. Daniels, 
 O. Farkas, J. B. Foresman, J. V. Ortiz, J. Cioslowski, 
 and D. J. Fox, Gaussian, Inc., Wallingford CT, 2013.
 
 ******************************************
 Gaussian 09:  ES64L-G09RevE.01 30-Nov-2015
                15-Feb-2017 
 ******************************************
 %chk=h14.chk
 ----------------------------------------------------------------------
 #rhf/gen scf(symm,tight,novaracc,noincfock,fulldiag) stable(crhf) gues
 s=read geom=nocrowd test
 ----------------------------------------------------------------------
 1/38=1/1;
 2/12=1,17=6,18=5,40=1/2;
 3/5=7,16=1,25=1,30=1,116=1/1,2,3;
 4/5=1,9=4/1;
 5/5=100002,15=2,16=1,32=2,38=6/2;
 8/6=1,10=90,11=11/1,4;
 9/8=4,13=1/2;
 6/7=2,8=2,9=2,10=2,28=1/1;
 99/5=1,9=1/99;
 ----------------------------------------------------------------------
 hf stability analysis of h12 triangular lattice, y= 0.8368882343931486
 3 alpha= 50.500000000000000
 ----------------------------------------------------------------------
 Symbolic Z-matrix:
 Charge =  0 Multiplicity = 1
 H
 H                    1     1.08458 
 H                    1     1.08458  2     79. 
 H                    2     1.08458  1     101.     3     0.       0
 H                    3     1.08458  1     180.     2     0.       0
 H                    4     1.08458  2     180.     1     0.       0
 H                    5     1.08458  3     180.     2     0.       0
 H                    6     1.08458  4     180.     1     0.       0
 H                    7     1.08458  5     180.     2     0.       0
 H                    8     1.08458  6     180.     1     0.       0
 H                    9     1.08458  7     180.     2     0.       0
 H                    10    1.08458  8     180.     1     0.       0
 H                    11    1.08458  9     180.     2     0.       0
 H                    12    1.08458  10    180.     1     0.       0
 
                          Input orientation:                          
 ---------------------------------------------------------------------
 Center     Atomic      Atomic             Coordinates (Angstroms)
 Number     Number       Type             X           Y           Z
 ---------------------------------------------------------------------
      1          1           0        0.000000    0.000000    0.000000
      2          1           0        0.000000    0.000000    1.084580
      3          1           0        1.064653    0.000000    0.206948
      4          1           0        1.064653    0.000000    1.291527
      5          1           0        2.129305    0.000000    0.413895
      6          1           0        2.129305    0.000000    1.498475
      7          1           0        3.193958    0.000000    0.620843
      8          1           0        3.193958    0.000000    1.705422
      9          1           0        4.258611    0.000000    0.827790
     10          1           0        4.258611    0.000000    1.912370
     11          1           0        5.323264    0.000000    1.034738
     12          1           0        5.323264    0.000000    2.119317
     13          1           0        6.387916    0.000000    1.241685
     14          1           0        6.387916    0.000000    2.326265
 ---------------------------------------------------------------------
                    Distance matrix (angstroms):
                    1          2          3          4          5
     1  H    0.000000
     2  H    1.084580   0.000000
     3  H    1.084580   1.379755   0.000000
     4  H    1.673776   1.084580   1.084580   0.000000
     5  H    2.169159   2.232434   1.084580   1.379755   0.000000
     6  H    2.603722   2.169159   1.673776   1.084580   1.084580
     7  H    3.253739   3.227448   2.169159   2.232434   1.084580
     8  H    3.620750   3.253739   2.603722   2.169159   1.673776
     9  H    4.338318   4.266346   3.253739   3.227448   2.169159
    10  H    4.668289   4.338318   3.620750   3.253739   2.603722
    11  H    5.422898   5.323497   4.338318   4.266346   3.253739
    12  H    5.729628   5.422898   4.668289   4.338318   3.620750
    13  H    6.507477   6.389848   5.422898   5.323497   4.338318
    14  H    6.798307   6.507477   5.729628   5.422898   4.668289
                    6          7          8          9         10
     6  H    0.000000
     7  H    1.379755   0.000000
     8  H    1.084580   1.084580   0.000000
     9  H    2.232434   1.084580   1.379755   0.000000
    10  H    2.169159   1.673776   1.084580   1.084580   0.000000
    11  H    3.227448   2.169159   2.232434   1.084580   1.379755
    12  H    3.253739   2.603722   2.169159   1.673776   1.084580
    13  H    4.266346   3.253739   3.227448   2.169159   2.232434
    14  H    4.338318   3.620750   3.253739   2.603722   2.169159
                   11         12         13         14
    11  H    0.000000
    12  H    1.084580   0.000000
    13  H    1.084580   1.379755   0.000000
    14  H    1.673776   1.084580   1.084580   0.000000
 Stoichiometry    H14
 Framework group  C2H[SGH(H14)]
 Deg. of freedom    13
 Full point group                 C2H     NOp   4
 Largest Abelian subgroup         C2H     NOp   4
 Largest concise Abelian subgroup C2      NOp   2
                         Standard orientation:                         
 ---------------------------------------------------------------------
 Center     Atomic      Atomic             Coordinates (Angstroms)
 Number     Number       Type             X           Y           Z
 ---------------------------------------------------------------------
      1          1           0        3.193958    1.163132    0.000000
      2          1           0        3.193958    0.078553    0.000000
      3          1           0        2.129305    0.956185    0.000000
      4          1           0        2.129305   -0.128395   -0.000000
      5          1           0        1.064653    0.749237    0.000000
      6          1           0        1.064653   -0.335342   -0.000000
      7          1           0        0.000000    0.542290    0.000000
      8          1           0       -0.000000   -0.542290   -0.000000
      9          1           0       -1.064653    0.335342   -0.000000
     10          1           0       -1.064653   -0.749237   -0.000000
     11          1           0       -2.129305    0.128395   -0.000000
     12          1           0       -2.129305   -0.956185   -0.000000
     13          1           0       -3.193958   -0.078553   -0.000000
     14          1           0       -3.193958   -1.163132   -0.000000
 ---------------------------------------------------------------------
 Rotational constants (GHZ):    126.7062960      7.5940088      7.1646056
 General basis read from cards:  (5D, 7F)
 There are     7 symmetry adapted cartesian basis functions of AG  symmetry.
 There are     0 symmetry adapted cartesian basis functions of BG  symmetry.
 There are     0 symmetry adapted cartesian basis functions of AU  symmetry.
 There are     7 symmetry adapted cartesian basis functions of BU  symmetry.
 There are     7 symmetry adapted basis functions of AG  symmetry.
 There are     0 symmetry adapted basis functions of BG  symmetry.
 There are     0 symmetry adapted basis functions of AU  symmetry.
 There are     7 symmetry adapted basis functions of BU  symmetry.
    14 basis functions,   140 primitive gaussians,    14 cartesian basis functions
     7 alpha electrons        7 beta electrons
       nuclear repulsion energy        23.1920878469 Hartrees.
 NAtoms=   14 NActive=   14 NUniq=    7 SFac= 4.00D+00 NAtFMM=   60 NAOKFM=F Big=F
 Integral buffers will be    131072 words long.
 Regular integral format.
 Two-electron integral symmetry is turned on.
 One-electron integrals computed using PRISM.
 NBasis=    14 RedAO= T EigKep=  1.19D-01  NBF=     7     0     0     7
 NBsUse=    14 1.00D-06 EigRej= -1.00D+00 NBFU=     7     0     0     7
 Initial guess from the checkpoint file:  "h14.chk"
 B after Tr=    -0.000000    0.000000   -0.000000
         Rot=    0.999992   -0.000000   -0.000000   -0.004107 Ang=  -0.47 deg.
 Initial guess orbital symmetries:
       Occupied  (AG) (BU) (AG) (BU) (BU) (AG) (AG)
       Virtual   (BU) (BU) (AG) (BU) (AG) (AG) (BU)
 Keep R1 ints in memory in symmetry-blocked form, NReq=924976.
 Requested convergence on RMS density matrix=1.00D-08 within 128 cycles.
 Requested convergence on MAX density matrix=1.00D-06.
 Requested convergence on             energy=1.00D-06.
 No special actions if energy rises.
 SCF Done:  E(RHF) =  -6.89452309849     A.U. after    9 cycles
            NFock=  9  Conv=0.93D-08     -V/T= 1.9629
 Range of M.O.s used for correlation:     1    14
 NBasis=    14 NAE=     7 NBE=     7 NFC=     0 NFV=     0
 NROrb=     14 NOA=     7 NOB=     7 NVA=     7 NVB=     7
 Semi-Direct transformation.
 ModeAB=           4 MOrb=             7 LenV=     134065778
 LASXX=         4102 LTotXX=        4102 LenRXX=        9443
 LTotAB=        5341 MaxLAS=        5488 LenRXY=           0
 NonZer=       13545 LenScr=      655360 LnRSAI=        5488
 LnScr1=      655360 LExtra=           0 Total=      1325651
 MaxDsk=          -1 SrtSym=           T ITran=            3
 JobTyp=0 Pass  1:  I=   1 to   7.
 (rs|ai) integrals will be sorted in core.
 Spin components of T(2) and E(2):
     alpha-alpha T2 =       0.1110609289D-01 E2=     -0.1366982553D-01
     alpha-beta  T2 =       0.9725194349D-01 E2=     -0.1304826349D+00
     beta-beta   T2 =       0.1110609289D-01 E2=     -0.1366982553D-01
 ANorm=    0.1058047319D+01
 E2 =    -0.1578222860D+00 EUMP2 =    -0.70523453844601D+01
 Second order stability test of a single determinant RHF wave function:
 Stabil:  MDV=134217728
 ***********************************************************************
 Matrix         Lowest Root    Major Pairs
 ***********************************************************************
 Internal RHF     0.1092263    Stable
 RRHF --> CRHF    0.0735543    Stable

 RRHF --> RUHF   -0.0812908    7A=8B 6A=9B 6A=8B 4A=10B 5A=12B 7A=9B 3A=11B 2A=13
 B 1A=14B
 Not stable.
 ***********************************************************************

 **********************************************************************

            Population analysis using the SCF density.

 **********************************************************************

 Orbital symmetries:
       Occupied  (AG) (BU) (AG) (BU) (BU) (AG) (AG)
       Virtual   (BU) (BU) (AG) (BU) (AG) (AG) (BU)
 The electronic state is 1-AG.
 Alpha  occ. eigenvalues --   -0.89104  -0.82224  -0.70515  -0.54539  -0.45210
 Alpha  occ. eigenvalues --   -0.35838  -0.34181
 Alpha virt. eigenvalues --   -0.01325   0.13489   0.18610   0.42479   0.44528
 Alpha virt. eigenvalues --    0.70712   0.93414
          Condensed to atoms (all electrons):
               1          2          3          4          5          6
     1  H    0.801037   0.301594   0.103016  -0.142142  -0.040170  -0.050151
     2  H    0.301594   0.771804  -0.123204   0.100420  -0.111528   0.001007
     3  H    0.103016  -0.123204   0.864761  -0.114392   0.429874  -0.123543
     4  H   -0.142142   0.100420  -0.114392   1.048780  -0.090774   0.406640
     5  H   -0.040170  -0.111528   0.429874  -0.090774   1.041829  -0.072520
     6  H   -0.050151   0.001007  -0.123543   0.406640  -0.072520   0.794223
     7  H    0.014495   0.002917  -0.013379  -0.102323   0.066371  -0.086420
     8  H    0.006426   0.013549  -0.048935  -0.038915  -0.141105   0.118386
     9  H    0.000156   0.001079  -0.002882   0.001766  -0.022951  -0.027812
    10  H    0.000019  -0.000871   0.005493  -0.000161  -0.001140  -0.022951
    11  H   -0.000334  -0.000030  -0.000056   0.003649  -0.000161   0.001766
    12  H   -0.000052  -0.000291   0.001417  -0.000056   0.005493  -0.002882
    13  H    0.000011   0.000034  -0.000291  -0.000030  -0.000871   0.001079
    14  H    0.000021   0.000011  -0.000052  -0.000334   0.000019   0.000156
               7          8          9         10         11         12
     1  H    0.014495   0.006426   0.000156   0.000019  -0.000334  -0.000052
     2  H    0.002917   0.013549   0.001079  -0.000871  -0.000030  -0.000291
     3  H   -0.013379  -0.048935  -0.002882   0.005493  -0.000056   0.001417
     4  H   -0.102323  -0.038915   0.001766  -0.000161   0.003649  -0.000056
     5  H    0.066371  -0.141105  -0.022951  -0.001140  -0.000161   0.005493
     6  H   -0.086420   0.118386  -0.027812  -0.022951   0.001766  -0.002882
     7  H    0.939933   0.269286   0.118386  -0.141105  -0.038915  -0.048935
     8  H    0.269286   0.939933  -0.086420   0.066371  -0.102323  -0.013379
     9  H    0.118386  -0.086420   0.794223  -0.072520   0.406640  -0.123543
    10  H   -0.141105   0.066371  -0.072520   1.041829  -0.090774   0.429874
    11  H   -0.038915  -0.102323   0.406640  -0.090774   1.048780  -0.114392
    12  H   -0.048935  -0.013379  -0.123543   0.429874  -0.114392   0.864761
    13  H    0.013549   0.002917   0.001007  -0.111528   0.100420  -0.123204
    14  H    0.006426   0.014495  -0.050151  -0.040170  -0.142142   0.103016
              13         14
     1  H    0.000011   0.000021
     2  H    0.000034   0.000011
     3  H   -0.000291  -0.000052
     4  H   -0.000030  -0.000334
     5  H   -0.000871   0.000019
     6  H    0.001079   0.000156
     7  H    0.013549   0.006426
     8  H    0.002917   0.014495
     9  H    0.001007  -0.050151
    10  H   -0.111528  -0.040170
    11  H    0.100420  -0.142142
    12  H   -0.123204   0.103016
    13  H    0.771804   0.301594
    14  H    0.301594   0.801037
 Mulliken charges:
               1
     1  H    0.006074
     2  H    0.043509
     3  H    0.022174
     4  H   -0.072128
     5  H   -0.062364
     6  H    0.063021
     7  H   -0.000285
     8  H   -0.000285
     9  H    0.063021
    10  H   -0.062364
    11  H   -0.072128
    12  H    0.022174
    13  H    0.043509
    14  H    0.006074
 Sum of Mulliken charges =  -0.00000
 Mulliken charges with hydrogens summed into heavy atoms:
               1
 Electronic spatial extent (au):  <R**2>=            293.2996
 Charge=             -0.0000 electrons
 Dipole moment (field-independent basis, Debye):
    X=             -0.0000    Y=              0.0000    Z=             -0.0000  Tot=              0.0000
 Quadrupole moment (field-independent basis, Debye-Ang):
   XX=            -18.9735   YY=            -21.3373   ZZ=            -18.0080
   XY=              0.2633   XZ=             -0.0000   YZ=             -0.0000
 Traceless Quadrupole moment (field-independent basis, Debye-Ang):
   XX=              0.4661   YY=             -1.8977   ZZ=              1.4316
   XY=              0.2633   XZ=             -0.0000   YZ=             -0.0000
 Octapole moment (field-independent basis, Debye-Ang**2):
  XXX=              0.0000  YYY=             -0.0000  ZZZ=              0.0000  XYY=             -0.0000
  XXY=              0.0000  XXZ=              0.0000  XZZ=             -0.0000  YZZ=             -0.0000
  YYZ=              0.0000  XYZ=             -0.0000
 Hexadecapole moment (field-independent basis, Debye-Ang**3):
 XXXX=           -560.9451 YYYY=            -83.4382 ZZZZ=            -21.5851 XXXY=            -51.0300
 XXXZ=             -0.0000 YYYX=            -51.1416 YYYZ=             -0.0000 ZZZX=             -0.0000
 ZZZY=             -0.0000 XXYY=           -106.2837 XXZZ=            -91.9127 YYZZ=            -17.1644
 XXYZ=             -0.0000 YYXZ=             -0.0000 ZZXY=            -16.2554
 N-N= 2.319208784691D+01 E-N=-5.910102066988D+01  KE= 7.159996061759D+00
 Symmetry AG   KE= 4.266320345472D+00
 Symmetry BG   KE= 0.000000000000D+00
 Symmetry AU   KE= 0.000000000000D+00
 Symmetry BU   KE= 2.893675716287D+00

 Test job not archived.
 1\1\GINC-SULU\Stability\RHF\Gen\H14\LCJ1\15-Feb-2017\0\\#rhf/gen scf(s
 ymm,tight,novaracc,noincfock,fulldiag) stable(crhf) guess=read geom=no
 crowd test\\hf stability analysis of h12 triangular lattice, y= 0.8368
 8823439314863 alpha= 50.500000000000000\\0,1\H\H,1,1.0845795164\H,1,1.
 0845795164,2,79.\H,2,1.0845795164,1,101.,3,0.,0\H,3,1.0845795164,1,180
 .,2,0.,0\H,4,1.0845795164,2,180.,1,0.,0\H,5,1.0845795164,3,180.,2,0.,0
 \H,6,1.0845795164,4,180.,1,0.,0\H,7,1.0845795164,5,180.,2,0.,0\H,8,1.0
 845795164,6,180.,1,0.,0\H,9,1.0845795164,7,180.,2,0.,0\H,10,1.08457951
 64,8,180.,1,0.,0\H,11,1.0845795164,9,180.,2,0.,0\H,12,1.0845795164,10,
 180.,1,0.,0\\Version=ES64L-G09RevE.01\State=1-AG\HF=-6.8945231\MP2=-7.
 0523454\RMSD=9.342e-09\Dipole=0.,0.,0.\Quadrupole=0.346513,1.0643535,-
 1.4108665,0.,0.1957208,0.\PG=C02H [SGH(H14)]\\@


 YOU CAN LEAD A BOY TO COLLEGE....
 BUT YOU CANNOT MAKE HIM THINK....
           ELBERT HUBBARD
 Job cpu time:       0 days  0 hours  0 minutes  1.3 seconds.
 File lengths (MBytes):  RWF=     84 Int=      0 D2E=      0 Chk=      2 Scr=      2
 Normal termination of Gaussian 09 at Wed Feb 15 13:10:32 2017.
