 Entering Gaussian System, Link 0=g09
 AtFile(1): H.gbs
            H     0
            S   10   1.00
               1000.000000000000            0.000068713567
                316.227766000000            0.000169141320
                100.000000000000            0.000823394812
                 31.622776600000            0.003425569236
                 10.000000000000            0.013951996000
                  3.162277660000            0.056909313560
                  1.000000000000            0.198286399900
                  0.316227766000            0.496922426700
                  0.100000000000            0.369846276400
                  0.031622776600            0.003752720039
            ****
 Initial command:
 /projects/guscus/apps/gau/g09-e1/g09/l1.exe "/users/lcj1/gaussian/h14_rhf2rows/alpha30/Gau-6952.inp" -scrdir="/users/lcj1/gaussian/h14_rhf2rows/alpha30/"
 Entering Link 1 = /projects/guscus/apps/gau/g09-e1/g09/l1.exe PID=      6953.
  
 Copyright (c) 1988,1990,1992,1993,1995,1998,2003,2009,2015,
            Gaussian, Inc.  All Rights Reserved.
  
 This is part of the Gaussian(R) 09 program.  It is based on
 the Gaussian(R) 03 system (copyright 2003, Gaussian, Inc.),
 the Gaussian(R) 98 system (copyright 1998, Gaussian, Inc.),
 the Gaussian(R) 94 system (copyright 1995, Gaussian, Inc.),
 the Gaussian 92(TM) system (copyright 1992, Gaussian, Inc.),
 the Gaussian 90(TM) system (copyright 1990, Gaussian, Inc.),
 the Gaussian 88(TM) system (copyright 1988, Gaussian, Inc.),
 the Gaussian 86(TM) system (copyright 1986, Carnegie Mellon
 University), and the Gaussian 82(TM) system (copyright 1983,
 Carnegie Mellon University). Gaussian is a federally registered
 trademark of Gaussian, Inc.
  
 This software contains proprietary and confidential information,
 including trade secrets, belonging to Gaussian, Inc.
  
 This software is provided under written license and may be
 used, copied, transmitted, or stored only in accord with that
 written license.
  
 The following legend is applicable only to US Government
 contracts under FAR:
  
                    RESTRICTED RIGHTS LEGEND
  
 Use, reproduction and disclosure by the US Government is
 subject to restrictions as set forth in subparagraphs (a)
 and (c) of the Commercial Computer Software - Restricted
 Rights clause in FAR 52.227-19.
  
 Gaussian, Inc.
 340 Quinnipiac St., Bldg. 40, Wallingford CT 06492
  
  
 ---------------------------------------------------------------
 Warning -- This program may not be used in any manner that
 competes with the business of Gaussian, Inc. or will provide
 assistance to any competitor of Gaussian, Inc.  The licensee
 of this program is prohibited from giving any competitor of
 Gaussian, Inc. access to this program.  By using this program,
 the user acknowledges that Gaussian, Inc. is engaged in the
 business of creating and licensing software in the field of
 computational chemistry and represents and warrants to the
 licensee that it is not a competitor of Gaussian, Inc. and that
 it will not use this program in any manner prohibited above.
 ---------------------------------------------------------------
  

 Cite this work as:
 Gaussian 09, Revision E.01,
 M. J. Frisch, G. W. Trucks, H. B. Schlegel, G. E. Scuseria, 
 M. A. Robb, J. R. Cheeseman, G. Scalmani, V. Barone, B. Mennucci, 
 G. A. Petersson, H. Nakatsuji, M. Caricato, X. Li, H. P. Hratchian, 
 A. F. Izmaylov, J. Bloino, G. Zheng, J. L. Sonnenberg, M. Hada, 
 M. Ehara, K. Toyota, R. Fukuda, J. Hasegawa, M. Ishida, T. Nakajima, 
 Y. Honda, O. Kitao, H. Nakai, T. Vreven, J. A. Montgomery, Jr., 
 J. E. Peralta, F. Ogliaro, M. Bearpark, J. J. Heyd, E. Brothers, 
 K. N. Kudin, V. N. Staroverov, T. Keith, R. Kobayashi, J. Normand, 
 K. Raghavachari, A. Rendell, J. C. Burant, S. S. Iyengar, J. Tomasi, 
 M. Cossi, N. Rega, J. M. Millam, M. Klene, J. E. Knox, J. B. Cross, 
 V. Bakken, C. Adamo, J. Jaramillo, R. Gomperts, R. E. Stratmann, 
 O. Yazyev, A. J. Austin, R. Cammi, C. Pomelli, J. W. Ochterski, 
 R. L. Martin, K. Morokuma, V. G. Zakrzewski, G. A. Voth, 
 P. Salvador, J. J. Dannenberg, S. Dapprich, A. D. Daniels, 
 O. Farkas, J. B. Foresman, J. V. Ortiz, J. Cioslowski, 
 and D. J. Fox, Gaussian, Inc., Wallingford CT, 2013.
 
 ******************************************
 Gaussian 09:  ES64L-G09RevE.01 30-Nov-2015
                15-Feb-2017 
 ******************************************
 %chk=h14.chk
 ----------------------------------------------------------------------
 #rhf/gen scf(symm,tight,novaracc,noincfock,fulldiag) stable(crhf) gues
 s=read geom=nocrowd test
 ----------------------------------------------------------------------
 1/38=1/1;
 2/12=1,17=6,18=5,40=1/2;
 3/5=7,16=1,25=1,30=1,116=1/1,2,3;
 4/5=1,9=4/1;
 5/5=100002,15=2,16=1,32=2,38=6/2;
 8/6=1,10=90,11=11/1,4;
 9/8=4,13=1/2;
 6/7=2,8=2,9=2,10=2,28=1/1;
 99/5=1,9=1/99;
 ----------------------------------------------------------------------
 hf stability analysis of h12 triangular lattice, y= 0.4738346202814235
 9 alpha= 21.250000000000000
 ----------------------------------------------------------------------
 Symbolic Z-matrix:
 Charge =  0 Multiplicity = 1
 H
 H                    1     1.30735 
 H                    1     1.30735  2     137.5 
 H                    2     1.30735  1     42.5     3     0.       0
 H                    3     1.30735  1     180.     2     0.       0
 H                    4     1.30735  2     180.     1     0.       0
 H                    5     1.30735  3     180.     2     0.       0
 H                    6     1.30735  4     180.     1     0.       0
 H                    7     1.30735  5     180.     2     0.       0
 H                    8     1.30735  6     180.     1     0.       0
 H                    9     1.30735  7     180.     2     0.       0
 H                    10    1.30735  8     180.     1     0.       0
 H                    11    1.30735  9     180.     2     0.       0
 H                    12    1.30735  10    180.     1     0.       0
 
                          Input orientation:                          
 ---------------------------------------------------------------------
 Center     Atomic      Atomic             Coordinates (Angstroms)
 Number     Number       Type             X           Y           Z
 ---------------------------------------------------------------------
      1          1           0        0.000000    0.000000    0.000000
      2          1           0        0.000000    0.000000    1.307353
      3          1           0        0.883235    0.000000   -0.963882
      4          1           0        0.883235    0.000000    0.343471
      5          1           0        1.766470    0.000000   -1.927764
      6          1           0        1.766470    0.000000   -0.620411
      7          1           0        2.649705    0.000000   -2.891646
      8          1           0        2.649705    0.000000   -1.584293
      9          1           0        3.532941    0.000000   -3.855528
     10          1           0        3.532941    0.000000   -2.548175
     11          1           0        4.416176    0.000000   -4.819410
     12          1           0        4.416176    0.000000   -3.512057
     13          1           0        5.299411    0.000000   -5.783292
     14          1           0        5.299411    0.000000   -4.475939
 ---------------------------------------------------------------------
                    Distance matrix (angstroms):
                    1          2          3          4          5
     1  H    0.000000
     2  H    1.307353   0.000000
     3  H    1.307353   2.436927   0.000000
     4  H    0.947669   1.307353   1.307353   0.000000
     5  H    2.614707   3.685974   1.307353   2.436927   0.000000
     6  H    1.872252   2.614707   0.947669   1.307353   1.307353
     7  H    3.922060   4.965132   2.614707   3.685974   1.307353
     8  H    3.087219   3.922060   1.872252   2.614707   0.947669
     9  H    5.229414   6.255958   3.922060   4.965132   2.614707
    10  H    4.356015   5.229414   3.087219   3.922060   1.872252
    11  H    6.536767   7.552473   5.229414   6.255958   3.922060
    12  H    5.642442   6.536767   4.356015   5.229414   3.087219
    13  H    7.844121   8.852176   6.536767   7.552473   5.229414
    14  H    6.936698   7.844121   5.642442   6.536767   4.356015
                    6          7          8          9         10
     6  H    0.000000
     7  H    2.436927   0.000000
     8  H    1.307353   1.307353   0.000000
     9  H    3.685974   1.307353   2.436927   0.000000
    10  H    2.614707   0.947669   1.307353   1.307353   0.000000
    11  H    4.965132   2.614707   3.685974   1.307353   2.436927
    12  H    3.922060   1.872252   2.614707   0.947669   1.307353
    13  H    6.255958   3.922060   4.965132   2.614707   3.685974
    14  H    5.229414   3.087219   3.922060   1.872252   2.614707
                   11         12         13         14
    11  H    0.000000
    12  H    1.307353   0.000000
    13  H    1.307353   2.436927   0.000000
    14  H    0.947669   1.307353   1.307353   0.000000
 Stoichiometry    H14
 Framework group  C2H[SGH(H14)]
 Deg. of freedom    13
 Full point group                 C2H     NOp   4
 Largest Abelian subgroup         C2H     NOp   4
 Largest concise Abelian subgroup C2      NOp   2
                         Standard orientation:                         
 ---------------------------------------------------------------------
 Center     Atomic      Atomic             Coordinates (Angstroms)
 Number     Number       Type             X           Y           Z
 ---------------------------------------------------------------------
      1          1           0        2.649705   -2.237969   -0.000000
      2          1           0        2.649705   -3.545323   -0.000000
      3          1           0        1.766470   -1.274087   -0.000000
      4          1           0        1.766470   -2.581441   -0.000000
      5          1           0        0.883235   -0.310205   -0.000000
      6          1           0        0.883235   -1.617559   -0.000000
      7          1           0        0.000000    0.653677    0.000000
      8          1           0       -0.000000   -0.653677    0.000000
      9          1           0       -0.883235    1.617559   -0.000000
     10          1           0       -0.883235    0.310205   -0.000000
     11          1           0       -1.766470    2.581441   -0.000000
     12          1           0       -1.766470    1.274087   -0.000000
     13          1           0       -2.649705    3.545323   -0.000000
     14          1           0       -2.649705    2.237969   -0.000000
 ---------------------------------------------------------------------
 Rotational constants (GHZ):    190.0750200      5.0622580      4.9309327
 General basis read from cards:  (5D, 7F)
 There are     7 symmetry adapted cartesian basis functions of AG  symmetry.
 There are     0 symmetry adapted cartesian basis functions of BG  symmetry.
 There are     0 symmetry adapted cartesian basis functions of AU  symmetry.
 There are     7 symmetry adapted cartesian basis functions of BU  symmetry.
 There are     7 symmetry adapted basis functions of AG  symmetry.
 There are     0 symmetry adapted basis functions of BG  symmetry.
 There are     0 symmetry adapted basis functions of AU  symmetry.
 There are     7 symmetry adapted basis functions of BU  symmetry.
    14 basis functions,   140 primitive gaussians,    14 cartesian basis functions
     7 alpha electrons        7 beta electrons
       nuclear repulsion energy        20.8380093907 Hartrees.
 NAtoms=   14 NActive=   14 NUniq=    7 SFac= 4.00D+00 NAtFMM=   60 NAOKFM=F Big=F
 Integral buffers will be    131072 words long.
 Regular integral format.
 Two-electron integral symmetry is turned on.
 One-electron integrals computed using PRISM.
 NBasis=    14 RedAO= T EigKep=  1.74D-01  NBF=     7     0     0     7
 NBsUse=    14 1.00D-06 EigRej= -1.00D+00 NBFU=     7     0     0     7
 Initial guess from the checkpoint file:  "h14.chk"
 B after Tr=     0.000000   -0.000000    0.000000
         Rot=    0.999992   -0.000000   -0.000000   -0.004107 Ang=  -0.47 deg.
 Initial guess orbital symmetries:
       Occupied  (AG) (BU) (AG) (BU) (AG) (BU) (AG)
       Virtual   (BU) (BU) (AG) (BU) (AG) (BU) (AG)
 Keep R1 ints in memory in symmetry-blocked form, NReq=920426.
 Requested convergence on RMS density matrix=1.00D-08 within 128 cycles.
 Requested convergence on MAX density matrix=1.00D-06.
 Requested convergence on             energy=1.00D-06.
 No special actions if energy rises.
 SCF Done:  E(RHF) =  -6.57663312089     A.U. after   13 cycles
            NFock= 13  Conv=0.27D-08     -V/T= 1.8896
 Range of M.O.s used for correlation:     1    14
 NBasis=    14 NAE=     7 NBE=     7 NFC=     0 NFV=     0
 NROrb=     14 NOA=     7 NOB=     7 NVA=     7 NVB=     7
 Semi-Direct transformation.
 ModeAB=           4 MOrb=             7 LenV=     134071364
 LASXX=         4102 LTotXX=        4102 LenRXX=        9443
 LTotAB=        5341 MaxLAS=        5488 LenRXY=           0
 NonZer=       13545 LenScr=      655360 LnRSAI=        5488
 LnScr1=      655360 LExtra=           0 Total=      1325651
 MaxDsk=          -1 SrtSym=           T ITran=            3
 JobTyp=0 Pass  1:  I=   1 to   7.
 (rs|ai) integrals will be sorted in core.
 Spin components of T(2) and E(2):
     alpha-alpha T2 =       0.7469260893D-02 E2=     -0.8519658882D-02
     alpha-beta  T2 =       0.3273081215D+00 E2=     -0.2008171706D+00
     beta-beta   T2 =       0.7469260893D-02 E2=     -0.8519658882D-02
 ANorm=    0.1158553686D+01
 E2 =    -0.2178564883D+00 EUMP2 =    -0.67944896092029D+01
 Second order stability test of a single determinant RHF wave function:
 Stabil:  MDV=134217728
 ***********************************************************************
 Matrix         Lowest Root    Major Pairs
 ***********************************************************************
 Internal RHF    -0.019482     7A=8A 7A=9A
 RRHF --> CRHF   -0.0669309    7A=8A
 RRHF --> RUHF   -0.2674706    7A=8B 7A=9B 5A=8B
 Not stable.
 ***********************************************************************

 **********************************************************************

            Population analysis using the SCF density.

 **********************************************************************

 Orbital symmetries:
       Occupied  (AG) (BU) (AG) (BU) (AG) (BU) (AG)
       Virtual   (BU) (BU) (AG) (BU) (AG) (BU) (AG)
 The electronic state is 1-AG.
 Alpha  occ. eigenvalues --   -0.83851  -0.77427  -0.70114  -0.58367  -0.41914
 Alpha  occ. eigenvalues --   -0.26813  -0.13652
 Alpha virt. eigenvalues --   -0.03173   0.10489   0.13125   0.23398   0.34616
 Alpha virt. eigenvalues --    0.52367   0.61866
          Condensed to atoms (all electrons):
               1          2          3          4          5          6
     1  H    0.977548  -0.073690   0.230463   0.070274   0.004870  -0.204702
     2  H   -0.073690   1.053749  -0.127142   0.235651   0.001248   0.007893
     3  H    0.230463  -0.127142   1.319484  -0.088640  -0.047214   0.021630
     4  H    0.070274   0.235651  -0.088640   0.546817  -0.027322   0.101095
     5  H    0.004870   0.001248  -0.047214  -0.027322   0.659419  -0.055609
     6  H   -0.204702   0.007893   0.021630   0.101095  -0.055609   1.274275
     7  H    0.003129  -0.000540   0.017947   0.001099  -0.116539  -0.038556
     8  H   -0.013330   0.008539  -0.180881  -0.002853   0.438879   0.021193
     9  H   -0.001055   0.000046  -0.002657   0.000717  -0.053700   0.019191
    10  H    0.003035  -0.000412   0.014074  -0.000974  -0.024547  -0.053700
    11  H   -0.000039   0.000004  -0.000269   0.000025  -0.000974   0.000717
    12  H    0.000135   0.000001   0.000364  -0.000269   0.014074  -0.002657
    13  H   -0.000003  -0.000000   0.000001   0.000004  -0.000412   0.000046
    14  H    0.000042  -0.000003   0.000135  -0.000039   0.003035  -0.001055
               7          8          9         10         11         12
     1  H    0.003129  -0.013330  -0.001055   0.003035  -0.000039   0.000135
     2  H   -0.000540   0.008539   0.000046  -0.000412   0.000004   0.000001
     3  H    0.017947  -0.180881  -0.002657   0.014074  -0.000269   0.000364
     4  H    0.001099  -0.002853   0.000717  -0.000974   0.000025  -0.000269
     5  H   -0.116539   0.438879  -0.053700  -0.024547  -0.000974   0.014074
     6  H   -0.038556   0.021193   0.019191  -0.053700   0.000717  -0.002657
     7  H    1.025525  -0.143482   0.021193   0.438879  -0.002853  -0.180881
     8  H   -0.143482   1.025525  -0.038556  -0.116539   0.001099   0.017947
     9  H    0.021193  -0.038556   1.274275  -0.055609   0.101095   0.021630
    10  H    0.438879  -0.116539  -0.055609   0.659419  -0.027322  -0.047214
    11  H   -0.002853   0.001099   0.101095  -0.027322   0.546817  -0.088640
    12  H   -0.180881   0.017947   0.021630  -0.047214  -0.088640   1.319484
    13  H    0.008539  -0.000540   0.007893   0.001248   0.235651  -0.127142
    14  H   -0.013330   0.003129  -0.204702   0.004870   0.070274   0.230463
              13         14
     1  H   -0.000003   0.000042
     2  H   -0.000000  -0.000003
     3  H    0.000001   0.000135
     4  H    0.000004  -0.000039
     5  H   -0.000412   0.003035
     6  H    0.000046  -0.001055
     7  H    0.008539  -0.013330
     8  H   -0.000540   0.003129
     9  H    0.007893  -0.204702
    10  H    0.001248   0.004870
    11  H    0.235651   0.070274
    12  H   -0.127142   0.230463
    13  H    1.053749  -0.073690
    14  H   -0.073690   0.977548
 Mulliken charges:
               1
     1  H    0.003321
     2  H   -0.105343
     3  H   -0.157294
     4  H    0.164415
     5  H    0.204792
     6  H   -0.089762
     7  H   -0.020130
     8  H   -0.020130
     9  H   -0.089762
    10  H    0.204792
    11  H    0.164415
    12  H   -0.157294
    13  H   -0.105343
    14  H    0.003321
 Sum of Mulliken charges =  -0.00000
 Mulliken charges with hydrogens summed into heavy atoms:
               1
 Electronic spatial extent (au):  <R**2>=            417.3356
 Charge=             -0.0000 electrons
 Dipole moment (field-independent basis, Debye):
    X=             -0.0000    Y=              0.0000    Z=              0.0000  Tot=              0.0000
 Quadrupole moment (field-independent basis, Debye-Ang):
   XX=            -26.0946   YY=            -28.7925   ZZ=            -17.9779
   XY=              8.3746   XZ=              0.0000   YZ=             -0.0000
 Traceless Quadrupole moment (field-independent basis, Debye-Ang):
   XX=             -1.8062   YY=             -4.5042   ZZ=              6.3104
   XY=              8.3746   XZ=              0.0000   YZ=             -0.0000
 Octapole moment (field-independent basis, Debye-Ang**2):
  XXX=              0.0000  YYY=              0.0000  ZZZ=              0.0000  XYY=              0.0000
  XXY=             -0.0000  XXZ=              0.0000  XZZ=             -0.0000  YZZ=              0.0000
  YYZ=              0.0000  XYZ=             -0.0000
 Hexadecapole moment (field-independent basis, Debye-Ang**3):
 XXXX=           -444.3497 YYYY=           -668.5266 ZZZZ=            -21.6166 XXXY=            258.1576
 XXXZ=              0.0000 YYYX=            303.5747 YYYZ=             -0.0000 ZZZX=              0.0000
 ZZZY=             -0.0000 XXYY=           -222.5511 XXZZ=            -67.0737 YYZZ=            -87.6808
 XXYZ=             -0.0000 YYXZ=              0.0000 ZZXY=             65.4624
 N-N= 2.083800939068D+01 E-N=-5.477911151957D+01  KE= 7.392592227890D+00
 Symmetry AG   KE= 4.177438256494D+00
 Symmetry BG   KE= 0.000000000000D+00
 Symmetry AU   KE= 0.000000000000D+00
 Symmetry BU   KE= 3.215153971397D+00

 Test job not archived.
 1\1\GINC-SULU\Stability\RHF\Gen\H14\LCJ1\15-Feb-2017\0\\#rhf/gen scf(s
 ymm,tight,novaracc,noincfock,fulldiag) stable(crhf) guess=read geom=no
 crowd test\\hf stability analysis of h12 triangular lattice, y= 0.4738
 3462028142359 alpha= 21.250000000000000\\0,1\H\H,1,1.3073534167\H,1,1.
 3073534167,2,137.5\H,2,1.3073534167,1,42.5,3,0.,0\H,3,1.3073534167,1,1
 80.,2,0.,0\H,4,1.3073534167,2,180.,1,0.,0\H,5,1.3073534167,3,180.,2,0.
 ,0\H,6,1.3073534167,4,180.,1,0.,0\H,7,1.3073534167,5,180.,2,0.,0\H,8,1
 .3073534167,6,180.,1,0.,0\H,9,1.3073534167,7,180.,2,0.,0\H,10,1.307353
 4167,8,180.,1,0.,0\H,11,1.3073534167,9,180.,2,0.,0\H,12,1.3073534167,1
 0,180.,1,0.,0\\Version=ES64L-G09RevE.01\State=1-AG\HF=-6.5766331\MP2=-
 6.7944896\RMSD=2.676e-09\Dipole=0.,0.,0.\Quadrupole=-1.3429027,4.69163
 91,-3.3487364,0.,6.2263226,0.\PG=C02H [SGH(H14)]\\@


 THE VALUE OF PHILOSOPHY IS, IN FACT, TO BE SOUGHT LARGELY IN ITS
 VERY UNCERTAINTY.  THE MAN WHO HAS NO TINCTURE OF PHILOSOPHY GOES
 THROUGH LIFE IMPRISONED IN THE PREJUDICES DERIVED FROM COMMON SENSE,
 FROM THE HABITUAL BELIEFS OF HIS AGE OR HIS NATION, AND FROM
 CONVICTIONS WHICH HAVE GROWN UP IN HIS MIND WITHOUT THE CO-OPERATION
 OR CONSENT OF HIS DELIBERATE REASON.  TO SUCH A MAN THE WORLD TENDS
 TO BE DEFINITE, FINITE, OBVIOUS; COMMON OBJECTS ROUSE NO QUESTIONS,
 AND UNFAMILIAR POSSIBILITIES ARE CONTEMPTUOUSLY REJECTED.

                             -- BERTRAND RUSSELL
 Job cpu time:       0 days  0 hours  0 minutes  1.2 seconds.
 File lengths (MBytes):  RWF=     84 Int=      0 D2E=      0 Chk=      2 Scr=      2
 Normal termination of Gaussian 09 at Wed Feb 15 13:05:05 2017.
