 Entering Gaussian System, Link 0=g09
 AtFile(1): H.gbs
            H     0
            S   10   1.00
               1000.000000000000            0.000068713567
                316.227766000000            0.000169141320
                100.000000000000            0.000823394812
                 31.622776600000            0.003425569236
                 10.000000000000            0.013951996000
                  3.162277660000            0.056909313560
                  1.000000000000            0.198286399900
                  0.316227766000            0.496922426700
                  0.100000000000            0.369846276400
                  0.031622776600            0.003752720039
            ****
 Initial command:
 /projects/guscus/apps/gau/g09-e1/g09/l1.exe "/users/lcj1/gaussian/h14_rhf2rows/alpha30/Gau-8316.inp" -scrdir="/users/lcj1/gaussian/h14_rhf2rows/alpha30/"
 Entering Link 1 = /projects/guscus/apps/gau/g09-e1/g09/l1.exe PID=      8317.
  
 Copyright (c) 1988,1990,1992,1993,1995,1998,2003,2009,2015,
            Gaussian, Inc.  All Rights Reserved.
  
 This is part of the Gaussian(R) 09 program.  It is based on
 the Gaussian(R) 03 system (copyright 2003, Gaussian, Inc.),
 the Gaussian(R) 98 system (copyright 1998, Gaussian, Inc.),
 the Gaussian(R) 94 system (copyright 1995, Gaussian, Inc.),
 the Gaussian 92(TM) system (copyright 1992, Gaussian, Inc.),
 the Gaussian 90(TM) system (copyright 1990, Gaussian, Inc.),
 the Gaussian 88(TM) system (copyright 1988, Gaussian, Inc.),
 the Gaussian 86(TM) system (copyright 1986, Carnegie Mellon
 University), and the Gaussian 82(TM) system (copyright 1983,
 Carnegie Mellon University). Gaussian is a federally registered
 trademark of Gaussian, Inc.
  
 This software contains proprietary and confidential information,
 including trade secrets, belonging to Gaussian, Inc.
  
 This software is provided under written license and may be
 used, copied, transmitted, or stored only in accord with that
 written license.
  
 The following legend is applicable only to US Government
 contracts under FAR:
  
                    RESTRICTED RIGHTS LEGEND
  
 Use, reproduction and disclosure by the US Government is
 subject to restrictions as set forth in subparagraphs (a)
 and (c) of the Commercial Computer Software - Restricted
 Rights clause in FAR 52.227-19.
  
 Gaussian, Inc.
 340 Quinnipiac St., Bldg. 40, Wallingford CT 06492
  
  
 ---------------------------------------------------------------
 Warning -- This program may not be used in any manner that
 competes with the business of Gaussian, Inc. or will provide
 assistance to any competitor of Gaussian, Inc.  The licensee
 of this program is prohibited from giving any competitor of
 Gaussian, Inc. access to this program.  By using this program,
 the user acknowledges that Gaussian, Inc. is engaged in the
 business of creating and licensing software in the field of
 computational chemistry and represents and warrants to the
 licensee that it is not a competitor of Gaussian, Inc. and that
 it will not use this program in any manner prohibited above.
 ---------------------------------------------------------------
  

 Cite this work as:
 Gaussian 09, Revision E.01,
 M. J. Frisch, G. W. Trucks, H. B. Schlegel, G. E. Scuseria, 
 M. A. Robb, J. R. Cheeseman, G. Scalmani, V. Barone, B. Mennucci, 
 G. A. Petersson, H. Nakatsuji, M. Caricato, X. Li, H. P. Hratchian, 
 A. F. Izmaylov, J. Bloino, G. Zheng, J. L. Sonnenberg, M. Hada, 
 M. Ehara, K. Toyota, R. Fukuda, J. Hasegawa, M. Ishida, T. Nakajima, 
 Y. Honda, O. Kitao, H. Nakai, T. Vreven, J. A. Montgomery, Jr., 
 J. E. Peralta, F. Ogliaro, M. Bearpark, J. J. Heyd, E. Brothers, 
 K. N. Kudin, V. N. Staroverov, T. Keith, R. Kobayashi, J. Normand, 
 K. Raghavachari, A. Rendell, J. C. Burant, S. S. Iyengar, J. Tomasi, 
 M. Cossi, N. Rega, J. M. Millam, M. Klene, J. E. Knox, J. B. Cross, 
 V. Bakken, C. Adamo, J. Jaramillo, R. Gomperts, R. E. Stratmann, 
 O. Yazyev, A. J. Austin, R. Cammi, C. Pomelli, J. W. Ochterski, 
 R. L. Martin, K. Morokuma, V. G. Zakrzewski, G. A. Voth, 
 P. Salvador, J. J. Dannenberg, S. Dapprich, A. D. Daniels, 
 O. Farkas, J. B. Foresman, J. V. Ortiz, J. Cioslowski, 
 and D. J. Fox, Gaussian, Inc., Wallingford CT, 2013.
 
 ******************************************
 Gaussian 09:  ES64L-G09RevE.01 30-Nov-2015
                15-Feb-2017 
 ******************************************
 %chk=h14.chk
 ----------------------------------------------------------------------
 #rhf/gen scf(symm,tight,novaracc,noincfock,fulldiag) stable(crhf) gues
 s=read geom=nocrowd test
 ----------------------------------------------------------------------
 1/38=1/1;
 2/12=1,17=6,18=5,40=1/2;
 3/5=7,16=1,25=1,30=1,116=1/1,2,3;
 4/5=1,9=4/1;
 5/5=100002,15=2,16=1,32=2,38=6/2;
 8/6=1,10=90,11=11/1,4;
 9/8=4,13=1/2;
 6/7=2,8=2,9=2,10=2,28=1/1;
 99/5=1,9=1/99;
 ----------------------------------------------------------------------
 hf stability analysis of h12 triangular lattice, y= 0.5715322184328752
 7 alpha= 29.500000000000000
 ----------------------------------------------------------------------
 Symbolic Z-matrix:
 Charge =  0 Multiplicity = 1
 H
 H                    1     1.16065 
 H                    1     1.16065  2     121. 
 H                    2     1.16065  1     59.      3     0.       0
 H                    3     1.16065  1     180.     2     0.       0
 H                    4     1.16065  2     180.     1     0.       0
 H                    5     1.16065  3     180.     2     0.       0
 H                    6     1.16065  4     180.     1     0.       0
 H                    7     1.16065  5     180.     2     0.       0
 H                    8     1.16065  6     180.     1     0.       0
 H                    9     1.16065  7     180.     2     0.       0
 H                    10    1.16065  8     180.     1     0.       0
 H                    11    1.16065  9     180.     2     0.       0
 H                    12    1.16065  10    180.     1     0.       0
 
                          Input orientation:                          
 ---------------------------------------------------------------------
 Center     Atomic      Atomic             Coordinates (Angstroms)
 Number     Number       Type             X           Y           Z
 ---------------------------------------------------------------------
      1          1           0        0.000000    0.000000    0.000000
      2          1           0        0.000000    0.000000    1.160652
      3          1           0        0.994873    0.000000   -0.597780
      4          1           0        0.994873    0.000000    0.562872
      5          1           0        1.989745    0.000000   -1.195560
      6          1           0        1.989745    0.000000   -0.034908
      7          1           0        2.984618    0.000000   -1.793339
      8          1           0        2.984618    0.000000   -0.632688
      9          1           0        3.979490    0.000000   -2.391119
     10          1           0        3.979490    0.000000   -1.230467
     11          1           0        4.974363    0.000000   -2.988899
     12          1           0        4.974363    0.000000   -1.828247
     13          1           0        5.969236    0.000000   -3.586679
     14          1           0        5.969236    0.000000   -2.426027
 ---------------------------------------------------------------------
                    Distance matrix (angstroms):
                    1          2          3          4          5
     1  H    0.000000
     2  H    1.160652   0.000000
     3  H    1.160652   2.020360   0.000000
     4  H    1.143064   1.160652   1.160652   0.000000
     5  H    2.321303   3.083961   1.160652   2.020360   0.000000
     6  H    1.990051   2.321303   1.143064   1.160652   1.160652
     7  H    3.481955   4.199286   2.321303   3.083961   1.160652
     8  H    3.050940   3.481955   1.990051   2.321303   1.143064
     9  H    4.642606   5.333987   3.481955   4.199286   2.321303
    10  H    4.165380   4.642606   3.050940   3.481955   1.990051
    11  H    5.803258   6.477890   4.642606   5.333987   3.481955
    12  H    5.299696   5.803258   4.165380   4.642606   3.050940
    13  H    6.963910   7.626855   5.803258   6.477890   4.642606
    14  H    6.443398   6.963910   5.299696   5.803258   4.165380
                    6          7          8          9         10
     6  H    0.000000
     7  H    2.020360   0.000000
     8  H    1.160652   1.160652   0.000000
     9  H    3.083961   1.160652   2.020360   0.000000
    10  H    2.321303   1.143064   1.160652   1.160652   0.000000
    11  H    4.199286   2.321303   3.083961   1.160652   2.020360
    12  H    3.481955   1.990051   2.321303   1.143064   1.160652
    13  H    5.333987   3.481955   4.199286   2.321303   3.083961
    14  H    4.642606   3.050940   3.481955   1.990051   2.321303
                   11         12         13         14
    11  H    0.000000
    12  H    1.160652   0.000000
    13  H    1.160652   2.020360   0.000000
    14  H    1.143064   1.160652   1.160652   0.000000
 Stoichiometry    H14
 Framework group  C2H[SGH(H14)]
 Deg. of freedom    13
 Full point group                 C2H     NOp   4
 Largest Abelian subgroup         C2H     NOp   4
 Largest concise Abelian subgroup C2      NOp   2
                         Standard orientation:                         
 ---------------------------------------------------------------------
 Center     Atomic      Atomic             Coordinates (Angstroms)
 Number     Number       Type             X           Y           Z
 ---------------------------------------------------------------------
      1          1           0        2.984618   -1.213014    0.000000
      2          1           0        2.984618   -2.373665    0.000000
      3          1           0        1.989745   -0.615234    0.000000
      4          1           0        1.989745   -1.775885    0.000000
      5          1           0        0.994873   -0.017454    0.000000
      6          1           0        0.994873   -1.178106    0.000000
      7          1           0       -0.000000    0.580326    0.000000
      8          1           0       -0.000000   -0.580326   -0.000000
      9          1           0       -0.994873    1.178106    0.000000
     10          1           0       -0.994873    0.017454    0.000000
     11          1           0       -1.989745    1.775885    0.000000
     12          1           0       -1.989745    0.615234    0.000000
     13          1           0       -2.984618    2.373665    0.000000
     14          1           0       -2.984618    1.213014    0.000000
 ---------------------------------------------------------------------
 Rotational constants (GHZ):    147.2668074      6.5337790      6.2562100
 General basis read from cards:  (5D, 7F)
 There are     7 symmetry adapted cartesian basis functions of AG  symmetry.
 There are     0 symmetry adapted cartesian basis functions of BG  symmetry.
 There are     0 symmetry adapted cartesian basis functions of AU  symmetry.
 There are     7 symmetry adapted cartesian basis functions of BU  symmetry.
 There are     7 symmetry adapted basis functions of AG  symmetry.
 There are     0 symmetry adapted basis functions of BG  symmetry.
 There are     0 symmetry adapted basis functions of AU  symmetry.
 There are     7 symmetry adapted basis functions of BU  symmetry.
    14 basis functions,   140 primitive gaussians,    14 cartesian basis functions
     7 alpha electrons        7 beta electrons
       nuclear repulsion energy        22.2866944263 Hartrees.
 NAtoms=   14 NActive=   14 NUniq=    7 SFac= 4.00D+00 NAtFMM=   60 NAOKFM=F Big=F
 Integral buffers will be    131072 words long.
 Regular integral format.
 Two-electron integral symmetry is turned on.
 One-electron integrals computed using PRISM.
 NBasis=    14 RedAO= T EigKep=  1.74D-01  NBF=     7     0     0     7
 NBsUse=    14 1.00D-06 EigRej= -1.00D+00 NBFU=     7     0     0     7
 Initial guess from the checkpoint file:  "h14.chk"
 B after Tr=    -0.000000    0.000000    0.000000
         Rot=    0.999992    0.000000   -0.000000   -0.004107 Ang=  -0.47 deg.
 Initial guess orbital symmetries:
       Occupied  (AG) (BU) (AG) (BU) (BU) (AG) (AG)
       Virtual   (BU) (BU) (AG) (AG) (BU) (BU) (AG)
 Keep R1 ints in memory in symmetry-blocked form, NReq=923730.
 Requested convergence on RMS density matrix=1.00D-08 within 128 cycles.
 Requested convergence on MAX density matrix=1.00D-06.
 Requested convergence on             energy=1.00D-06.
 No special actions if energy rises.
 SCF Done:  E(RHF) =  -6.82373387666     A.U. after   10 cycles
            NFock= 10  Conv=0.45D-08     -V/T= 1.9663
 Range of M.O.s used for correlation:     1    14
 NBasis=    14 NAE=     7 NBE=     7 NFC=     0 NFV=     0
 NROrb=     14 NOA=     7 NOB=     7 NVA=     7 NVB=     7
 Semi-Direct transformation.
 ModeAB=           4 MOrb=             7 LenV=     134066730
 LASXX=         4102 LTotXX=        4102 LenRXX=        9443
 LTotAB=        5341 MaxLAS=        5488 LenRXY=           0
 NonZer=       13545 LenScr=      655360 LnRSAI=        5488
 LnScr1=      655360 LExtra=           0 Total=      1325651
 MaxDsk=          -1 SrtSym=           T ITran=            3
 JobTyp=0 Pass  1:  I=   1 to   7.
 (rs|ai) integrals will be sorted in core.
 Spin components of T(2) and E(2):
     alpha-alpha T2 =       0.1218088221D-01 E2=     -0.1418871385D-01
     alpha-beta  T2 =       0.1078647414D+00 E2=     -0.1354914227D+00
     beta-beta   T2 =       0.1218088221D-01 E2=     -0.1418871385D-01
 ANorm=    0.1064061326D+01
 E2 =    -0.1638688504D+00 EUMP2 =    -0.69876027270315D+01
 Second order stability test of a single determinant RHF wave function:
 Stabil:  MDV=134217728
 ***********************************************************************
 Matrix         Lowest Root    Major Pairs
 ***********************************************************************
 Internal RHF     0.0772315    Stable
 RRHF --> CRHF    0.0572156    Stable
 RRHF --> RUHF   -0.056858     7A=8B 6A=8B 5A=10B 7A=9B 5A=14B 5A=11B
 Not stable.
 ***********************************************************************

 **********************************************************************

            Population analysis using the SCF density.

 **********************************************************************

 Orbital symmetries:
       Occupied  (AG) (BU) (AG) (BU) (BU) (AG) (AG)
       Virtual   (BU) (BU) (AG) (AG) (BU) (BU) (AG)
 The electronic state is 1-AG.
 Alpha  occ. eigenvalues --   -0.86567  -0.80025  -0.70394  -0.55329  -0.38373
 Alpha  occ. eigenvalues --   -0.36889  -0.28521
 Alpha virt. eigenvalues --    0.00103   0.08108   0.19269   0.37326   0.42483
 Alpha virt. eigenvalues --    0.62437   0.64753
          Condensed to atoms (all electrons):
               1          2          3          4          5          6
     1  H    0.813259   0.205567   0.184839  -0.102921   0.033891  -0.171691
     2  H    0.205567   0.740185  -0.112086   0.171298  -0.016154  -0.040997
     3  H    0.184839  -0.112086   1.155517  -0.186065   0.337189  -0.091612
     4  H   -0.102921   0.171298  -0.186065   0.775186  -0.105010   0.366890
     5  H    0.033891  -0.016154   0.337189  -0.105010   0.730461  -0.170095
     6  H   -0.171691  -0.040997  -0.091612   0.366890  -0.170095   1.282904
     7  H    0.007343   0.002599  -0.027307  -0.014141   0.181386  -0.116734
     8  H   -0.011346   0.008077  -0.135593   0.018083  -0.041272   0.125766
     9  H   -0.000923  -0.000122   0.000826   0.002667  -0.025839   0.011128
    10  H    0.001489   0.000581  -0.008258  -0.001873  -0.036998  -0.025839
    11  H   -0.000137  -0.000007  -0.000338   0.000301  -0.001873   0.002667
    12  H    0.000131  -0.000158   0.004060  -0.000338  -0.008258   0.000826
    13  H    0.000001   0.000006  -0.000158  -0.000007   0.000581  -0.000122
    14  H    0.000035   0.000001   0.000131  -0.000137   0.001489  -0.000923
               7          8          9         10         11         12
     1  H    0.007343  -0.011346  -0.000923   0.001489  -0.000137   0.000131
     2  H    0.002599   0.008077  -0.000122   0.000581  -0.000007  -0.000158
     3  H   -0.027307  -0.135593   0.000826  -0.008258  -0.000338   0.004060
     4  H   -0.014141   0.018083   0.002667  -0.001873   0.000301  -0.000338
     5  H    0.181386  -0.041272  -0.025839  -0.036998  -0.001873  -0.008258
     6  H   -0.116734   0.125766   0.011128  -0.025839   0.002667   0.000826
     7  H    0.881705   0.106364   0.125766  -0.041272   0.018083  -0.135593
     8  H    0.106364   0.881705  -0.116734   0.181386  -0.014141  -0.027307
     9  H    0.125766  -0.116734   1.282904  -0.170095   0.366890  -0.091612
    10  H   -0.041272   0.181386  -0.170095   0.730461  -0.105010   0.337189
    11  H    0.018083  -0.014141   0.366890  -0.105010   0.775186  -0.186065
    12  H   -0.135593  -0.027307  -0.091612   0.337189  -0.186065   1.155517
    13  H    0.008077   0.002599  -0.040997  -0.016154   0.171298  -0.112086
    14  H   -0.011346   0.007343  -0.171691   0.033891  -0.102921   0.184839
              13         14
     1  H    0.000001   0.000035
     2  H    0.000006   0.000001
     3  H   -0.000158   0.000131
     4  H   -0.000007  -0.000137
     5  H    0.000581   0.001489
     6  H   -0.000122  -0.000923
     7  H    0.008077  -0.011346
     8  H    0.002599   0.007343
     9  H   -0.040997  -0.171691
    10  H   -0.016154   0.033891
    11  H    0.171298  -0.102921
    12  H   -0.112086   0.184839
    13  H    0.740185   0.205567
    14  H    0.205567   0.813259
 Mulliken charges:
               1
     1  H    0.040462
     2  H    0.041210
     3  H   -0.121143
     4  H    0.076066
     5  H    0.120503
     6  H   -0.172167
     7  H    0.015070
     8  H    0.015070
     9  H   -0.172167
    10  H    0.120503
    11  H    0.076066
    12  H   -0.121143
    13  H    0.041210
    14  H    0.040462
 Sum of Mulliken charges =   0.00000
 Mulliken charges with hydrogens summed into heavy atoms:
               1
 Electronic spatial extent (au):  <R**2>=            325.9919
 Charge=              0.0000 electrons
 Dipole moment (field-independent basis, Debye):
    X=             -0.0000    Y=             -0.0000    Z=              0.0000  Tot=              0.0000
 Quadrupole moment (field-independent basis, Debye-Ang):
   XX=            -16.1888   YY=            -19.0987   ZZ=            -18.1907
   XY=             -4.2869   XZ=             -0.0000   YZ=              0.0000
 Traceless Quadrupole moment (field-independent basis, Debye-Ang):
   XX=              1.6373   YY=             -1.2726   ZZ=             -0.3647
   XY=             -4.2869   XZ=             -0.0000   YZ=              0.0000
 Octapole moment (field-independent basis, Debye-Ang**2):
  XXX=              0.0000  YYY=              0.0000  ZZZ=             -0.0000  XYY=             -0.0000
  XXY=              0.0000  XXZ=             -0.0000  XZZ=              0.0000  YZZ=             -0.0000
  YYZ=             -0.0000  XYZ=             -0.0000
 Hexadecapole moment (field-independent basis, Debye-Ang**3):
 XXXX=           -450.5902 YYYY=           -217.7862 ZZZZ=            -21.9830 XXXY=             93.8881
 XXXZ=              0.0000 YYYX=            112.2380 YYYZ=             -0.0000 ZZZX=              0.0000
 ZZZY=             -0.0000 XXYY=            -85.9151 XXZZ=            -81.1555 YYZZ=            -41.0899
 XXYZ=             -0.0000 YYXZ=              0.0000 ZZXY=             43.2820
 N-N= 2.228669442632D+01 E-N=-5.736054369037D+01  KE= 7.061637478988D+00
 Symmetry AG   KE= 4.166222516501D+00
 Symmetry BG   KE= 0.000000000000D+00
 Symmetry AU   KE= 0.000000000000D+00
 Symmetry BU   KE= 2.895414962486D+00

 Test job not archived.
 1\1\GINC-SULU\Stability\RHF\Gen\H14\LCJ1\15-Feb-2017\0\\#rhf/gen scf(s
 ymm,tight,novaracc,noincfock,fulldiag) stable(crhf) guess=read geom=no
 crowd test\\hf stability analysis of h12 triangular lattice, y= 0.5715
 3221843287527 alpha= 29.500000000000000\\0,1\H\H,1,1.1606516224\H,1,1.
 1606516224,2,121.\H,2,1.1606516224,1,59.,3,0.,0\H,3,1.1606516224,1,180
 .,2,0.,0\H,4,1.1606516224,2,180.,1,0.,0\H,5,1.1606516224,3,180.,2,0.,0
 \H,6,1.1606516224,4,180.,1,0.,0\H,7,1.1606516224,5,180.,2,0.,0\H,8,1.1
 606516224,6,180.,1,0.,0\H,9,1.1606516224,7,180.,2,0.,0\H,10,1.16065162
 24,8,180.,1,0.,0\H,11,1.1606516224,9,180.,2,0.,0\H,12,1.1606516224,10,
 180.,1,0.,0\\Version=ES64L-G09RevE.01\State=1-AG\HF=-6.8237339\MP2=-6.
 9876027\RMSD=4.512e-09\Dipole=0.,0.,0.\Quadrupole=1.2172882,-0.2711084
 ,-0.9461798,0.,-3.1871965,0.\PG=C02H [SGH(H14)]\\@


 FROM THE ASHES OF OUR DESPAIR GROW THE FLOWERS OF TOMORROW.
 Job cpu time:       0 days  0 hours  0 minutes  1.3 seconds.
 File lengths (MBytes):  RWF=     84 Int=      0 D2E=      0 Chk=      2 Scr=      2
 Normal termination of Gaussian 09 at Wed Feb 15 13:06:37 2017.
