 Entering Gaussian System, Link 0=g09
 AtFile(1): H.gbs
            H     0
            S   10   1.00
               1000.000000000000            0.000068713567
                316.227766000000            0.000169141320
                100.000000000000            0.000823394812
                 31.622776600000            0.003425569236
                 10.000000000000            0.013951996000
                  3.162277660000            0.056909313560
                  1.000000000000            0.198286399900
                  0.316227766000            0.496922426700
                  0.100000000000            0.369846276400
                  0.031622776600            0.003752720039
            ****
 Initial command:
 /projects/guscus/apps/gau/g09-e1/g09/l1.exe "/users/lcj1/gaussian/h14_rhf2rows/alpha30/Gau-14838.inp" -scrdir="/users/lcj1/gaussian/h14_rhf2rows/alpha30/"
 Entering Link 1 = /projects/guscus/apps/gau/g09-e1/g09/l1.exe PID=     14839.
  
 Copyright (c) 1988,1990,1992,1993,1995,1998,2003,2009,2015,
            Gaussian, Inc.  All Rights Reserved.
  
 This is part of the Gaussian(R) 09 program.  It is based on
 the Gaussian(R) 03 system (copyright 2003, Gaussian, Inc.),
 the Gaussian(R) 98 system (copyright 1998, Gaussian, Inc.),
 the Gaussian(R) 94 system (copyright 1995, Gaussian, Inc.),
 the Gaussian 92(TM) system (copyright 1992, Gaussian, Inc.),
 the Gaussian 90(TM) system (copyright 1990, Gaussian, Inc.),
 the Gaussian 88(TM) system (copyright 1988, Gaussian, Inc.),
 the Gaussian 86(TM) system (copyright 1986, Carnegie Mellon
 University), and the Gaussian 82(TM) system (copyright 1983,
 Carnegie Mellon University). Gaussian is a federally registered
 trademark of Gaussian, Inc.
  
 This software contains proprietary and confidential information,
 including trade secrets, belonging to Gaussian, Inc.
  
 This software is provided under written license and may be
 used, copied, transmitted, or stored only in accord with that
 written license.
  
 The following legend is applicable only to US Government
 contracts under FAR:
  
                    RESTRICTED RIGHTS LEGEND
  
 Use, reproduction and disclosure by the US Government is
 subject to restrictions as set forth in subparagraphs (a)
 and (c) of the Commercial Computer Software - Restricted
 Rights clause in FAR 52.227-19.
  
 Gaussian, Inc.
 340 Quinnipiac St., Bldg. 40, Wallingford CT 06492
  
  
 ---------------------------------------------------------------
 Warning -- This program may not be used in any manner that
 competes with the business of Gaussian, Inc. or will provide
 assistance to any competitor of Gaussian, Inc.  The licensee
 of this program is prohibited from giving any competitor of
 Gaussian, Inc. access to this program.  By using this program,
 the user acknowledges that Gaussian, Inc. is engaged in the
 business of creating and licensing software in the field of
 computational chemistry and represents and warrants to the
 licensee that it is not a competitor of Gaussian, Inc. and that
 it will not use this program in any manner prohibited above.
 ---------------------------------------------------------------
  

 Cite this work as:
 Gaussian 09, Revision E.01,
 M. J. Frisch, G. W. Trucks, H. B. Schlegel, G. E. Scuseria, 
 M. A. Robb, J. R. Cheeseman, G. Scalmani, V. Barone, B. Mennucci, 
 G. A. Petersson, H. Nakatsuji, M. Caricato, X. Li, H. P. Hratchian, 
 A. F. Izmaylov, J. Bloino, G. Zheng, J. L. Sonnenberg, M. Hada, 
 M. Ehara, K. Toyota, R. Fukuda, J. Hasegawa, M. Ishida, T. Nakajima, 
 Y. Honda, O. Kitao, H. Nakai, T. Vreven, J. A. Montgomery, Jr., 
 J. E. Peralta, F. Ogliaro, M. Bearpark, J. J. Heyd, E. Brothers, 
 K. N. Kudin, V. N. Staroverov, T. Keith, R. Kobayashi, J. Normand, 
 K. Raghavachari, A. Rendell, J. C. Burant, S. S. Iyengar, J. Tomasi, 
 M. Cossi, N. Rega, J. M. Millam, M. Klene, J. E. Knox, J. B. Cross, 
 V. Bakken, C. Adamo, J. Jaramillo, R. Gomperts, R. E. Stratmann, 
 O. Yazyev, A. J. Austin, R. Cammi, C. Pomelli, J. W. Ochterski, 
 R. L. Martin, K. Morokuma, V. G. Zakrzewski, G. A. Voth, 
 P. Salvador, J. J. Dannenberg, S. Dapprich, A. D. Daniels, 
 O. Farkas, J. B. Foresman, J. V. Ortiz, J. Cioslowski, 
 and D. J. Fox, Gaussian, Inc., Wallingford CT, 2013.
 
 ******************************************
 Gaussian 09:  ES64L-G09RevE.01 30-Nov-2015
                15-Feb-2017 
 ******************************************
 %chk=h14.chk
 ----------------------------------------------------------------------
 #rhf/gen scf(symm,tight,novaracc,noincfock,fulldiag) stable(crhf) gues
 s=read geom=nocrowd test
 ----------------------------------------------------------------------
 1/38=1/1;
 2/12=1,17=6,18=5,40=1/2;
 3/5=7,16=1,25=1,30=1,116=1/1,2,3;
 4/5=1,9=4/1;
 5/5=100002,15=2,16=1,32=2,38=6/2;
 8/6=1,10=90,11=11/1,4;
 9/8=4,13=1/2;
 6/7=2,8=2,9=2,10=2,28=1/1;
 99/5=1,9=1/99;
 ----------------------------------------------------------------------
 hf stability analysis of h12 triangular lattice, y= 1.2263967642726714
  alpha= 69.000000000000000
 ----------------------------------------------------------------------
 Symbolic Z-matrix:
 Charge =  0 Multiplicity = 1
 H
 H                    1     1.31365 
 H                    1     1.31365  2     42. 
 H                    2     1.31365  1     138.     3     0.       0
 H                    3     1.31365  1     180.     2     0.       0
 H                    4     1.31365  2     180.     1     0.       0
 H                    5     1.31365  3     180.     2     0.       0
 H                    6     1.31365  4     180.     1     0.       0
 H                    7     1.31365  5     180.     2     0.       0
 H                    8     1.31365  6     180.     1     0.       0
 H                    9     1.31365  7     180.     2     0.       0
 H                    10    1.31365  8     180.     1     0.       0
 H                    11    1.31365  9     180.     2     0.       0
 H                    12    1.31365  10    180.     1     0.       0
 
                          Input orientation:                          
 ---------------------------------------------------------------------
 Center     Atomic      Atomic             Coordinates (Angstroms)
 Number     Number       Type             X           Y           Z
 ---------------------------------------------------------------------
      1          1           0        0.000000    0.000000    0.000000
      2          1           0        0.000000    0.000000    1.313649
      3          1           0        0.879003    0.000000    0.976231
      4          1           0        0.879003    0.000000    2.289880
      5          1           0        1.758005    0.000000    1.952463
      6          1           0        1.758005    0.000000    3.266111
      7          1           0        2.637008    0.000000    2.928694
      8          1           0        2.637008    0.000000    4.242343
      9          1           0        3.516010    0.000000    3.904925
     10          1           0        3.516010    0.000000    5.218574
     11          1           0        4.395013    0.000000    4.881156
     12          1           0        4.395013    0.000000    6.194805
     13          1           0        5.274015    0.000000    5.857388
     14          1           0        5.274015    0.000000    7.171036
 ---------------------------------------------------------------------
                    Distance matrix (angstroms):
                    1          2          3          4          5
     1  H    0.000000
     2  H    1.313649   0.000000
     3  H    1.313649   0.941539   0.000000
     4  H    2.452793   1.313649   1.313649   0.000000
     5  H    2.627297   1.870472   1.313649   0.941539   0.000000
     6  H    3.709187   2.627297   2.452793   1.313649   1.313649
     7  H    3.940946   3.092278   2.627297   1.870472   1.313649
     8  H    4.995126   3.940946   3.709187   2.627297   2.452793
     9  H    5.254595   4.367727   3.940946   3.092278   2.627297
    10  H    6.292523   5.254595   4.995126   3.940946   3.709187
    11  H    6.568244   5.660676   5.254595   4.367727   3.940946
    12  H    7.595508   6.568244   6.292523   5.254595   4.995126
    13  H    7.881892   6.961379   6.568244   5.660676   5.254595
    14  H    8.901629   7.881892   7.595508   6.568244   6.292523
                    6          7          8          9         10
     6  H    0.000000
     7  H    0.941539   0.000000
     8  H    1.313649   1.313649   0.000000
     9  H    1.870472   1.313649   0.941539   0.000000
    10  H    2.627297   2.452793   1.313649   1.313649   0.000000
    11  H    3.092278   2.627297   1.870472   1.313649   0.941539
    12  H    3.940946   3.709187   2.627297   2.452793   1.313649
    13  H    4.367727   3.940946   3.092278   2.627297   1.870472
    14  H    5.254595   4.995126   3.940946   3.709187   2.627297
                   11         12         13         14
    11  H    0.000000
    12  H    1.313649   0.000000
    13  H    1.313649   0.941539   0.000000
    14  H    2.452793   1.313649   1.313649   0.000000
 Stoichiometry    H14
 Framework group  C2H[SGH(H14)]
 Deg. of freedom    13
 Full point group                 C2H     NOp   4
 Largest Abelian subgroup         C2H     NOp   4
 Largest concise Abelian subgroup C2      NOp   2
                         Standard orientation:                         
 ---------------------------------------------------------------------
 Center     Atomic      Atomic             Coordinates (Angstroms)
 Number     Number       Type             X           Y           Z
 ---------------------------------------------------------------------
      1          1           0        2.637008    3.585518    0.000000
      2          1           0        2.637008    2.271869    0.000000
      3          1           0        1.758005    2.609287    0.000000
      4          1           0        1.758005    1.295638    0.000000
      5          1           0        0.879003    1.633056    0.000000
      6          1           0        0.879003    0.319407    0.000000
      7          1           0       -0.000000    0.656824   -0.000000
      8          1           0       -0.000000   -0.656824    0.000000
      9          1           0       -0.879003   -0.319407    0.000000
     10          1           0       -0.879003   -1.633056    0.000000
     11          1           0       -1.758005   -1.295638    0.000000
     12          1           0       -1.758005   -2.609287    0.000000
     13          1           0       -2.637008   -2.271869    0.000000
     14          1           0       -2.637008   -3.585518    0.000000
 ---------------------------------------------------------------------
 Rotational constants (GHZ):    192.0098131      5.0112470      4.8837855
 General basis read from cards:  (5D, 7F)
 There are     7 symmetry adapted cartesian basis functions of AG  symmetry.
 There are     0 symmetry adapted cartesian basis functions of BG  symmetry.
 There are     0 symmetry adapted cartesian basis functions of AU  symmetry.
 There are     7 symmetry adapted cartesian basis functions of BU  symmetry.
 There are     7 symmetry adapted basis functions of AG  symmetry.
 There are     0 symmetry adapted basis functions of BG  symmetry.
 There are     0 symmetry adapted basis functions of AU  symmetry.
 There are     7 symmetry adapted basis functions of BU  symmetry.
    14 basis functions,   140 primitive gaussians,    14 cartesian basis functions
     7 alpha electrons        7 beta electrons
       nuclear repulsion energy        20.7832783251 Hartrees.
 NAtoms=   14 NActive=   14 NUniq=    7 SFac= 4.00D+00 NAtFMM=   60 NAOKFM=F Big=F
 Integral buffers will be    131072 words long.
 Regular integral format.
 Two-electron integral symmetry is turned on.
 One-electron integrals computed using PRISM.
 NBasis=    14 RedAO= T EigKep=  1.74D-01  NBF=     7     0     0     7
 NBsUse=    14 1.00D-06 EigRej= -1.00D+00 NBFU=     7     0     0     7
 Initial guess from the checkpoint file:  "h14.chk"
 B after Tr=     0.000000    0.000000    0.000000
         Rot=    0.999992    0.000000    0.000000   -0.004107 Ang=  -0.47 deg.
 Initial guess orbital symmetries:
       Occupied  (AG) (BU) (AG) (BU) (AG) (BU) (AG)
       Virtual   (BU) (BU) (AG) (BU) (AG) (BU) (AG)
 Keep R1 ints in memory in symmetry-blocked form, NReq=920426.
 Requested convergence on RMS density matrix=1.00D-08 within 128 cycles.
 Requested convergence on MAX density matrix=1.00D-06.
 Requested convergence on             energy=1.00D-06.
 No special actions if energy rises.
 SCF Done:  E(RHF) =  -6.57794347501     A.U. after   13 cycles
            NFock= 13  Conv=0.65D-08     -V/T= 1.8845
 Range of M.O.s used for correlation:     1    14
 NBasis=    14 NAE=     7 NBE=     7 NFC=     0 NFV=     0
 NROrb=     14 NOA=     7 NOB=     7 NVA=     7 NVB=     7
 Semi-Direct transformation.
 ModeAB=           4 MOrb=             7 LenV=     134071364
 LASXX=         4102 LTotXX=        4102 LenRXX=        9443
 LTotAB=        5341 MaxLAS=        5488 LenRXY=           0
 NonZer=       13545 LenScr=      655360 LnRSAI=        5488
 LnScr1=      655360 LExtra=           0 Total=      1325651
 MaxDsk=          -1 SrtSym=           T ITran=            3
 JobTyp=0 Pass  1:  I=   1 to   7.
 (rs|ai) integrals will be sorted in core.
 Spin components of T(2) and E(2):
     alpha-alpha T2 =       0.7190395132D-02 E2=     -0.8122964430D-02
     alpha-beta  T2 =       0.3783662361D+00 E2=     -0.2086323656D+00
     beta-beta   T2 =       0.7190395132D-02 E2=     -0.8122964430D-02
 ANorm=    0.1180147036D+01
 E2 =    -0.2248782945D+00 EUMP2 =    -0.68028217695008D+01
 Second order stability test of a single determinant RHF wave function:
 Stabil:  MDV=134217728
 ***********************************************************************
 Matrix         Lowest Root    Major Pairs
 ***********************************************************************
 Internal RHF    -0.0151723    7A=8A 7A=9A
 RRHF --> CRHF   -0.0617658    7A=8A
 RRHF --> RUHF   -0.2776189    7A=8B 7A=9B 5A=8B
 Not stable.
 ***********************************************************************

 **********************************************************************

            Population analysis using the SCF density.

 **********************************************************************

 Orbital symmetries:
       Occupied  (AG) (BU) (AG) (BU) (AG) (BU) (AG)
       Virtual   (BU) (BU) (AG) (BU) (AG) (BU) (AG)
 The electronic state is 1-AG.
 Alpha  occ. eigenvalues --   -0.83400  -0.77358  -0.70132  -0.58472  -0.42399
 Alpha  occ. eigenvalues --   -0.27026  -0.12614
 Alpha virt. eigenvalues --   -0.02550   0.10596   0.13048   0.23037   0.35025
 Alpha virt. eigenvalues --    0.52423   0.62011
          Condensed to atoms (all electrons):
               1          2          3          4          5          6
     1  H    1.079598  -0.077075   0.224484  -0.123758   0.006018   0.002572
     2  H   -0.077075   0.990005   0.089456   0.204493  -0.204246   0.004547
     3  H    0.224484   0.089456   0.530371  -0.070496   0.086674  -0.026143
     4  H   -0.123758   0.204493  -0.070496   1.266475   0.076634  -0.084344
     5  H    0.006018  -0.204246   0.086674   0.076634   1.269183  -0.070187
     6  H    0.002572   0.004547  -0.026143  -0.084344  -0.070187   0.745220
     7  H    0.007971  -0.010584  -0.005304  -0.169490  -0.012377   0.485750
     8  H   -0.000508   0.002601   0.001406   0.015916  -0.030830  -0.140878
     9  H   -0.000499   0.002896  -0.000580   0.016108  -0.047549  -0.049694
    10  H    0.000064  -0.001048   0.000618  -0.003151   0.018393  -0.047549
    11  H   -0.000002   0.000152  -0.000261   0.000411  -0.003151   0.016108
    12  H    0.000004  -0.000035   0.000021  -0.000261   0.000618  -0.000580
    13  H   -0.000004   0.000043  -0.000035   0.000152  -0.001048   0.002896
    14  H   -0.000000  -0.000004   0.000004  -0.000002   0.000064  -0.000499
               7          8          9         10         11         12
     1  H    0.007971  -0.000508  -0.000499   0.000064  -0.000002   0.000004
     2  H   -0.010584   0.002601   0.002896  -0.001048   0.000152  -0.000035
     3  H   -0.005304   0.001406  -0.000580   0.000618  -0.000261   0.000021
     4  H   -0.169490   0.015916   0.016108  -0.003151   0.000411  -0.000261
     5  H   -0.012377  -0.030830  -0.047549   0.018393  -0.003151   0.000618
     6  H    0.485750  -0.140878  -0.049694  -0.047549   0.016108  -0.000580
     7  H    0.984070  -0.132128  -0.140878  -0.030830   0.015916   0.001406
     8  H   -0.132128   0.984070   0.485750  -0.012377  -0.169490  -0.005304
     9  H   -0.140878   0.485750   0.745220  -0.070187  -0.084344  -0.026143
    10  H   -0.030830  -0.012377  -0.070187   1.269183   0.076634   0.086674
    11  H    0.015916  -0.169490  -0.084344   0.076634   1.266475  -0.070496
    12  H    0.001406  -0.005304  -0.026143   0.086674  -0.070496   0.530371
    13  H    0.002601  -0.010584   0.004547  -0.204246   0.204493   0.089456
    14  H   -0.000508   0.007971   0.002572   0.006018  -0.123758   0.224484
              13         14
     1  H   -0.000004  -0.000000
     2  H    0.000043  -0.000004
     3  H   -0.000035   0.000004
     4  H    0.000152  -0.000002
     5  H   -0.001048   0.000064
     6  H    0.002896  -0.000499
     7  H    0.002601  -0.000508
     8  H   -0.010584   0.007971
     9  H    0.004547   0.002572
    10  H   -0.204246   0.006018
    11  H    0.204493  -0.123758
    12  H    0.089456   0.224484
    13  H    0.990005  -0.077075
    14  H   -0.077075   1.079598
 Mulliken charges:
               1
     1  H   -0.118866
     2  H   -0.001200
     3  H    0.169784
     4  H   -0.128686
     5  H   -0.088197
     6  H    0.162781
     7  H    0.004384
     8  H    0.004384
     9  H    0.162781
    10  H   -0.088197
    11  H   -0.128686
    12  H    0.169784
    13  H   -0.001200
    14  H   -0.118866
 Sum of Mulliken charges =   0.00000
 Mulliken charges with hydrogens summed into heavy atoms:
               1
 Electronic spatial extent (au):  <R**2>=            422.0399
 Charge=             -0.0000 electrons
 Dipole moment (field-independent basis, Debye):
    X=             -0.0000    Y=             -0.0000    Z=             -0.0000  Tot=              0.0000
 Quadrupole moment (field-independent basis, Debye-Ang):
   XX=            -26.4156   YY=            -30.1312   ZZ=            -17.9301
   XY=             -9.6356   XZ=              0.0000   YZ=              0.0000
 Traceless Quadrupole moment (field-independent basis, Debye-Ang):
   XX=             -1.5899   YY=             -5.3056   ZZ=              6.8955
   XY=             -9.6356   XZ=              0.0000   YZ=              0.0000
 Octapole moment (field-independent basis, Debye-Ang**2):
  XXX=             -0.0000  YYY=             -0.0000  ZZZ=             -0.0000  XYY=             -0.0000
  XXY=             -0.0000  XXZ=             -0.0000  XZZ=              0.0000  YZZ=              0.0000
  YYZ=             -0.0000  XYZ=             -0.0000
 Hexadecapole moment (field-independent basis, Debye-Ang**3):
 XXXX=           -445.3258 YYYY=           -709.9168 ZZZZ=            -21.5226 XXXY=           -271.0463
 XXXZ=              0.0000 YYYX=           -327.7773 YYYZ=              0.0000 ZZZX=              0.0000
 ZZZY=              0.0000 XXYY=           -240.1455 XXZZ=            -66.4799 YYZZ=            -89.7782
 XXYZ=              0.0000 YYXZ=              0.0000 ZZXY=            -66.2457
 N-N= 2.078327832508D+01 E-N=-5.473105890823D+01  KE= 7.436646511710D+00
 Symmetry AG   KE= 4.183463038061D+00
 Symmetry BG   KE= 0.000000000000D+00
 Symmetry AU   KE= 0.000000000000D+00
 Symmetry BU   KE= 3.253183473649D+00

 Test job not archived.
 1\1\GINC-SULU\Stability\RHF\Gen\H14\LCJ1\15-Feb-2017\0\\#rhf/gen scf(s
 ymm,tight,novaracc,noincfock,fulldiag) stable(crhf) guess=read geom=no
 crowd test\\hf stability analysis of h12 triangular lattice, y= 1.2263
 967642726714 alpha= 69.000000000000000\\0,1\H\H,1,1.3136487374\H,1,1.3
 136487374,2,42.\H,2,1.3136487374,1,138.,3,0.,0\H,3,1.3136487374,1,180.
 ,2,0.,0\H,4,1.3136487374,2,180.,1,0.,0\H,5,1.3136487374,3,180.,2,0.,0\
 H,6,1.3136487374,4,180.,1,0.,0\H,7,1.3136487374,5,180.,2,0.,0\H,8,1.31
 36487374,6,180.,1,0.,0\H,9,1.3136487374,7,180.,2,0.,0\H,10,1.313648737
 4,8,180.,1,0.,0\H,11,1.3136487374,9,180.,2,0.,0\H,12,1.3136487374,10,1
 80.,1,0.,0\\Version=ES64L-G09RevE.01\State=1-AG\HF=-6.5779435\MP2=-6.8
 028218\RMSD=6.499e-09\Dipole=0.,0.,0.\Quadrupole=-1.1820698,5.126633,-
 3.9445632,0.,-7.1638036,0.\PG=C02H [SGH(H14)]\\@


 KNOWING HOW CONTENTED, FREE, AND JOYFUL IS LIFE IN
 THE REALMS OF SCIENCE, ONE FERVENTLY WISHES THAT
 MANY WOULD ENTER HER PORTALS.
   --  DMITRI IVANOVICH MENDELEEV
 "FIRST PRINCIPLES OF CHEMISTRY", LONGMANS, GREEN,
 AND CO.  LONDON, 1891
 Job cpu time:       0 days  0 hours  0 minutes  1.2 seconds.
 File lengths (MBytes):  RWF=     84 Int=      0 D2E=      0 Chk=      2 Scr=      2
 Normal termination of Gaussian 09 at Wed Feb 15 13:13:56 2017.
