 Entering Gaussian System, Link 0=g09
 AtFile(1): H.gbs
            H     0
            S   10   1.00
               1000.000000000000            0.000068713567
                316.227766000000            0.000169141320
                100.000000000000            0.000823394812
                 31.622776600000            0.003425569236
                 10.000000000000            0.013951996000
                  3.162277660000            0.056909313560
                  1.000000000000            0.198286399900
                  0.316227766000            0.496922426700
                  0.100000000000            0.369846276400
                  0.031622776600            0.003752720039
            ****
 Initial command:
 /projects/guscus/apps/gau/g09-e1/g09/l1.exe "/users/lcj1/gaussian/h14_rhf2rows/alpha30/Gau-4494.inp" -scrdir="/users/lcj1/gaussian/h14_rhf2rows/alpha30/"
 Entering Link 1 = /projects/guscus/apps/gau/g09-e1/g09/l1.exe PID=      4495.
  
 Copyright (c) 1988,1990,1992,1993,1995,1998,2003,2009,2015,
            Gaussian, Inc.  All Rights Reserved.
  
 This is part of the Gaussian(R) 09 program.  It is based on
 the Gaussian(R) 03 system (copyright 2003, Gaussian, Inc.),
 the Gaussian(R) 98 system (copyright 1998, Gaussian, Inc.),
 the Gaussian(R) 94 system (copyright 1995, Gaussian, Inc.),
 the Gaussian 92(TM) system (copyright 1992, Gaussian, Inc.),
 the Gaussian 90(TM) system (copyright 1990, Gaussian, Inc.),
 the Gaussian 88(TM) system (copyright 1988, Gaussian, Inc.),
 the Gaussian 86(TM) system (copyright 1986, Carnegie Mellon
 University), and the Gaussian 82(TM) system (copyright 1983,
 Carnegie Mellon University). Gaussian is a federally registered
 trademark of Gaussian, Inc.
  
 This software contains proprietary and confidential information,
 including trade secrets, belonging to Gaussian, Inc.
  
 This software is provided under written license and may be
 used, copied, transmitted, or stored only in accord with that
 written license.
  
 The following legend is applicable only to US Government
 contracts under FAR:
  
                    RESTRICTED RIGHTS LEGEND
  
 Use, reproduction and disclosure by the US Government is
 subject to restrictions as set forth in subparagraphs (a)
 and (c) of the Commercial Computer Software - Restricted
 Rights clause in FAR 52.227-19.
  
 Gaussian, Inc.
 340 Quinnipiac St., Bldg. 40, Wallingford CT 06492
  
  
 ---------------------------------------------------------------
 Warning -- This program may not be used in any manner that
 competes with the business of Gaussian, Inc. or will provide
 assistance to any competitor of Gaussian, Inc.  The licensee
 of this program is prohibited from giving any competitor of
 Gaussian, Inc. access to this program.  By using this program,
 the user acknowledges that Gaussian, Inc. is engaged in the
 business of creating and licensing software in the field of
 computational chemistry and represents and warrants to the
 licensee that it is not a competitor of Gaussian, Inc. and that
 it will not use this program in any manner prohibited above.
 ---------------------------------------------------------------
  

 Cite this work as:
 Gaussian 09, Revision E.01,
 M. J. Frisch, G. W. Trucks, H. B. Schlegel, G. E. Scuseria, 
 M. A. Robb, J. R. Cheeseman, G. Scalmani, V. Barone, B. Mennucci, 
 G. A. Petersson, H. Nakatsuji, M. Caricato, X. Li, H. P. Hratchian, 
 A. F. Izmaylov, J. Bloino, G. Zheng, J. L. Sonnenberg, M. Hada, 
 M. Ehara, K. Toyota, R. Fukuda, J. Hasegawa, M. Ishida, T. Nakajima, 
 Y. Honda, O. Kitao, H. Nakai, T. Vreven, J. A. Montgomery, Jr., 
 J. E. Peralta, F. Ogliaro, M. Bearpark, J. J. Heyd, E. Brothers, 
 K. N. Kudin, V. N. Staroverov, T. Keith, R. Kobayashi, J. Normand, 
 K. Raghavachari, A. Rendell, J. C. Burant, S. S. Iyengar, J. Tomasi, 
 M. Cossi, N. Rega, J. M. Millam, M. Klene, J. E. Knox, J. B. Cross, 
 V. Bakken, C. Adamo, J. Jaramillo, R. Gomperts, R. E. Stratmann, 
 O. Yazyev, A. J. Austin, R. Cammi, C. Pomelli, J. W. Ochterski, 
 R. L. Martin, K. Morokuma, V. G. Zakrzewski, G. A. Voth, 
 P. Salvador, J. J. Dannenberg, S. Dapprich, A. D. Daniels, 
 O. Farkas, J. B. Foresman, J. V. Ortiz, J. Cioslowski, 
 and D. J. Fox, Gaussian, Inc., Wallingford CT, 2013.
 
 ******************************************
 Gaussian 09:  ES64L-G09RevE.01 30-Nov-2015
                15-Feb-2017 
 ******************************************
 %chk=h14.chk
 ----------------------------------------------------------------------
 #rhf/gen scf(symm,tight,novaracc,noincfock,fulldiag) stable(crhf) gues
 s=read geom=nocrowd test
 ----------------------------------------------------------------------
 1/38=1/1;
 2/12=1,17=6,18=5,40=1/2;
 3/5=7,16=1,25=1,30=1,116=1/1,2,3;
 4/5=1,9=4/1;
 5/5=100002,15=2,16=1,32=2,38=6/2;
 8/6=1,10=90,11=11/1,4;
 9/8=4,13=1/2;
 6/7=2,8=2,9=2,10=2,28=1/1;
 99/5=1,9=1/99;
 ----------------------------------------------------------------------
 hf stability analysis of h12 triangular lattice, y= 0.2614075542186236
 6 alpha= 6.7500000000000000
 ----------------------------------------------------------------------
 Symbolic Z-matrix:
 Charge =  0 Multiplicity = 1
 H
 H                    1     2.22404 
 H                    1     2.22404  2     166.5 
 H                    2     2.22404  1     13.5     3     0.       0
 H                    3     2.22404  1     180.     2     0.       0
 H                    4     2.22404  2     180.     1     0.       0
 H                    5     2.22404  3     180.     2     0.       0
 H                    6     2.22404  4     180.     1     0.       0
 H                    7     2.22404  5     180.     2     0.       0
 H                    8     2.22404  6     180.     1     0.       0
 H                    9     2.22404  7     180.     2     0.       0
 H                    10    2.22404  8     180.     1     0.       0
 H                    11    2.22404  9     180.     2     0.       0
 H                    12    2.22404  10    180.     1     0.       0
 
                          Input orientation:                          
 ---------------------------------------------------------------------
 Center     Atomic      Atomic             Coordinates (Angstroms)
 Number     Number       Type             X           Y           Z
 ---------------------------------------------------------------------
      1          1           0        0.000000    0.000000    0.000000
      2          1           0        0.000000    0.000000    2.224037
      3          1           0        0.519191    0.000000   -2.162587
      4          1           0        0.519191    0.000000    0.061450
      5          1           0        1.038382    0.000000   -4.325174
      6          1           0        1.038382    0.000000   -2.101137
      7          1           0        1.557574    0.000000   -6.487761
      8          1           0        1.557574    0.000000   -4.263723
      9          1           0        2.076765    0.000000   -8.650348
     10          1           0        2.076765    0.000000   -6.426310
     11          1           0        2.595956    0.000000  -10.812934
     12          1           0        2.595956    0.000000   -8.588897
     13          1           0        3.115147    0.000000  -12.975521
     14          1           0        3.115147    0.000000  -10.751484
 ---------------------------------------------------------------------
                    Distance matrix (angstroms):
                    1          2          3          4          5
     1  H    0.000000
     2  H    2.224037   0.000000
     3  H    2.224037   4.417242   0.000000
     4  H    0.522815   2.224037   2.224037   0.000000
     5  H    4.448074   6.631018   2.224037   4.417242   0.000000
     6  H    2.343718   4.448074   0.522815   2.224037   2.224037
     7  H    6.672112   8.849941   4.448074   6.631018   2.224037
     8  H    4.539314   6.672112   2.343718   4.448074   0.522815
     9  H    8.896149  11.070917   6.672112   8.849941   4.448074
    10  H    6.753548   8.896149   4.539314   6.672112   2.343718
    11  H   11.120186  13.292916   8.896149  11.070917   6.672112
    12  H    8.972633  11.120186   6.753548   8.896149   4.539314
    13  H   13.344223  15.515499  11.120186  13.292916   8.896149
    14  H   11.193684  13.344223   8.972633  11.120186   6.753548
                    6          7          8          9         10
     6  H    0.000000
     7  H    4.417242   0.000000
     8  H    2.224037   2.224037   0.000000
     9  H    6.631018   2.224037   4.417242   0.000000
    10  H    4.448074   0.522815   2.224037   2.224037   0.000000
    11  H    8.849941   4.448074   6.631018   2.224037   4.417242
    12  H    6.672112   2.343718   4.448074   0.522815   2.224037
    13  H   11.070917   6.672112   8.849941   4.448074   6.631018
    14  H    8.896149   4.539314   6.672112   2.343718   4.448074
                   11         12         13         14
    11  H    0.000000
    12  H    2.224037   0.000000
    13  H    2.224037   4.417242   0.000000
    14  H    0.522815   2.224037   2.224037   0.000000
 Stoichiometry    H14
 Framework group  C2H[SGH(H14)]
 Deg. of freedom    13
 Full point group                 C2H     NOp   4
 Largest Abelian subgroup         C2H     NOp   4
 Largest concise Abelian subgroup C2      NOp   2
                         Standard orientation:                         
 ---------------------------------------------------------------------
 Center     Atomic      Atomic             Coordinates (Angstroms)
 Number     Number       Type             X           Y           Z
 ---------------------------------------------------------------------
      1          1           0        1.557574   -5.375742    0.000000
      2          1           0        1.557574   -7.599779    0.000000
      3          1           0        1.038382   -3.213155    0.000000
      4          1           0        1.038382   -5.437192    0.000000
      5          1           0        0.519191   -1.050568    0.000000
      6          1           0        0.519191   -3.274606    0.000000
      7          1           0        0.000000    1.112019   -0.000000
      8          1           0       -0.000000   -1.112019   -0.000000
      9          1           0       -0.519191    3.274606    0.000000
     10          1           0       -0.519191    1.050568    0.000000
     11          1           0       -1.038382    5.437192    0.000000
     12          1           0       -1.038382    3.213155    0.000000
     13          1           0       -1.557574    7.599779    0.000000
     14          1           0       -1.557574    5.375742    0.000000
 ---------------------------------------------------------------------
 Rotational constants (GHZ):    563.0177002      1.7090205      1.7038485
 General basis read from cards:  (5D, 7F)
 There are     7 symmetry adapted cartesian basis functions of AG  symmetry.
 There are     0 symmetry adapted cartesian basis functions of BG  symmetry.
 There are     0 symmetry adapted cartesian basis functions of AU  symmetry.
 There are     7 symmetry adapted cartesian basis functions of BU  symmetry.
 There are     7 symmetry adapted basis functions of AG  symmetry.
 There are     0 symmetry adapted basis functions of BG  symmetry.
 There are     0 symmetry adapted basis functions of AU  symmetry.
 There are     7 symmetry adapted basis functions of BU  symmetry.
    14 basis functions,   140 primitive gaussians,    14 cartesian basis functions
     7 alpha electrons        7 beta electrons
       nuclear repulsion energy        16.6541522753 Hartrees.
 NAtoms=   14 NActive=   14 NUniq=    7 SFac= 4.00D+00 NAtFMM=   60 NAOKFM=F Big=F
 Integral buffers will be    131072 words long.
 Regular integral format.
 Two-electron integral symmetry is turned on.
 One-electron integrals computed using PRISM.
 NBasis=    14 RedAO= T EigKep=  1.18D-01  NBF=     7     0     0     7
 NBsUse=    14 1.00D-06 EigRej= -1.00D+00 NBFU=     7     0     0     7
 Initial guess from the checkpoint file:  "h14.chk"
 B after Tr=     0.000000    0.000000   -0.000000
         Rot=    0.999992   -0.000000   -0.000000   -0.004107 Ang=  -0.47 deg.
 Initial guess orbital symmetries:
       Occupied  (AG) (BU) (AG) (BU) (AG) (BU) (AG)
       Virtual   (BU) (BU) (AG) (BU) (AG) (BU) (AG)
 Keep R1 ints in memory in symmetry-blocked form, NReq=905614.
 Requested convergence on RMS density matrix=1.00D-08 within 128 cycles.
 Requested convergence on MAX density matrix=1.00D-06.
 Requested convergence on             energy=1.00D-06.
 No special actions if energy rises.
 SCF Done:  E(RHF) =  -6.58596768283     A.U. after    5 cycles
            NFock=  5  Conv=0.10D-08     -V/T= 2.0009
 Range of M.O.s used for correlation:     1    14
 NBasis=    14 NAE=     7 NBE=     7 NFC=     0 NFV=     0
 NROrb=     14 NOA=     7 NOB=     7 NVA=     7 NVB=     7

 **** Warning!!: The smallest alpha delta epsilon is  0.34125493D-01

 Semi-Direct transformation.
 ModeAB=           4 MOrb=             7 LenV=     134086666
 LASXX=         4102 LTotXX=        4102 LenRXX=        9443
 LTotAB=        5341 MaxLAS=        5488 LenRXY=           0
 NonZer=       13545 LenScr=      655360 LnRSAI=        5488
 LnScr1=      655360 LExtra=           0 Total=      1325651
 MaxDsk=          -1 SrtSym=           T ITran=            3
 JobTyp=0 Pass  1:  I=   1 to   7.
 (rs|ai) integrals will be sorted in core.
 Spin components of T(2) and E(2):
     alpha-alpha T2 =       0.8386483523D-04 E2=     -0.2153737921D-03
     alpha-beta  T2 =       0.1904591541D+02 E2=     -0.1343316254D+01
     beta-beta   T2 =       0.8386483523D-04 E2=     -0.2153737921D-03
 ANorm=    0.4477285242D+01
 E2 =    -0.1343747002D+01 EUMP2 =    -0.79297146849056D+01
 Second order stability test of a single determinant RHF wave function:
 Stabil:  MDV=134217728
 ***********************************************************************
 Matrix         Lowest Root    Major Pairs
 ***********************************************************************
 Internal RHF     0.3990769    Stable
 RRHF --> CRHF    0.0000016    Stable
 RRHF --> RUHF   -0.5961407    7A=8B
 Not stable.
 ***********************************************************************

 **********************************************************************

            Population analysis using the SCF density.

 **********************************************************************

 Orbital symmetries:
       Occupied  (AG) (BU) (AG) (BU) (AG) (BU) (AG)
       Virtual   (BU) (BU) (AG) (BU) (AG) (BU) (AG)
 The electronic state is 1-AG.
 Alpha  occ. eigenvalues --   -0.73596  -0.72743  -0.71294  -0.69515  -0.67716
 Alpha  occ. eigenvalues --   -0.66240  -0.19666
 Alpha virt. eigenvalues --   -0.16253   0.48545   0.51525   0.56263   0.62008
 Alpha virt. eigenvalues --    0.67673   0.71968
          Condensed to atoms (all electrons):
               1          2          3          4          5          6
     1  H    0.560816  -0.016132  -0.016584   0.485130   0.000085  -0.013818
     2  H   -0.016132   1.031562   0.000061  -0.016042  -0.000000   0.000089
     3  H   -0.016584   0.000061   0.572116  -0.017251  -0.016878   0.492593
     4  H    0.485130  -0.016042  -0.017251   0.565658   0.000093  -0.016705
     5  H    0.000085  -0.000000  -0.016878   0.000093   0.572162  -0.017492
     6  H   -0.013818   0.000089   0.492593  -0.016705  -0.017492   0.571725
     7  H   -0.000000  -0.000000   0.000086  -0.000000  -0.016875   0.000094
     8  H    0.000070  -0.000000  -0.013994   0.000085   0.492776  -0.016861
     9  H   -0.000000   0.000000  -0.000000  -0.000000   0.000086  -0.000000
    10  H   -0.000000  -0.000000   0.000071  -0.000000  -0.013999   0.000086
    11  H    0.000000  -0.000000  -0.000000   0.000000  -0.000000  -0.000000
    12  H   -0.000000   0.000000  -0.000000  -0.000000   0.000071  -0.000000
    13  H   -0.000000   0.000000   0.000000  -0.000000  -0.000000   0.000000
    14  H    0.000000  -0.000000  -0.000000   0.000000  -0.000000  -0.000000
               7          8          9         10         11         12
     1  H   -0.000000   0.000070  -0.000000  -0.000000   0.000000  -0.000000
     2  H   -0.000000  -0.000000   0.000000  -0.000000  -0.000000   0.000000
     3  H    0.000086  -0.013994  -0.000000   0.000071  -0.000000  -0.000000
     4  H   -0.000000   0.000085  -0.000000  -0.000000   0.000000  -0.000000
     5  H   -0.016875   0.492776   0.000086  -0.013999  -0.000000   0.000071
     6  H    0.000094  -0.016861  -0.000000   0.000086  -0.000000  -0.000000
     7  H    0.572083  -0.017498  -0.016861   0.492776   0.000085  -0.013994
     8  H   -0.017498   0.572083   0.000094  -0.016875  -0.000000   0.000086
     9  H   -0.016861   0.000094   0.571725  -0.017492  -0.016705   0.492593
    10  H    0.492776  -0.016875  -0.017492   0.572162   0.000093  -0.016878
    11  H    0.000085  -0.000000  -0.016705   0.000093   0.565658  -0.017251
    12  H   -0.013994   0.000086   0.492593  -0.016878  -0.017251   0.572116
    13  H   -0.000000  -0.000000   0.000089  -0.000000  -0.016042   0.000061
    14  H    0.000070  -0.000000  -0.013818   0.000085   0.485130  -0.016584
              13         14
     1  H   -0.000000   0.000000
     2  H    0.000000  -0.000000
     3  H    0.000000  -0.000000
     4  H   -0.000000   0.000000
     5  H   -0.000000  -0.000000
     6  H    0.000000  -0.000000
     7  H   -0.000000   0.000070
     8  H   -0.000000  -0.000000
     9  H    0.000089  -0.013818
    10  H   -0.000000   0.000085
    11  H   -0.016042   0.485130
    12  H    0.000061  -0.016584
    13  H    1.031562  -0.016132
    14  H   -0.016132   0.560816
 Mulliken charges:
               1
     1  H    0.000433
     2  H    0.000463
     3  H   -0.000220
     4  H   -0.000968
     5  H   -0.000029
     6  H    0.000289
     7  H    0.000032
     8  H    0.000032
     9  H    0.000289
    10  H   -0.000029
    11  H   -0.000968
    12  H   -0.000220
    13  H    0.000463
    14  H    0.000433
 Sum of Mulliken charges =   0.00000
 Mulliken charges with hydrogens summed into heavy atoms:
               1
 Electronic spatial extent (au):  <R**2>=           1094.3505
 Charge=              0.0000 electrons
 Dipole moment (field-independent basis, Debye):
    X=             -0.0000    Y=             -0.0000    Z=              0.0000  Tot=              0.0000
 Quadrupole moment (field-independent basis, Debye-Ang):
   XX=            -17.4668   YY=            -22.1012   ZZ=            -18.7527
   XY=              0.8619   XZ=              0.0000   YZ=             -0.0000
 Traceless Quadrupole moment (field-independent basis, Debye-Ang):
   XX=              1.9734   YY=             -2.6610   ZZ=              0.6875
   XY=              0.8619   XZ=              0.0000   YZ=             -0.0000
 Octapole moment (field-independent basis, Debye-Ang**2):
  XXX=             -0.0000  YYY=             -0.0000  ZZZ=             -0.0000  XYY=              0.0000
  XXY=              0.0000  XXZ=             -0.0000  XZZ=             -0.0000  YZZ=             -0.0000
  YYZ=             -0.0000  XYZ=              0.0000
 Hexadecapole moment (field-independent basis, Debye-Ang**3):
 XXXX=           -136.0895 YYYY=          -2578.5951 ZZZZ=            -23.3069 XXXY=            242.5936
 XXXZ=              0.0000 YYYX=            322.0011 YYYZ=             -0.0000 ZZZX=              0.0000
 ZZZY=             -0.0000 XXYY=           -397.9068 XXZZ=            -27.6162 YYZZ=           -382.8389
 XXYZ=             -0.0000 YYXZ=              0.0000 ZZXY=             84.5447
 N-N= 1.665415227531D+01 E-N=-4.424475527732D+01  KE= 6.579940975822D+00
 Symmetry AG   KE= 3.644632991886D+00
 Symmetry BG   KE= 0.000000000000D+00
 Symmetry AU   KE= 0.000000000000D+00
 Symmetry BU   KE= 2.935307983935D+00

 Test job not archived.
 1\1\GINC-SULU\Stability\RHF\Gen\H14\LCJ1\15-Feb-2017\0\\#rhf/gen scf(s
 ymm,tight,novaracc,noincfock,fulldiag) stable(crhf) guess=read geom=no
 crowd test\\hf stability analysis of h12 triangular lattice, y= 0.2614
 0755421862366 alpha= 6.7500000000000000\\0,1\H\H,1,2.2240372225\H,1,2.
 2240372225,2,166.5\H,2,2.2240372225,1,13.5,3,0.,0\H,3,2.2240372225,1,1
 80.,2,0.,0\H,4,2.2240372225,2,180.,1,0.,0\H,5,2.2240372225,3,180.,2,0.
 ,0\H,6,2.2240372225,4,180.,1,0.,0\H,7,2.2240372225,5,180.,2,0.,0\H,8,2
 .2240372225,6,180.,1,0.,0\H,9,2.2240372225,7,180.,2,0.,0\H,10,2.224037
 2225,8,180.,1,0.,0\H,11,2.2240372225,9,180.,2,0.,0\H,12,2.2240372225,1
 0,180.,1,0.,0\\Version=ES64L-G09RevE.01\State=1-AG\HF=-6.5859677\MP2=-
 7.9297147\RMSD=1.038e-09\Dipole=0.,0.,0.\Quadrupole=1.4672003,0.511163
 7,-1.978364,0.,0.6408052,0.\PG=C02H [SGH(H14)]\\@


  ON THE CHOICE OF THE CORRECT LANGUAGE -
 I SPEAK SPANISH TO GOD, ITALIAN TO WOMEN,
 FRENCH TO MEN, AND GERMAN TO MY HORSE.
          -- CHARLES V
 Job cpu time:       0 days  0 hours  0 minutes  1.0 seconds.
 File lengths (MBytes):  RWF=     84 Int=      0 D2E=      0 Chk=      2 Scr=      2
 Normal termination of Gaussian 09 at Wed Feb 15 13:02:37 2017.
