 Entering Gaussian System, Link 0=g09
 AtFile(1): H.gbs
            H     0
            S   10   1.00
               1000.000000000000            0.000068713567
                316.227766000000            0.000169141320
                100.000000000000            0.000823394812
                 31.622776600000            0.003425569236
                 10.000000000000            0.013951996000
                  3.162277660000            0.056909313560
                  1.000000000000            0.198286399900
                  0.316227766000            0.496922426700
                  0.100000000000            0.369846276400
                  0.031622776600            0.003752720039
            ****
 Initial command:
 /projects/guscus/apps/gau/g09-e1/g09/l1.exe "/users/lcj1/gaussian/h14_rhf2rows/alpha30/Gau-12733.inp" -scrdir="/users/lcj1/gaussian/h14_rhf2rows/alpha30/"
 Entering Link 1 = /projects/guscus/apps/gau/g09-e1/g09/l1.exe PID=     12734.
  
 Copyright (c) 1988,1990,1992,1993,1995,1998,2003,2009,2015,
            Gaussian, Inc.  All Rights Reserved.
  
 This is part of the Gaussian(R) 09 program.  It is based on
 the Gaussian(R) 03 system (copyright 2003, Gaussian, Inc.),
 the Gaussian(R) 98 system (copyright 1998, Gaussian, Inc.),
 the Gaussian(R) 94 system (copyright 1995, Gaussian, Inc.),
 the Gaussian 92(TM) system (copyright 1992, Gaussian, Inc.),
 the Gaussian 90(TM) system (copyright 1990, Gaussian, Inc.),
 the Gaussian 88(TM) system (copyright 1988, Gaussian, Inc.),
 the Gaussian 86(TM) system (copyright 1986, Carnegie Mellon
 University), and the Gaussian 82(TM) system (copyright 1983,
 Carnegie Mellon University). Gaussian is a federally registered
 trademark of Gaussian, Inc.
  
 This software contains proprietary and confidential information,
 including trade secrets, belonging to Gaussian, Inc.
  
 This software is provided under written license and may be
 used, copied, transmitted, or stored only in accord with that
 written license.
  
 The following legend is applicable only to US Government
 contracts under FAR:
  
                    RESTRICTED RIGHTS LEGEND
  
 Use, reproduction and disclosure by the US Government is
 subject to restrictions as set forth in subparagraphs (a)
 and (c) of the Commercial Computer Software - Restricted
 Rights clause in FAR 52.227-19.
  
 Gaussian, Inc.
 340 Quinnipiac St., Bldg. 40, Wallingford CT 06492
  
  
 ---------------------------------------------------------------
 Warning -- This program may not be used in any manner that
 competes with the business of Gaussian, Inc. or will provide
 assistance to any competitor of Gaussian, Inc.  The licensee
 of this program is prohibited from giving any competitor of
 Gaussian, Inc. access to this program.  By using this program,
 the user acknowledges that Gaussian, Inc. is engaged in the
 business of creating and licensing software in the field of
 computational chemistry and represents and warrants to the
 licensee that it is not a competitor of Gaussian, Inc. and that
 it will not use this program in any manner prohibited above.
 ---------------------------------------------------------------
  

 Cite this work as:
 Gaussian 09, Revision E.01,
 M. J. Frisch, G. W. Trucks, H. B. Schlegel, G. E. Scuseria, 
 M. A. Robb, J. R. Cheeseman, G. Scalmani, V. Barone, B. Mennucci, 
 G. A. Petersson, H. Nakatsuji, M. Caricato, X. Li, H. P. Hratchian, 
 A. F. Izmaylov, J. Bloino, G. Zheng, J. L. Sonnenberg, M. Hada, 
 M. Ehara, K. Toyota, R. Fukuda, J. Hasegawa, M. Ishida, T. Nakajima, 
 Y. Honda, O. Kitao, H. Nakai, T. Vreven, J. A. Montgomery, Jr., 
 J. E. Peralta, F. Ogliaro, M. Bearpark, J. J. Heyd, E. Brothers, 
 K. N. Kudin, V. N. Staroverov, T. Keith, R. Kobayashi, J. Normand, 
 K. Raghavachari, A. Rendell, J. C. Burant, S. S. Iyengar, J. Tomasi, 
 M. Cossi, N. Rega, J. M. Millam, M. Klene, J. E. Knox, J. B. Cross, 
 V. Bakken, C. Adamo, J. Jaramillo, R. Gomperts, R. E. Stratmann, 
 O. Yazyev, A. J. Austin, R. Cammi, C. Pomelli, J. W. Ochterski, 
 R. L. Martin, K. Morokuma, V. G. Zakrzewski, G. A. Voth, 
 P. Salvador, J. J. Dannenberg, S. Dapprich, A. D. Daniels, 
 O. Farkas, J. B. Foresman, J. V. Ortiz, J. Cioslowski, 
 and D. J. Fox, Gaussian, Inc., Wallingford CT, 2013.
 
 ******************************************
 Gaussian 09:  ES64L-G09RevE.01 30-Nov-2015
                15-Feb-2017 
 ******************************************
 %chk=h14.chk
 ----------------------------------------------------------------------
 #rhf/gen scf(symm,tight,novaracc,noincfock,fulldiag) stable(crhf) gues
 s=read geom=nocrowd test
 ----------------------------------------------------------------------
 1/38=1/1;
 2/12=1,17=6,18=5,40=1/2;
 3/5=7,16=1,25=1,30=1,116=1/1,2,3;
 4/5=1,9=4/1;
 5/5=100002,15=2,16=1,32=2,38=6/2;
 8/6=1,10=90,11=11/1,4;
 9/8=4,13=1/2;
 6/7=2,8=2,9=2,10=2,28=1/1;
 99/5=1,9=1/99;
 ----------------------------------------------------------------------
 hf stability analysis of h12 triangular lattice, y= 0.9295513923648614
 0 alpha= 56.250000000000000
 ----------------------------------------------------------------------
 Symbolic Z-matrix:
 Charge =  0 Multiplicity = 1
 H
 H                    1     1.11796 
 H                    1     1.11796  2     67.5 
 H                    2     1.11796  1     112.5    3     0.       0
 H                    3     1.11796  1     180.     2     0.       0
 H                    4     1.11796  2     180.     1     0.       0
 H                    5     1.11796  3     180.     2     0.       0
 H                    6     1.11796  4     180.     1     0.       0
 H                    7     1.11796  5     180.     2     0.       0
 H                    8     1.11796  6     180.     1     0.       0
 H                    9     1.11796  7     180.     2     0.       0
 H                    10    1.11796  8     180.     1     0.       0
 H                    11    1.11796  9     180.     2     0.       0
 H                    12    1.11796  10    180.     1     0.       0
 
                          Input orientation:                          
 ---------------------------------------------------------------------
 Center     Atomic      Atomic             Coordinates (Angstroms)
 Number     Number       Type             X           Y           Z
 ---------------------------------------------------------------------
      1          1           0        0.000000    0.000000    0.000000
      2          1           0        0.000000    0.000000    1.117962
      3          1           0        1.032862    0.000000    0.427826
      4          1           0        1.032862    0.000000    1.545787
      5          1           0        2.065724    0.000000    0.855651
      6          1           0        2.065724    0.000000    1.973613
      7          1           0        3.098586    0.000000    1.283477
      8          1           0        3.098586    0.000000    2.401438
      9          1           0        4.131449    0.000000    1.711302
     10          1           0        4.131449    0.000000    2.829264
     11          1           0        5.164311    0.000000    2.139128
     12          1           0        5.164311    0.000000    3.257089
     13          1           0        6.197173    0.000000    2.566953
     14          1           0        6.197173    0.000000    3.684915
 ---------------------------------------------------------------------
                    Distance matrix (angstroms):
                    1          2          3          4          5
     1  H    0.000000
     2  H    1.117962   0.000000
     3  H    1.117962   1.242213   0.000000
     4  H    1.859103   1.117962   1.117962   0.000000
     5  H    2.235924   2.082312   1.117962   1.242213   0.000000
     6  H    2.856985   2.235924   1.859103   1.117962   1.117962
     7  H    3.353886   3.103004   2.235924   2.082312   1.117962
     8  H    3.920223   3.353886   2.856985   2.235924   1.859103
     9  H    4.471848   4.173838   3.353886   3.103004   2.235924
    10  H    5.007355   4.471848   3.920223   3.353886   2.856985
    11  H    5.589810   5.264303   4.471848   4.173838   3.353886
    12  H    6.105632   5.589810   5.007355   4.471848   3.920223
    13  H    6.707772   6.364317   5.589810   5.264303   4.471848
    14  H    7.209962   6.707772   6.105632   5.589810   5.007355
                    6          7          8          9         10
     6  H    0.000000
     7  H    1.242213   0.000000
     8  H    1.117962   1.117962   0.000000
     9  H    2.082312   1.117962   1.242213   0.000000
    10  H    2.235924   1.859103   1.117962   1.117962   0.000000
    11  H    3.103004   2.235924   2.082312   1.117962   1.242213
    12  H    3.353886   2.856985   2.235924   1.859103   1.117962
    13  H    4.173838   3.353886   3.103004   2.235924   2.082312
    14  H    4.471848   3.920223   3.353886   2.856985   2.235924
                   11         12         13         14
    11  H    0.000000
    12  H    1.117962   0.000000
    13  H    1.117962   1.242213   0.000000
    14  H    1.859103   1.117962   1.117962   0.000000
 Stoichiometry    H14
 Framework group  C2H[SGH(H14)]
 Deg. of freedom    13
 Full point group                 C2H     NOp   4
 Largest Abelian subgroup         C2H     NOp   4
 Largest concise Abelian subgroup C2      NOp   2
                         Standard orientation:                         
 ---------------------------------------------------------------------
 Center     Atomic      Atomic             Coordinates (Angstroms)
 Number     Number       Type             X           Y           Z
 ---------------------------------------------------------------------
      1          1           0        3.098586    1.842457   -0.000000
      2          1           0        3.098586    0.724496   -0.000000
      3          1           0        2.065724    1.414632   -0.000000
      4          1           0        2.065724    0.296670   -0.000000
      5          1           0        1.032862    0.986806   -0.000000
      6          1           0        1.032862   -0.131155   -0.000000
      7          1           0        0.000000    0.558981    0.000000
      8          1           0       -0.000000   -0.558981    0.000000
      9          1           0       -1.032862    0.131155    0.000000
     10          1           0       -1.032862   -0.986806    0.000000
     11          1           0       -2.065724   -0.296670    0.000000
     12          1           0       -2.065724   -1.414632    0.000000
     13          1           0       -3.098586   -0.724496    0.000000
     14          1           0       -3.098586   -1.842457    0.000000
 ---------------------------------------------------------------------
 Rotational constants (GHZ):    135.5988294      7.0959956      6.7431226
 General basis read from cards:  (5D, 7F)
 There are     7 symmetry adapted cartesian basis functions of AG  symmetry.
 There are     0 symmetry adapted cartesian basis functions of BG  symmetry.
 There are     0 symmetry adapted cartesian basis functions of AU  symmetry.
 There are     7 symmetry adapted cartesian basis functions of BU  symmetry.
 There are     7 symmetry adapted basis functions of AG  symmetry.
 There are     0 symmetry adapted basis functions of BG  symmetry.
 There are     0 symmetry adapted basis functions of AU  symmetry.
 There are     7 symmetry adapted basis functions of BU  symmetry.
    14 basis functions,   140 primitive gaussians,    14 cartesian basis functions
     7 alpha electrons        7 beta electrons
       nuclear repulsion energy        22.7798857361 Hartrees.
 NAtoms=   14 NActive=   14 NUniq=    7 SFac= 4.00D+00 NAtFMM=   60 NAOKFM=F Big=F
 Integral buffers will be    131072 words long.
 Regular integral format.
 Two-electron integral symmetry is turned on.
 One-electron integrals computed using PRISM.
 NBasis=    14 RedAO= T EigKep=  1.47D-01  NBF=     7     0     0     7
 NBsUse=    14 1.00D-06 EigRej= -1.00D+00 NBFU=     7     0     0     7
 Initial guess from the checkpoint file:  "h14.chk"
 B after Tr=     0.000000    0.000000    0.000000
         Rot=    0.999992    0.000000   -0.000000   -0.004107 Ang=  -0.47 deg.
 Initial guess orbital symmetries:
       Occupied  (AG) (BU) (AG) (BU) (BU) (AG) (AG)
       Virtual   (BU) (BU) (AG) (AG) (BU) (AG) (BU)
 Keep R1 ints in memory in symmetry-blocked form, NReq=924780.
 Requested convergence on RMS density matrix=1.00D-08 within 128 cycles.
 Requested convergence on MAX density matrix=1.00D-06.
 Requested convergence on             energy=1.00D-06.
 No special actions if energy rises.
 SCF Done:  E(RHF) =  -6.87280809096     A.U. after   10 cycles
            NFock= 10  Conv=0.12D-08     -V/T= 1.9676
 Range of M.O.s used for correlation:     1    14
 NBasis=    14 NAE=     7 NBE=     7 NFC=     0 NFV=     0
 NROrb=     14 NOA=     7 NOB=     7 NVA=     7 NVB=     7
 Semi-Direct transformation.
 ModeAB=           4 MOrb=             7 LenV=     134066212
 LASXX=         4102 LTotXX=        4102 LenRXX=        9443
 LTotAB=        5341 MaxLAS=        5488 LenRXY=           0
 NonZer=       13545 LenScr=      655360 LnRSAI=        5488
 LnScr1=      655360 LExtra=           0 Total=      1325651
 MaxDsk=          -1 SrtSym=           T ITran=            3
 JobTyp=0 Pass  1:  I=   1 to   7.
 (rs|ai) integrals will be sorted in core.
 Spin components of T(2) and E(2):
     alpha-alpha T2 =       0.1152042523D-01 E2=     -0.1390348017D-01
     alpha-beta  T2 =       0.1005738609D+00 E2=     -0.1316175758D+00
     beta-beta   T2 =       0.1152042523D-01 E2=     -0.1390348017D-01
 ANorm=    0.1060006939D+01
 E2 =    -0.1594245362D+00 EUMP2 =    -0.70322326271420D+01
 Second order stability test of a single determinant RHF wave function:
 Stabil:  MDV=134217728
 ***********************************************************************
 Matrix         Lowest Root    Major Pairs
 ***********************************************************************
 Internal RHF     0.102359     Stable
 RRHF --> CRHF    0.0811841    Stable

 RRHF --> RUHF   -0.0529847    6A=8B 7A=9B 4A=10B 5A=11B 3A=12B 6A=9B 7A=12B 2A=1
 3B 5A=13B 3A=9B
 Not stable.
 ***********************************************************************

 **********************************************************************

            Population analysis using the SCF density.

 **********************************************************************

 Orbital symmetries:
       Occupied  (AG) (BU) (AG) (BU) (BU) (AG) (AG)
       Virtual   (BU) (BU) (AG) (AG) (BU) (AG) (BU)
 The electronic state is 1-AG.
 Alpha  occ. eigenvalues --   -0.88017  -0.81269  -0.70549  -0.54960  -0.42177
 Alpha  occ. eigenvalues --   -0.35943  -0.32116
 Alpha virt. eigenvalues --   -0.00302   0.10352   0.19269   0.41461   0.43115
 Alpha virt. eigenvalues --    0.66578   0.76348
          Condensed to atoms (all electrons):
               1          2          3          4          5          6
     1  H    0.779828   0.255290   0.139282  -0.129324  -0.046633  -0.027209
     2  H    0.255290   0.774488  -0.106484   0.141455  -0.145357   0.022383
     3  H    0.139282  -0.106484   0.797037  -0.152400   0.399648  -0.118822
     4  H   -0.129324   0.141455  -0.152400   1.119814  -0.079504   0.366236
     5  H   -0.046633  -0.145357   0.399648  -0.079504   1.186697  -0.124968
     6  H   -0.027209   0.022383  -0.118822   0.366236  -0.124968   0.737787
     7  H    0.011102  -0.004412   0.006507  -0.123710   0.088265  -0.051816
     8  H    0.004370   0.010025  -0.025844  -0.035847  -0.134626   0.159059
     9  H    0.000545   0.001495  -0.002705  -0.003860  -0.025684  -0.035524
    10  H   -0.000143  -0.001012   0.004068   0.000785   0.008466  -0.025684
    11  H   -0.000244   0.000064  -0.000263   0.004263   0.000785  -0.003860
    12  H   -0.000021  -0.000202   0.000630  -0.000263   0.004068  -0.002705
    13  H    0.000005   0.000036  -0.000202   0.000064  -0.001012   0.001495
    14  H    0.000011   0.000005  -0.000021  -0.000244  -0.000143   0.000545
               7          8          9         10         11         12
     1  H    0.011102   0.004370   0.000545  -0.000143  -0.000244  -0.000021
     2  H   -0.004412   0.010025   0.001495  -0.001012   0.000064  -0.000202
     3  H    0.006507  -0.025844  -0.002705   0.004068  -0.000263   0.000630
     4  H   -0.123710  -0.035847  -0.003860   0.000785   0.004263  -0.000263
     5  H    0.088265  -0.134626  -0.025684   0.008466   0.000785   0.004068
     6  H   -0.051816   0.159059  -0.035524  -0.025684  -0.003860  -0.002705
     7  H    0.901271   0.186206   0.159059  -0.134626  -0.035847  -0.025844
     8  H    0.186206   0.901271  -0.051816   0.088265  -0.123710   0.006507
     9  H    0.159059  -0.051816   0.737787  -0.124968   0.366236  -0.118822
    10  H   -0.134626   0.088265  -0.124968   1.186697  -0.079504   0.399648
    11  H   -0.035847  -0.123710   0.366236  -0.079504   1.119814  -0.152400
    12  H   -0.025844   0.006507  -0.118822   0.399648  -0.152400   0.797037
    13  H    0.010025  -0.004412   0.022383  -0.145357   0.141455  -0.106484
    14  H    0.004370   0.011102  -0.027209  -0.046633  -0.129324   0.139282
              13         14
     1  H    0.000005   0.000011
     2  H    0.000036   0.000005
     3  H   -0.000202  -0.000021
     4  H    0.000064  -0.000244
     5  H   -0.001012  -0.000143
     6  H    0.001495   0.000545
     7  H    0.010025   0.004370
     8  H   -0.004412   0.011102
     9  H    0.022383  -0.027209
    10  H   -0.145357  -0.046633
    11  H    0.141455  -0.129324
    12  H   -0.106484   0.139282
    13  H    0.774488   0.255290
    14  H    0.255290   0.779828
 Mulliken charges:
               1
     1  H    0.013140
     2  H    0.052226
     3  H    0.059568
     4  H   -0.107465
     5  H   -0.130002
     6  H    0.103084
     7  H    0.009449
     8  H    0.009449
     9  H    0.103084
    10  H   -0.130002
    11  H   -0.107465
    12  H    0.059568
    13  H    0.052226
    14  H    0.013140
 Sum of Mulliken charges =   0.00000
 Mulliken charges with hydrogens summed into heavy atoms:
               1
 Electronic spatial extent (au):  <R**2>=            307.5781
 Charge=              0.0000 electrons
 Dipole moment (field-independent basis, Debye):
    X=              0.0000    Y=              0.0000    Z=              0.0000  Tot=              0.0000
 Quadrupole moment (field-independent basis, Debye-Ang):
   XX=            -17.4598   YY=            -20.9543   ZZ=            -18.0966
   XY=              1.8046   XZ=             -0.0000   YZ=             -0.0000
 Traceless Quadrupole moment (field-independent basis, Debye-Ang):
   XX=              1.3771   YY=             -2.1174   ZZ=              0.7403
   XY=              1.8046   XZ=             -0.0000   YZ=             -0.0000
 Octapole moment (field-independent basis, Debye-Ang**2):
  XXX=             -0.0000  YYY=              0.0000  ZZZ=             -0.0000  XYY=             -0.0000
  XXY=             -0.0000  XXZ=             -0.0000  XZZ=             -0.0000  YZZ=             -0.0000
  YYZ=             -0.0000  XYZ=              0.0000
 Hexadecapole moment (field-independent basis, Debye-Ang**3):
 XXXX=           -504.0610 YYYY=           -149.3738 ZZZZ=            -21.7734 XXXY=            -85.0773
 XXXZ=              0.0000 YYYX=            -97.9267 YYYZ=              0.0000 ZZZX=              0.0000
 ZZZY=              0.0000 XXYY=           -103.3627 XXZZ=            -86.9085 YYZZ=            -27.9381
 XXYZ=              0.0000 YYXZ=              0.0000 ZZXY=            -32.3958
 N-N= 2.277988573608D+01 E-N=-5.830764701783D+01  KE= 7.102866671987D+00
 Symmetry AG   KE= 4.212368281529D+00
 Symmetry BG   KE= 0.000000000000D+00
 Symmetry AU   KE= 0.000000000000D+00
 Symmetry BU   KE= 2.890498390458D+00

 Test job not archived.
 1\1\GINC-SULU\Stability\RHF\Gen\H14\LCJ1\15-Feb-2017\0\\#rhf/gen scf(s
 ymm,tight,novaracc,noincfock,fulldiag) stable(crhf) guess=read geom=no
 crowd test\\hf stability analysis of h12 triangular lattice, y= 0.9295
 5139236486140 alpha= 56.250000000000000\\0,1\H\H,1,1.1179619335\H,1,1.
 1179619335,2,67.5\H,2,1.1179619335,1,112.5,3,0.,0\H,3,1.1179619335,1,1
 80.,2,0.,0\H,4,1.1179619335,2,180.,1,0.,0\H,5,1.1179619335,3,180.,2,0.
 ,0\H,6,1.1179619335,4,180.,1,0.,0\H,7,1.1179619335,5,180.,2,0.,0\H,8,1
 .1179619335,6,180.,1,0.,0\H,9,1.1179619335,7,180.,2,0.,0\H,10,1.117961
 9335,8,180.,1,0.,0\H,11,1.1179619335,9,180.,2,0.,0\H,12,1.1179619335,1
 0,180.,1,0.,0\\Version=ES64L-G09RevE.01\State=1-AG\HF=-6.8728081\MP2=-
 7.0322326\RMSD=1.237e-09\Dipole=0.,0.,0.\Quadrupole=1.0238432,0.550411
 ,-1.5742542,0.,1.341652,0.\PG=C02H [SGH(H14)]\\@


 A MAN IS NEVER SO BRILLIANT AS WHEN HE TAKES THE WORDS RIGHT OUT
 OF YOUR MOUTH. -- ARNOT SHEPPARD, JR.
 Job cpu time:       0 days  0 hours  0 minutes  1.3 seconds.
 File lengths (MBytes):  RWF=     84 Int=      0 D2E=      0 Chk=      2 Scr=      2
 Normal termination of Gaussian 09 at Wed Feb 15 13:11:36 2017.
