 Entering Gaussian System, Link 0=g09
 AtFile(1): H.gbs
            H     0
            S   10   1.00
               1000.000000000000            0.000068713567
                316.227766000000            0.000169141320
                100.000000000000            0.000823394812
                 31.622776600000            0.003425569236
                 10.000000000000            0.013951996000
                  3.162277660000            0.056909313560
                  1.000000000000            0.198286399900
                  0.316227766000            0.496922426700
                  0.100000000000            0.369846276400
                  0.031622776600            0.003752720039
            ****
 Initial command:
 /projects/guscus/apps/gau/g09-e1/g09/l1.exe "/users/lcj1/gaussian/h14_rhf2rows/alpha30/Gau-9182.inp" -scrdir="/users/lcj1/gaussian/h14_rhf2rows/alpha30/"
 Entering Link 1 = /projects/guscus/apps/gau/g09-e1/g09/l1.exe PID=      9183.
  
 Copyright (c) 1988,1990,1992,1993,1995,1998,2003,2009,2015,
            Gaussian, Inc.  All Rights Reserved.
  
 This is part of the Gaussian(R) 09 program.  It is based on
 the Gaussian(R) 03 system (copyright 2003, Gaussian, Inc.),
 the Gaussian(R) 98 system (copyright 1998, Gaussian, Inc.),
 the Gaussian(R) 94 system (copyright 1995, Gaussian, Inc.),
 the Gaussian 92(TM) system (copyright 1992, Gaussian, Inc.),
 the Gaussian 90(TM) system (copyright 1990, Gaussian, Inc.),
 the Gaussian 88(TM) system (copyright 1988, Gaussian, Inc.),
 the Gaussian 86(TM) system (copyright 1986, Carnegie Mellon
 University), and the Gaussian 82(TM) system (copyright 1983,
 Carnegie Mellon University). Gaussian is a federally registered
 trademark of Gaussian, Inc.
  
 This software contains proprietary and confidential information,
 including trade secrets, belonging to Gaussian, Inc.
  
 This software is provided under written license and may be
 used, copied, transmitted, or stored only in accord with that
 written license.
  
 The following legend is applicable only to US Government
 contracts under FAR:
  
                    RESTRICTED RIGHTS LEGEND
  
 Use, reproduction and disclosure by the US Government is
 subject to restrictions as set forth in subparagraphs (a)
 and (c) of the Commercial Computer Software - Restricted
 Rights clause in FAR 52.227-19.
  
 Gaussian, Inc.
 340 Quinnipiac St., Bldg. 40, Wallingford CT 06492
  
  
 ---------------------------------------------------------------
 Warning -- This program may not be used in any manner that
 competes with the business of Gaussian, Inc. or will provide
 assistance to any competitor of Gaussian, Inc.  The licensee
 of this program is prohibited from giving any competitor of
 Gaussian, Inc. access to this program.  By using this program,
 the user acknowledges that Gaussian, Inc. is engaged in the
 business of creating and licensing software in the field of
 computational chemistry and represents and warrants to the
 licensee that it is not a competitor of Gaussian, Inc. and that
 it will not use this program in any manner prohibited above.
 ---------------------------------------------------------------
  

 Cite this work as:
 Gaussian 09, Revision E.01,
 M. J. Frisch, G. W. Trucks, H. B. Schlegel, G. E. Scuseria, 
 M. A. Robb, J. R. Cheeseman, G. Scalmani, V. Barone, B. Mennucci, 
 G. A. Petersson, H. Nakatsuji, M. Caricato, X. Li, H. P. Hratchian, 
 A. F. Izmaylov, J. Bloino, G. Zheng, J. L. Sonnenberg, M. Hada, 
 M. Ehara, K. Toyota, R. Fukuda, J. Hasegawa, M. Ishida, T. Nakajima, 
 Y. Honda, O. Kitao, H. Nakai, T. Vreven, J. A. Montgomery, Jr., 
 J. E. Peralta, F. Ogliaro, M. Bearpark, J. J. Heyd, E. Brothers, 
 K. N. Kudin, V. N. Staroverov, T. Keith, R. Kobayashi, J. Normand, 
 K. Raghavachari, A. Rendell, J. C. Burant, S. S. Iyengar, J. Tomasi, 
 M. Cossi, N. Rega, J. M. Millam, M. Klene, J. E. Knox, J. B. Cross, 
 V. Bakken, C. Adamo, J. Jaramillo, R. Gomperts, R. E. Stratmann, 
 O. Yazyev, A. J. Austin, R. Cammi, C. Pomelli, J. W. Ochterski, 
 R. L. Martin, K. Morokuma, V. G. Zakrzewski, G. A. Voth, 
 P. Salvador, J. J. Dannenberg, S. Dapprich, A. D. Daniels, 
 O. Farkas, J. B. Foresman, J. V. Ortiz, J. Cioslowski, 
 and D. J. Fox, Gaussian, Inc., Wallingford CT, 2013.
 
 ******************************************
 Gaussian 09:  ES64L-G09RevE.01 30-Nov-2015
                15-Feb-2017 
 ******************************************
 %chk=h14.chk
 ----------------------------------------------------------------------
 #rhf/gen scf(symm,tight,novaracc,noincfock,fulldiag) stable(crhf) gues
 s=read geom=nocrowd test
 ----------------------------------------------------------------------
 1/38=1/1;
 2/12=1,17=6,18=5,40=1/2;
 3/5=7,16=1,25=1,30=1,116=1/1,2,3;
 4/5=1,9=4/1;
 5/5=100002,15=2,16=1,32=2,38=6/2;
 8/6=1,10=90,11=11/1,4;
 9/8=4,13=1/2;
 6/7=2,8=2,9=2,10=2,28=1/1;
 99/5=1,9=1/99;
 ----------------------------------------------------------------------
 hf stability analysis of h12 triangular lattice, y= 0.6328681913590388
 2 alpha= 34.750000000000000
 ----------------------------------------------------------------------
 Symbolic Z-matrix:
 Charge =  0 Multiplicity = 1
 H
 H                    1     1.1103 
 H                    1     1.1103   2     110.5 
 H                    2     1.1103   1     69.5     3     0.       0
 H                    3     1.1103   1     180.     2     0.       0
 H                    4     1.1103   2     180.     1     0.       0
 H                    5     1.1103   3     180.     2     0.       0
 H                    6     1.1103   4     180.     1     0.       0
 H                    7     1.1103   5     180.     2     0.       0
 H                    8     1.1103   6     180.     1     0.       0
 H                    9     1.1103   7     180.     2     0.       0
 H                    10    1.1103   8     180.     1     0.       0
 H                    11    1.1103   9     180.     2     0.       0
 H                    12    1.1103   10    180.     1     0.       0
 
                          Input orientation:                          
 ---------------------------------------------------------------------
 Center     Atomic      Atomic             Coordinates (Angstroms)
 Number     Number       Type             X           Y           Z
 ---------------------------------------------------------------------
      1          1           0        0.000000    0.000000    0.000000
      2          1           0        0.000000    0.000000    1.110301
      3          1           0        1.039988    0.000000   -0.388836
      4          1           0        1.039988    0.000000    0.721466
      5          1           0        2.079977    0.000000   -0.777671
      6          1           0        2.079977    0.000000    0.332630
      7          1           0        3.119965    0.000000   -1.166507
      8          1           0        3.119965    0.000000   -0.056206
      9          1           0        4.159954    0.000000   -1.555343
     10          1           0        4.159954    0.000000   -0.445042
     11          1           0        5.199942    0.000000   -1.944179
     12          1           0        5.199942    0.000000   -0.833877
     13          1           0        6.239930    0.000000   -2.333014
     14          1           0        6.239930    0.000000   -1.222713
 ---------------------------------------------------------------------
                    Distance matrix (angstroms):
                    1          2          3          4          5
     1  H    0.000000
     2  H    1.110301   0.000000
     3  H    1.110301   1.824551   0.000000
     4  H    1.265736   1.110301   1.110301   0.000000
     5  H    2.220603   2.809047   1.110301   1.824551   0.000000
     6  H    2.106406   2.220603   1.265736   1.110301   1.110301
     7  H    3.330904   3.862388   2.220603   2.809047   1.110301
     8  H    3.120471   3.330904   2.106406   2.220603   1.265736
     9  H    4.441205   4.940736   3.330904   3.862388   2.220603
    10  H    4.183692   4.441205   3.120471   3.330904   2.106406
    11  H    5.551507   6.030692   4.441205   4.940736   3.330904
    12  H    5.266379   5.551507   4.183692   4.441205   3.120471
    13  H    6.661808   7.126932   5.551507   6.030692   4.441205
    14  H    6.358597   6.661808   5.266379   5.551507   4.183692
                    6          7          8          9         10
     6  H    0.000000
     7  H    1.824551   0.000000
     8  H    1.110301   1.110301   0.000000
     9  H    2.809047   1.110301   1.824551   0.000000
    10  H    2.220603   1.265736   1.110301   1.110301   0.000000
    11  H    3.862388   2.220603   2.809047   1.110301   1.824551
    12  H    3.330904   2.106406   2.220603   1.265736   1.110301
    13  H    4.940736   3.330904   3.862388   2.220603   2.809047
    14  H    4.441205   3.120471   3.330904   2.106406   2.220603
                   11         12         13         14
    11  H    0.000000
    12  H    1.110301   0.000000
    13  H    1.110301   1.824551   0.000000
    14  H    1.265736   1.110301   1.110301   0.000000
 Stoichiometry    H14
 Framework group  C2H[SGH(H14)]
 Deg. of freedom    13
 Full point group                 C2H     NOp   4
 Largest Abelian subgroup         C2H     NOp   4
 Largest concise Abelian subgroup C2      NOp   2
                         Standard orientation:                         
 ---------------------------------------------------------------------
 Center     Atomic      Atomic             Coordinates (Angstroms)
 Number     Number       Type             X           Y           Z
 ---------------------------------------------------------------------
      1          1           0        3.119965   -0.611357    0.000000
      2          1           0        3.119965   -1.721658    0.000000
      3          1           0        2.079977   -0.222521    0.000000
      4          1           0        2.079977   -1.332822    0.000000
      5          1           0        1.039988    0.166315   -0.000000
      6          1           0        1.039988   -0.943986    0.000000
      7          1           0        0.000000    0.555151   -0.000000
      8          1           0       -0.000000   -0.555151   -0.000000
      9          1           0       -1.039988    0.943986    0.000000
     10          1           0       -1.039988   -0.166315   -0.000000
     11          1           0       -2.079977    1.332822   -0.000000
     12          1           0       -2.079977    0.222521   -0.000000
     13          1           0       -3.119965    1.721658   -0.000000
     14          1           0       -3.119965    0.611357   -0.000000
 ---------------------------------------------------------------------
 Rotational constants (GHZ):    133.5406019      7.2053649      6.8364926
 General basis read from cards:  (5D, 7F)
 There are     7 symmetry adapted cartesian basis functions of AG  symmetry.
 There are     0 symmetry adapted cartesian basis functions of BG  symmetry.
 There are     0 symmetry adapted cartesian basis functions of AU  symmetry.
 There are     7 symmetry adapted cartesian basis functions of BU  symmetry.
 There are     7 symmetry adapted basis functions of AG  symmetry.
 There are     0 symmetry adapted basis functions of BG  symmetry.
 There are     0 symmetry adapted basis functions of AU  symmetry.
 There are     7 symmetry adapted basis functions of BU  symmetry.
    14 basis functions,   140 primitive gaussians,    14 cartesian basis functions
     7 alpha electrons        7 beta electrons
       nuclear repulsion energy        22.8723343604 Hartrees.
 NAtoms=   14 NActive=   14 NUniq=    7 SFac= 4.00D+00 NAtFMM=   60 NAOKFM=F Big=F
 Integral buffers will be    131072 words long.
 Regular integral format.
 Two-electron integral symmetry is turned on.
 One-electron integrals computed using PRISM.
 NBasis=    14 RedAO= T EigKep=  1.41D-01  NBF=     7     0     0     7
 NBsUse=    14 1.00D-06 EigRej= -1.00D+00 NBFU=     7     0     0     7
 Initial guess from the checkpoint file:  "h14.chk"
 B after Tr=    -0.000000   -0.000000   -0.000000
         Rot=    0.999992    0.000000    0.000000   -0.004107 Ang=  -0.47 deg.
 Initial guess orbital symmetries:
       Occupied  (AG) (BU) (AG) (BU) (BU) (AG) (AG)
       Virtual   (BU) (BU) (AG) (AG) (BU) (AG) (BU)
 Keep R1 ints in memory in symmetry-blocked form, NReq=924794.
 Requested convergence on RMS density matrix=1.00D-08 within 128 cycles.
 Requested convergence on MAX density matrix=1.00D-06.
 Requested convergence on             energy=1.00D-06.
 No special actions if energy rises.
 SCF Done:  E(RHF) =  -6.87921458969     A.U. after   10 cycles
            NFock= 10  Conv=0.93D-09     -V/T= 1.9670
 Range of M.O.s used for correlation:     1    14
 NBasis=    14 NAE=     7 NBE=     7 NFC=     0 NFV=     0
 NROrb=     14 NOA=     7 NOB=     7 NVA=     7 NVB=     7
 Semi-Direct transformation.
 ModeAB=           4 MOrb=             7 LenV=     134066240
 LASXX=         4102 LTotXX=        4102 LenRXX=        9443
 LTotAB=        5341 MaxLAS=        5488 LenRXY=           0
 NonZer=       13545 LenScr=      655360 LnRSAI=        5488
 LnScr1=      655360 LExtra=           0 Total=      1325651
 MaxDsk=          -1 SrtSym=           T ITran=            3
 JobTyp=0 Pass  1:  I=   1 to   7.
 (rs|ai) integrals will be sorted in core.
 Spin components of T(2) and E(2):
     alpha-alpha T2 =       0.1141562489D-01 E2=     -0.1385089938D-01
     alpha-beta  T2 =       0.9960126275D-01 E2=     -0.1311790971D+00
     beta-beta   T2 =       0.1141562489D-01 E2=     -0.1385089938D-01
 ANorm=    0.1059449155D+01
 E2 =    -0.1588808959D+00 EUMP2 =    -0.70380954855551D+01
 Second order stability test of a single determinant RHF wave function:
 Stabil:  MDV=134217728
 ***********************************************************************
 Matrix         Lowest Root    Major Pairs
 ***********************************************************************
 Internal RHF     0.1045513    Stable
 RRHF --> CRHF    0.0814886    Stable

 RRHF --> RUHF   -0.0578962    6A=8B 7A=9B 4A=10B 5A=11B 6A=9B 7A=8B 3A=12B 2A=13
 B 7A=12B 3A=9B 5A=13B
 Not stable.
 ***********************************************************************

 **********************************************************************

            Population analysis using the SCF density.

 **********************************************************************

 Orbital symmetries:
       Occupied  (AG) (BU) (AG) (BU) (BU) (AG) (AG)
       Virtual   (BU) (BU) (AG) (AG) (BU) (AG) (BU)
 The electronic state is 1-AG.
 Alpha  occ. eigenvalues --   -0.88272  -0.81490  -0.70556  -0.54876  -0.42868
 Alpha  occ. eigenvalues --   -0.35778  -0.32741
 Alpha virt. eigenvalues --   -0.00506   0.10979   0.19159   0.42230   0.43031
 Alpha virt. eigenvalues --    0.67243   0.79699
          Condensed to atoms (all electrons):
               1          2          3          4          5          6
     1  H    0.770825   0.265148   0.132652  -0.108746   0.019090  -0.139461
     2  H    0.265148   0.786298  -0.132623   0.132142  -0.030541  -0.046642
     3  H    0.132652  -0.132623   1.109557  -0.144717   0.373459  -0.079682
     4  H   -0.108746   0.132142  -0.144717   0.805683  -0.120905   0.406402
     5  H    0.019090  -0.030541   0.373459  -0.120905   0.743378  -0.114538
     6  H   -0.139461  -0.046642  -0.079682   0.406402  -0.114538   1.162770
     7  H    0.010681   0.004793  -0.037170  -0.029286   0.152663  -0.137495
     8  H   -0.002922   0.011802  -0.120504   0.003259  -0.056562   0.081780
     9  H   -0.001012  -0.000134   0.000701   0.004387  -0.025346   0.007294
    10  H    0.001455   0.000505  -0.002801  -0.002834  -0.034680  -0.025346
    11  H   -0.000218  -0.000026  -0.000231   0.000736  -0.002834   0.004387
    12  H    0.000046  -0.000263   0.004223  -0.000231  -0.002801   0.000701
    13  H    0.000006   0.000013  -0.000263  -0.000026   0.000505  -0.000134
    14  H    0.000036   0.000006   0.000046  -0.000218   0.001455  -0.001012
               7          8          9         10         11         12
     1  H    0.010681  -0.002922  -0.001012   0.001455  -0.000218   0.000046
     2  H    0.004793   0.011802  -0.000134   0.000505  -0.000026  -0.000263
     3  H   -0.037170  -0.120504   0.000701  -0.002801  -0.000231   0.004223
     4  H   -0.029286   0.003259   0.004387  -0.002834   0.000736  -0.000231
     5  H    0.152663  -0.056562  -0.025346  -0.034680  -0.002834  -0.002801
     6  H   -0.137495   0.081780   0.007294  -0.025346   0.004387   0.000701
     7  H    0.907957   0.203284   0.081780  -0.056562   0.003259  -0.120504
     8  H    0.203284   0.907957  -0.137495   0.152663  -0.029286  -0.037170
     9  H    0.081780  -0.137495   1.162770  -0.114538   0.406402  -0.079682
    10  H   -0.056562   0.152663  -0.114538   0.743378  -0.120905   0.373459
    11  H    0.003259  -0.029286   0.406402  -0.120905   0.805683  -0.144717
    12  H   -0.120504  -0.037170  -0.079682   0.373459  -0.144717   1.109557
    13  H    0.011802   0.004793  -0.046642  -0.030541   0.132142  -0.132623
    14  H   -0.002922   0.010681  -0.139461   0.019090  -0.108746   0.132652
              13         14
     1  H    0.000006   0.000036
     2  H    0.000013   0.000006
     3  H   -0.000263   0.000046
     4  H   -0.000026  -0.000218
     5  H    0.000505   0.001455
     6  H   -0.000134  -0.001012
     7  H    0.011802  -0.002922
     8  H    0.004793   0.010681
     9  H   -0.046642  -0.139461
    10  H   -0.030541   0.019090
    11  H    0.132142  -0.108746
    12  H   -0.132623   0.132652
    13  H    0.786298   0.265148
    14  H    0.265148   0.770825
 Mulliken charges:
               1
     1  H    0.052420
     2  H    0.009522
     3  H   -0.102647
     4  H    0.054353
     5  H    0.097657
     6  H   -0.119025
     7  H    0.007720
     8  H    0.007720
     9  H   -0.119025
    10  H    0.097657
    11  H    0.054353
    12  H   -0.102647
    13  H    0.009522
    14  H    0.052420
 Sum of Mulliken charges =  -0.00000
 Mulliken charges with hydrogens summed into heavy atoms:
               1
 Electronic spatial extent (au):  <R**2>=            304.2974
 Charge=             -0.0000 electrons
 Dipole moment (field-independent basis, Debye):
    X=              0.0000    Y=              0.0000    Z=             -0.0000  Tot=              0.0000
 Quadrupole moment (field-independent basis, Debye-Ang):
   XX=            -17.7633   YY=            -21.1357   ZZ=            -18.0776
   XY=             -1.3981   XZ=             -0.0000   YZ=             -0.0000
 Traceless Quadrupole moment (field-independent basis, Debye-Ang):
   XX=              1.2289   YY=             -2.1435   ZZ=              0.9146
   XY=             -1.3981   XZ=             -0.0000   YZ=             -0.0000
 Octapole moment (field-independent basis, Debye-Ang**2):
  XXX=              0.0000  YYY=             -0.0000  ZZZ=              0.0000  XYY=              0.0000
  XXY=             -0.0000  XXZ=              0.0000  XZZ=              0.0000  YZZ=             -0.0000
  YYZ=              0.0000  XYZ=              0.0000
 Hexadecapole moment (field-independent basis, Debye-Ang**3):
 XXXX=           -515.7605 YYYY=           -134.9729 ZZZZ=            -21.7322 XXXY=             81.0560
 XXXZ=             -0.0000 YYYX=             91.1405 YYYZ=              0.0000 ZZZX=             -0.0000
 ZZZY=              0.0000 XXYY=           -105.1059 XXZZ=            -88.0155 YYZZ=            -25.5076
 XXYZ=              0.0000 YYXZ=             -0.0000 ZZXY=             29.6883
 N-N= 2.287233436036D+01 E-N=-5.848523391856D+01  KE= 7.113787905750D+00
 Symmetry AG   KE= 4.223158523447D+00
 Symmetry BG   KE= 0.000000000000D+00
 Symmetry AU   KE= 0.000000000000D+00
 Symmetry BU   KE= 2.890629382303D+00

 Test job not archived.
 1\1\GINC-SULU\Stability\RHF\Gen\H14\LCJ1\15-Feb-2017\0\\#rhf/gen scf(s
 ymm,tight,novaracc,noincfock,fulldiag) stable(crhf) guess=read geom=no
 crowd test\\hf stability analysis of h12 triangular lattice, y= 0.6328
 6819135903882 alpha= 34.750000000000000\\0,1\H\H,1,1.1103013517\H,1,1.
 1103013517,2,110.5\H,2,1.1103013517,1,69.5,3,0.,0\H,3,1.1103013517,1,1
 80.,2,0.,0\H,4,1.1103013517,2,180.,1,0.,0\H,5,1.1103013517,3,180.,2,0.
 ,0\H,6,1.1103013517,4,180.,1,0.,0\H,7,1.1103013517,5,180.,2,0.,0\H,8,1
 .1103013517,6,180.,1,0.,0\H,9,1.1103013517,7,180.,2,0.,0\H,10,1.110301
 3517,8,180.,1,0.,0\H,11,1.1103013517,9,180.,2,0.,0\H,12,1.1103013517,1
 0,180.,1,0.,0\\Version=ES64L-G09RevE.01\State=1-AG\HF=-6.8792146\MP2=-
 7.0380955\RMSD=9.286e-10\Dipole=0.,0.,0.\Quadrupole=0.9136662,0.679989
 1,-1.5936553,0.,-1.0394397,0.\PG=C02H [SGH(H14)]\\@


 BULLDOZER: SOMEONE WHO SLEEPS THROUGH SPEECHES.
 Job cpu time:       0 days  0 hours  0 minutes  1.3 seconds.
 File lengths (MBytes):  RWF=     84 Int=      0 D2E=      0 Chk=      2 Scr=      2
 Normal termination of Gaussian 09 at Wed Feb 15 13:07:36 2017.
