 Entering Gaussian System, Link 0=g09
 AtFile(1): H.gbs
            H     0
            S   10   1.00
               1000.000000000000            0.000068713567
                316.227766000000            0.000169141320
                100.000000000000            0.000823394812
                 31.622776600000            0.003425569236
                 10.000000000000            0.013951996000
                  3.162277660000            0.056909313560
                  1.000000000000            0.198286399900
                  0.316227766000            0.496922426700
                  0.100000000000            0.369846276400
                  0.031622776600            0.003752720039
            ****
 Initial command:
 /projects/guscus/apps/gau/g09-e1/g09/l1.exe "/users/lcj1/gaussian/h10/2rows_uhf/singlet/mix/Gau-16172.inp" -scrdir="/users/lcj1/gaussian/h10/2rows_uhf/singlet/mix/"
 Entering Link 1 = /projects/guscus/apps/gau/g09-e1/g09/l1.exe PID=     16173.
  
 Copyright (c) 1988,1990,1992,1993,1995,1998,2003,2009,2015,
            Gaussian, Inc.  All Rights Reserved.
  
 This is part of the Gaussian(R) 09 program.  It is based on
 the Gaussian(R) 03 system (copyright 2003, Gaussian, Inc.),
 the Gaussian(R) 98 system (copyright 1998, Gaussian, Inc.),
 the Gaussian(R) 94 system (copyright 1995, Gaussian, Inc.),
 the Gaussian 92(TM) system (copyright 1992, Gaussian, Inc.),
 the Gaussian 90(TM) system (copyright 1990, Gaussian, Inc.),
 the Gaussian 88(TM) system (copyright 1988, Gaussian, Inc.),
 the Gaussian 86(TM) system (copyright 1986, Carnegie Mellon
 University), and the Gaussian 82(TM) system (copyright 1983,
 Carnegie Mellon University). Gaussian is a federally registered
 trademark of Gaussian, Inc.
  
 This software contains proprietary and confidential information,
 including trade secrets, belonging to Gaussian, Inc.
  
 This software is provided under written license and may be
 used, copied, transmitted, or stored only in accord with that
 written license.
  
 The following legend is applicable only to US Government
 contracts under FAR:
  
                    RESTRICTED RIGHTS LEGEND
  
 Use, reproduction and disclosure by the US Government is
 subject to restrictions as set forth in subparagraphs (a)
 and (c) of the Commercial Computer Software - Restricted
 Rights clause in FAR 52.227-19.
  
 Gaussian, Inc.
 340 Quinnipiac St., Bldg. 40, Wallingford CT 06492
  
  
 ---------------------------------------------------------------
 Warning -- This program may not be used in any manner that
 competes with the business of Gaussian, Inc. or will provide
 assistance to any competitor of Gaussian, Inc.  The licensee
 of this program is prohibited from giving any competitor of
 Gaussian, Inc. access to this program.  By using this program,
 the user acknowledges that Gaussian, Inc. is engaged in the
 business of creating and licensing software in the field of
 computational chemistry and represents and warrants to the
 licensee that it is not a competitor of Gaussian, Inc. and that
 it will not use this program in any manner prohibited above.
 ---------------------------------------------------------------
  

 Cite this work as:
 Gaussian 09, Revision E.01,
 M. J. Frisch, G. W. Trucks, H. B. Schlegel, G. E. Scuseria, 
 M. A. Robb, J. R. Cheeseman, G. Scalmani, V. Barone, B. Mennucci, 
 G. A. Petersson, H. Nakatsuji, M. Caricato, X. Li, H. P. Hratchian, 
 A. F. Izmaylov, J. Bloino, G. Zheng, J. L. Sonnenberg, M. Hada, 
 M. Ehara, K. Toyota, R. Fukuda, J. Hasegawa, M. Ishida, T. Nakajima, 
 Y. Honda, O. Kitao, H. Nakai, T. Vreven, J. A. Montgomery, Jr., 
 J. E. Peralta, F. Ogliaro, M. Bearpark, J. J. Heyd, E. Brothers, 
 K. N. Kudin, V. N. Staroverov, T. Keith, R. Kobayashi, J. Normand, 
 K. Raghavachari, A. Rendell, J. C. Burant, S. S. Iyengar, J. Tomasi, 
 M. Cossi, N. Rega, J. M. Millam, M. Klene, J. E. Knox, J. B. Cross, 
 V. Bakken, C. Adamo, J. Jaramillo, R. Gomperts, R. E. Stratmann, 
 O. Yazyev, A. J. Austin, R. Cammi, C. Pomelli, J. W. Ochterski, 
 R. L. Martin, K. Morokuma, V. G. Zakrzewski, G. A. Voth, 
 P. Salvador, J. J. Dannenberg, S. Dapprich, A. D. Daniels, 
 O. Farkas, J. B. Foresman, J. V. Ortiz, J. Cioslowski, 
 and D. J. Fox, Gaussian, Inc., Wallingford CT, 2013.
 
 ******************************************
 Gaussian 09:  ES64L-G09RevE.01 30-Nov-2015
                28-Feb-2017 
 ******************************************
 %chk=h10.chk
 ----------------------------------------------------------------------
 #uhf/gen scf(tight,novaracc,noincfock,fulldiag, ) stable(crhf) guess=m
 ix geom=nocrowd test
 ----------------------------------------------------------------------
 1/38=1/1;
 2/12=1,17=6,18=5,40=1/2;
 3/5=7,16=1,25=1,30=1,116=2/1,2,3;
 4/13=-1/1;
 5/5=100002,16=1,32=2,38=1/2;
 8/6=1,10=90,11=11/1,4;
 9/8=4,13=1/2;
 6/7=2,8=2,9=2,10=2,28=1/1;
 99/5=1,9=1/99;
 ----------------------------------------------------------------------
 hf stability analysis of h10 triangular lattice, y= 0.3310791093259662
 4 alpha= 10.750000000000000
 ----------------------------------------------------------------------
 Symbolic Z-matrix:
 Charge =  0 Multiplicity = 1
 H
 H                    1     1.77499 
 H                    1     1.77499  2     158.5 
 H                    2     1.77499  1     21.5     3     0.       0
 H                    3     1.77499  1     180.     2     0.       0
 H                    4     1.77499  2     180.     1     0.       0
 H                    5     1.77499  3     180.     2     0.       0
 H                    6     1.77499  4     180.     1     0.       0
 H                    7     1.77499  5     180.     2     0.       0
 H                    8     1.77499  6     180.     1     0.       0
 
                          Input orientation:                          
 ---------------------------------------------------------------------
 Center     Atomic      Atomic             Coordinates (Angstroms)
 Number     Number       Type             X           Y           Z
 ---------------------------------------------------------------------
      1          1           0        0.000000    0.000000    0.000000
      2          1           0        0.000000    0.000000    1.774994
      3          1           0        0.650538    0.000000   -1.651486
      4          1           0        0.650538    0.000000    0.123508
      5          1           0        1.301075    0.000000   -3.302972
      6          1           0        1.301075    0.000000   -1.527977
      7          1           0        1.951613    0.000000   -4.954458
      8          1           0        1.951613    0.000000   -3.179463
      9          1           0        2.602150    0.000000   -6.605944
     10          1           0        2.602150    0.000000   -4.830949
 ---------------------------------------------------------------------
                    Distance matrix (angstroms):
                    1          2          3          4          5
     1  H    0.000000
     2  H    1.774994   0.000000
     3  H    1.774994   3.487688   0.000000
     4  H    0.662158   1.774994   1.774994   0.000000
     5  H    3.549989   5.241997   1.774994   3.487688   0.000000
     6  H    2.006866   3.549989   0.662158   1.774994   1.774994
     7  H    5.324983   7.006734   3.549989   5.241997   1.774994
     8  H    3.730654   5.324983   2.006866   3.549989   0.662158
     9  H    7.099977   8.775609   5.324983   7.006734   3.549989
    10  H    5.487190   7.099977   3.730654   5.324983   2.006866
                    6          7          8          9         10
     6  H    0.000000
     7  H    3.487688   0.000000
     8  H    1.774994   1.774994   0.000000
     9  H    5.241997   1.774994   3.487688   0.000000
    10  H    3.549989   0.662158   1.774994   1.774994   0.000000
 Stoichiometry    H10
 Framework group  C2H[SGH(H10)]
 Deg. of freedom     9
 Full point group                 C2H     NOp   4
 Largest Abelian subgroup         C2H     NOp   4
 Largest concise Abelian subgroup C2      NOp   2
                         Standard orientation:                         
 ---------------------------------------------------------------------
 Center     Atomic      Atomic             Coordinates (Angstroms)
 Number     Number       Type             X           Y           Z
 ---------------------------------------------------------------------
      1          1           0        1.301075   -2.415475    0.000000
      2          1           0        1.301075   -4.190469    0.000000
      3          1           0        0.650538   -0.763989    0.000000
      4          1           0        0.650538   -2.538983    0.000000
      5          1           0       -0.000000    0.887497    0.000000
      6          1           0       -0.000000   -0.887497    0.000000
      7          1           0       -0.650538    2.538983    0.000000
      8          1           0       -0.650538    0.763989    0.000000
      9          1           0       -1.301075    4.190469    0.000000
     10          1           0       -1.301075    2.415475    0.000000
 ---------------------------------------------------------------------
 Rotational constants (GHZ):    526.0415642      7.1702670      7.0738462
 General basis read from cards:  (5D, 7F)
 There are     5 symmetry adapted cartesian basis functions of AG  symmetry.
 There are     0 symmetry adapted cartesian basis functions of BG  symmetry.
 There are     0 symmetry adapted cartesian basis functions of AU  symmetry.
 There are     5 symmetry adapted cartesian basis functions of BU  symmetry.
 There are     5 symmetry adapted basis functions of AG  symmetry.
 There are     0 symmetry adapted basis functions of BG  symmetry.
 There are     0 symmetry adapted basis functions of AU  symmetry.
 There are     5 symmetry adapted basis functions of BU  symmetry.
    10 basis functions,   100 primitive gaussians,    10 cartesian basis functions
     5 alpha electrons        5 beta electrons
       nuclear repulsion energy        10.8056013838 Hartrees.
 NAtoms=   10 NActive=   10 NUniq=    5 SFac= 4.00D+00 NAtFMM=   60 NAOKFM=F Big=F
 Integral buffers will be    131072 words long.
 Regular integral format.
 Two-electron integral symmetry is turned on.
 One-electron integrals computed using PRISM.
 NBasis=    10 RedAO= T EigKep=  1.54D-01  NBF=     5     0     0     5
 NBsUse=    10 1.00D-06 EigRej= -1.00D+00 NBFU=     5     0     0     5
 ExpMin= 3.16D-02 ExpMax= 1.00D+03 ExpMxC= 1.00D+01 IAcc=3 IRadAn=         5 AccDes= 0.00D+00
 Harris functional with IExCor=  205 and IRadAn=       5 diagonalized for initial guess.
 HarFok:  IExCor=  205 AccDes= 0.00D+00 IRadAn=         5 IDoV= 1 UseB2=F ITyADJ=14
 ICtDFT=  3500011 ScaDFX=  1.000000  1.000000  1.000000  1.000000
 FoFCou: FMM=F IPFlag=           0 FMFlag=      100000 FMFlg1=           0
         NFxFlg=           0 DoJE=T BraDBF=F KetDBF=T FulRan=T
         wScrn=  0.000000 ICntrl=     500 IOpCl=  0 I1Cent=   200000004 NGrid=           0
         NMat0=    1 NMatS0=      1 NMatT0=    0 NMatD0=    1 NMtDS0=    0 NMtDT0=    0
 Petite list used in FoFCou.
 Mixing orbitals, IMix= 1 IMixAn=  0 NRI=1 NE=    5 Coef=  7.07106781D-01  7.07106781D-01
 Mixing orbitals, IMix= 1 IMixAn=  0 NRI=1 NE=    5 Coef= -7.07106781D-01  7.07106781D-01
 Initial guess orbital symmetries:
 Alpha Orbitals:
       Occupied  (AG) (BU) (AG) (BU) (?A)
       Virtual   (?A) (BU) (AG) (BU) (AG)
 Beta  Orbitals:
       Occupied  (AG) (BU) (AG) (BU) (?A)
       Virtual   (?A) (BU) (AG) (BU) (AG)
 Initial guess <Sx>= 0.0000 <Sy>= 0.0000 <Sz>= 0.0000 <S**2>= 1.0000 S= 0.6180
 Keep R1 and R2 ints in memory in symmetry-blocked form, NReq=873783.
 Requested convergence on RMS density matrix=1.00D-08 within 128 cycles.
 Requested convergence on MAX density matrix=1.00D-06.
 Requested convergence on             energy=1.00D-06.
 No special actions if energy rises.
 An orbital has undefined symmetry, so N**3 symmetry is turned off.
 Density matrix breaks symmetry, PCut= 1.00D-04
 Density matrix has no symmetry -- integrals replicated.
 Density matrix breaks symmetry, PCut= 1.00D-07
 Density matrix has no symmetry -- integrals replicated.
 Density matrix breaks symmetry, PCut= 1.00D-07
 Density matrix has no symmetry -- integrals replicated.
 Density matrix breaks symmetry, PCut= 1.00D-07
 Density matrix has no symmetry -- integrals replicated.
 Density matrix breaks symmetry, PCut= 1.00D-07
 Density matrix has no symmetry -- integrals replicated.
 Density matrix breaks symmetry, PCut= 1.00D-07
 Density matrix has no symmetry -- integrals replicated.
 Density matrix breaks symmetry, PCut= 1.00D-07
 Density matrix has no symmetry -- integrals replicated.
 Density matrix breaks symmetry, PCut= 1.00D-07
 Density matrix has no symmetry -- integrals replicated.
 Density matrix breaks symmetry, PCut= 1.00D-07
 Density matrix has no symmetry -- integrals replicated.
 Density matrix breaks symmetry, PCut= 1.00D-07
 Density matrix has no symmetry -- integrals replicated.
 Density matrix breaks symmetry, PCut= 1.00D-07
 Density matrix has no symmetry -- integrals replicated.
 SCF Done:  E(UHF) =  -5.19543567560     A.U. after   10 cycles
            NFock= 10  Conv=0.51D-08     -V/T= 2.0385
 <Sx>= 0.0000 <Sy>= 0.0000 <Sz>= 0.0000 <S**2>= 1.0000 S= 0.6180
 <L.S>= 0.000000000000E+00
 Annihilation of the first spin contaminant:
 S**2 before annihilation     1.0000,   after     0.0000
 Range of M.O.s used for correlation:     1    10
 NBasis=    10 NAE=     5 NBE=     5 NFC=     0 NFV=     0
 NROrb=     10 NOA=     5 NOB=     5 NVA=     5 NVB=     5
 Semi-Direct transformation.
 ModeAB=           2 MOrb=             5 LenV=     134112261
 LASXX=         1030 LTotXX=        1030 LenRXX=        1030
 LTotAB=        1825 MaxLAS=        2750 LenRXY=        2750
 NonZer=        2750 LenScr=      655360 LnRSAI=           0
 LnScr1=           0 LExtra=           0 Total=       659140
 MaxDsk=          -1 SrtSym=           F ITran=            3
 JobTyp=1 Pass  1:  I=   1 to   5.
 (rs|ai) integrals will be sorted in core.
 ModeAB=           2 MOrb=             5 LenV=     134112261
 LASXX=         1030 LTotXX=        1030 LenRXX=        2750
 LTotAB=         225 MaxLAS=        2750 LenRXY=         225
 NonZer=        2750 LenScr=      655360 LnRSAI=           0
 LnScr1=           0 LExtra=           0 Total=       658335
 MaxDsk=          -1 SrtSym=           F ITran=            3
 JobTyp=2 Pass  1:  I=   1 to   5.
 (rs|ai) integrals will be sorted in core.
 SymMOI:  orbitals are not symmetric.
 Spin components of T(2) and E(2):
     alpha-alpha T2 =       0.1941049772D-03 E2=     -0.4373465337D-03
     alpha-beta  T2 =       0.1740249496D-01 E2=     -0.3894025522D-01
     beta-beta   T2 =       0.1941049772D-03 E2=     -0.4373465337D-03
 ANorm=    0.1008856137D+01
 E2 =    -0.3981494829D-01 EUMP2 =    -0.52352506238855D+01
 (S**2,0)=  0.10000D+01           (S**2,1)=  0.99999D+00
 E(PUHF)=      -0.51954397825D+01        E(PMP2)=      -0.52352547308D+01
 Second order stability test of a single determinant UHF wave function:
 Stabil:  MDV=134217728
 ***********************************************************************
 Matrix         Lowest Root    Major Pairs
 ***********************************************************************
 Internal UHF     0.3227325    Stable
 RUHF --> CUHF (A)0.4974185    Stable
 RUHF --> CUHF (B)0.4974185    Stable
 RUHF --> GHF    0.            Zero root
 Stable under the perturbations considered.
 ***********************************************************************

 **********************************************************************

            Population analysis using the SCF density.

 **********************************************************************

 Orbital symmetries:
 Alpha Orbitals:
       Occupied  (BG) (BG) (BG) (BG) (BG)
       Virtual   (BG) (BG) (BG) (BG) (BG)
 Beta  Orbitals:
       Occupied  (BG) (BG) (BG) (BG) (BG)
       Virtual   (BG) (BG) (BG) (BG) (BG)
 Unable to determine electronic state:  partially filled degenerate orbitals.
 Alpha  occ. eigenvalues --   -0.73719  -0.69834  -0.63448  -0.55816  -0.45982
 Alpha virt. eigenvalues --    0.15978   0.32367   0.41041   0.54095   0.66971
  Beta  occ. eigenvalues --   -0.73719  -0.69834  -0.63448  -0.55816  -0.45982
  Beta virt. eigenvalues --    0.15978   0.32367   0.41041   0.54095   0.66971
          Condensed to atoms (all electrons):
               1          2          3          4          5          6
     1  H    0.645958  -0.053899  -0.057598   0.512914   0.001191  -0.046481
     2  H   -0.053899   1.103874   0.000783  -0.052702  -0.000003   0.001084
     3  H   -0.057598   0.000783   0.678330  -0.053731  -0.059399   0.537486
     4  H    0.512914  -0.052702  -0.053731   0.647119   0.001042  -0.056939
     5  H    0.001191  -0.000003  -0.059399   0.001042   0.676868  -0.056127
     6  H   -0.046481   0.001084   0.537486  -0.056939  -0.056127   0.676868
     7  H   -0.000011  -0.000000   0.001155  -0.000007  -0.056939   0.001042
     8  H    0.001058  -0.000008  -0.047886   0.001155   0.537486  -0.059399
     9  H    0.000000   0.000000  -0.000008  -0.000000   0.001084  -0.000003
    10  H   -0.000012   0.000000   0.001058  -0.000011  -0.046481   0.001191
               7          8          9         10
     1  H   -0.000011   0.001058   0.000000  -0.000012
     2  H   -0.000000  -0.000008   0.000000   0.000000
     3  H    0.001155  -0.047886  -0.000008   0.001058
     4  H   -0.000007   0.001155  -0.000000  -0.000011
     5  H   -0.056939   0.537486   0.001084  -0.046481
     6  H    0.001042  -0.059399  -0.000003   0.001191
     7  H    0.647119  -0.053731  -0.052702   0.512914
     8  H   -0.053731   0.678330   0.000783  -0.057598
     9  H   -0.052702   0.000783   1.103874  -0.053899
    10  H    0.512914  -0.057598  -0.053899   0.645958
          Atomic-Atomic Spin Densities.
               1          2          3          4          5          6
     1  H    0.033509  -0.053339  -0.001801   0.024701   0.000041  -0.002221
     2  H   -0.053339   1.103495   0.001196  -0.052037  -0.000015   0.001453
     3  H   -0.001801   0.001196  -0.000667  -0.001630   0.000254   0.001479
     4  H    0.024701  -0.052037  -0.001630   0.028754   0.000042  -0.002700
     5  H    0.000041  -0.000015   0.000254   0.000042  -0.004574   0.000000
     6  H   -0.002221   0.001453   0.001479  -0.002700   0.000000   0.004574
     7  H    0.000000   0.000000  -0.000061   0.000000   0.002700  -0.000042
     8  H    0.000050  -0.000019   0.000000   0.000061  -0.001479  -0.000254
     9  H   -0.000000   0.000000   0.000019  -0.000000  -0.001453   0.000015
    10  H   -0.000000   0.000000  -0.000050  -0.000000   0.002221  -0.000041
               7          8          9         10
     1  H    0.000000   0.000050  -0.000000  -0.000000
     2  H    0.000000  -0.000019   0.000000   0.000000
     3  H   -0.000061   0.000000   0.000019  -0.000050
     4  H    0.000000   0.000061  -0.000000  -0.000000
     5  H    0.002700  -0.001479  -0.001453   0.002221
     6  H   -0.000042  -0.000254   0.000015  -0.000041
     7  H   -0.028754   0.001630   0.052037  -0.024701
     8  H    0.001630   0.000667  -0.001196   0.001801
     9  H    0.052037  -0.001196  -1.103495   0.053339
    10  H   -0.024701   0.001801   0.053339  -0.033509
 Mulliken charges and spin densities:
               1          2
     1  H   -0.003120   0.000940
     2  H    0.000871   1.000735
     3  H   -0.000190  -0.001261
     4  H    0.001160  -0.002809
     5  H    0.001278  -0.002263
     6  H    0.001278   0.002263
     7  H    0.001160   0.002809
     8  H   -0.000190   0.001261
     9  H    0.000871  -1.000735
    10  H   -0.003120  -0.000940
 Sum of Mulliken charges =   0.00000  -0.00000
 Mulliken charges and spin densities with hydrogens summed into heavy atoms:
               1          2
 Electronic spatial extent (au):  <R**2>=            284.7182
 Charge=              0.0000 electrons
 Dipole moment (field-independent basis, Debye):
    X=              0.0000    Y=             -0.0000    Z=              0.0000  Tot=              0.0000
 Quadrupole moment (field-independent basis, Debye-Ang):
   XX=            -12.1411   YY=            -17.2914   ZZ=            -13.0307
   XY=              1.7289   XZ=              0.0000   YZ=              0.0000
 Traceless Quadrupole moment (field-independent basis, Debye-Ang):
   XX=              2.0133   YY=             -3.1370   ZZ=              1.1237
   XY=              1.7289   XZ=              0.0000   YZ=              0.0000
 Octapole moment (field-independent basis, Debye-Ang**2):
  XXX=              0.0000  YYY=             -0.0000  ZZZ=              0.0000  XYY=              0.0000
  XXY=             -0.0000  XXZ=              0.0000  XZZ=              0.0000  YZZ=             -0.0000
  YYZ=              0.0000  XYZ=              0.0000
 Hexadecapole moment (field-independent basis, Debye-Ang**3):
 XXXX=            -77.5564 YYYY=           -628.1256 ZZZZ=            -15.8620 XXXY=             84.5664
 XXXZ=              0.0000 YYYX=            123.6126 YYYZ=              0.0000 ZZZX=              0.0000
 ZZZY=              0.0000 XXYY=           -106.7937 XXZZ=            -16.1313 YYZZ=            -88.4784
 XXYZ=              0.0000 YYXZ=              0.0000 ZZXY=             28.7408
 N-N= 1.080560138377D+01 E-N=-3.082887728552D+01  KE= 5.002781816264D+00
 Symmetry AG   KE= 2.208194398963D+00
 Symmetry BG   KE= 0.000000000000D+00
 Symmetry AU   KE= 0.000000000000D+00
 Symmetry BU   KE= 2.794587417301D+00
                          Isotropic Fermi Contact Couplings
        Atom                 a.u.       MegaHertz       Gauss      10(-4) cm-1
     1  H(1)               0.01168      26.09674       9.31197       8.70494
     2  H(1)               0.33644     751.91718     268.30274     250.81257
     3  H(1)              -0.00005      -0.10374      -0.03702      -0.03460
     4  H(1)               0.01033      23.07945       8.23532       7.69848
     5  H(1)              -0.00138      -3.09003      -1.10260      -1.03072
     6  H(1)               0.00138       3.09003       1.10260       1.03072
     7  H(1)              -0.01033     -23.07945      -8.23532      -7.69848
     8  H(1)               0.00005       0.10374       0.03702       0.03460
     9  H(1)              -0.33644    -751.91718    -268.30274    -250.81257
    10  H(1)              -0.01168     -26.09674      -9.31197      -8.70494
 --------------------------------------------------------
       Center         ----  Spin Dipole Couplings  ----
                      3XX-RR        3YY-RR        3ZZ-RR
 --------------------------------------------------------
     1   Atom       -0.009973      0.033253     -0.023281
     2   Atom        0.004120     -0.009407      0.005286
     3   Atom       -0.001815      0.005476     -0.003662
     4   Atom       -0.003339      0.027172     -0.023833
     5   Atom        0.000985     -0.003587      0.002602
     6   Atom       -0.000985      0.003587     -0.002602
     7   Atom        0.003339     -0.027172      0.023833
     8   Atom        0.001815     -0.005476      0.003662
     9   Atom       -0.004120      0.009407     -0.005286
    10   Atom        0.009973     -0.033253      0.023281
 --------------------------------------------------------
                        XY            XZ            YZ
 --------------------------------------------------------
     1   Atom       -0.000164      0.000000      0.000000
     2   Atom        0.002740      0.000000      0.000000
     3   Atom       -0.001140      0.000000      0.000000
     4   Atom       -0.013662      0.000000      0.000000
     5   Atom        0.003155      0.000000      0.000000
     6   Atom       -0.003155      0.000000      0.000000
     7   Atom        0.013662      0.000000      0.000000
     8   Atom        0.001140      0.000000      0.000000
     9   Atom       -0.002740      0.000000      0.000000
    10   Atom        0.000164      0.000000      0.000000
 --------------------------------------------------------


 ---------------------------------------------------------------------------------
              Anisotropic Spin Dipole Couplings in Principal Axis System
 ---------------------------------------------------------------------------------

       Atom             a.u.   MegaHertz   Gauss  10(-4) cm-1        Axes

              Baa    -0.0233   -12.421    -4.432    -4.143  0.0000  0.0000  1.0000
     1 H(1)   Bbb    -0.0100    -5.321    -1.899    -1.775  1.0000  0.0038  0.0000
              Bcc     0.0333    17.743     6.331     5.918 -0.0038  1.0000  0.0000
 
              Baa    -0.0099    -5.304    -1.893    -1.769 -0.1913  0.9815  0.0000
     2 H(1)   Bbb     0.0047     2.483     0.886     0.828  0.9815  0.1913  0.0000
              Bcc     0.0053     2.821     1.006     0.941  0.0000  0.0000  1.0000
 
              Baa    -0.0037    -1.954    -0.697    -0.652  0.0000  0.0000  1.0000
     3 H(1)   Bbb    -0.0020    -1.061    -0.379    -0.354  0.9885  0.1510  0.0000
              Bcc     0.0057     3.015     1.076     1.006 -0.1510  0.9885  0.0000
 
              Baa    -0.0238   -12.716    -4.537    -4.242  0.0000  0.0000  1.0000
     4 H(1)   Bbb    -0.0086    -4.569    -1.630    -1.524  0.9341  0.3571  0.0000
              Bcc     0.0324    17.285     6.168     5.766 -0.3571  0.9341  0.0000
 
              Baa    -0.0052    -2.773    -0.989    -0.925 -0.4546  0.8907  0.0000
     5 H(1)   Bbb     0.0026     1.384     0.494     0.462  0.8907  0.4546  0.0000
              Bcc     0.0026     1.388     0.495     0.463  0.0000  0.0000  1.0000
 
              Baa    -0.0026    -1.388    -0.495    -0.463  0.0000  0.0000  1.0000
     6 H(1)   Bbb    -0.0026    -1.384    -0.494    -0.462  0.8907  0.4546  0.0000
              Bcc     0.0052     2.773     0.989     0.925 -0.4546  0.8907  0.0000
 
              Baa    -0.0324   -17.285    -6.168    -5.766 -0.3571  0.9341  0.0000
     7 H(1)   Bbb     0.0086     4.569     1.630     1.524  0.9341  0.3571  0.0000
              Bcc     0.0238    12.716     4.537     4.242  0.0000  0.0000  1.0000
 
              Baa    -0.0057    -3.015    -1.076    -1.006 -0.1510  0.9885  0.0000
     8 H(1)   Bbb     0.0020     1.061     0.379     0.354  0.9885  0.1510  0.0000
              Bcc     0.0037     1.954     0.697     0.652  0.0000  0.0000  1.0000
 
              Baa    -0.0053    -2.821    -1.006    -0.941  0.0000  0.0000  1.0000
     9 H(1)   Bbb    -0.0047    -2.483    -0.886    -0.828  0.9815  0.1913  0.0000
              Bcc     0.0099     5.304     1.893     1.769 -0.1913  0.9815  0.0000
 
              Baa    -0.0333   -17.743    -6.331    -5.918 -0.0038  1.0000  0.0000
    10 H(1)   Bbb     0.0100     5.321     1.899     1.775  1.0000  0.0038  0.0000
              Bcc     0.0233    12.421     4.432     4.143  0.0000  0.0000  1.0000
 

 ---------------------------------------------------------------------------------


 Test job not archived.
 1\1\GINC-SULU\Stability\UHF\Gen\H10\LCJ1\28-Feb-2017\0\\#uhf/gen scf(t
 ight,novaracc,noincfock,fulldiag, ) stable(crhf) guess=mix geom=nocrow
 d test\\hf stability analysis of h10 triangular lattice, y= 0.33107910
 932596624 alpha= 10.750000000000000\\0,1\H\H,1,1.7749942973\H,1,1.7749
 942973,2,158.5\H,2,1.7749942973,1,21.5,3,0.,0\H,3,1.7749942973,1,180.,
 2,0.,0\H,4,1.7749942973,2,180.,1,0.,0\H,5,1.7749942973,3,180.,2,0.,0\H
 ,6,1.7749942973,4,180.,1,0.,0\H,7,1.7749942973,5,180.,2,0.,0\H,8,1.774
 9942973,6,180.,1,0.,0\\Version=ES64L-G09RevE.01\HF=-5.1954357\MP2=-5.2
 352506\PUHF=-5.1954398\PMP2-0=-5.2352547\S2=0.999998\S2-1=0.999993\S2A
 =0.000041\RMSD=5.106e-09\Dipole=0.,0.,0.\Quadrupole=1.4968168,0.835476
 ,-2.3322928,0.,1.2854031,0.\PG=C02H [SGH(H10)]\\@


 WAR ES EIN GOTT DER DIESE ZEICHEN SCHRIEB?
          - LUDWIG BOLTZMANN, QUOTING GOETHE, ABOUT MAXWELL'S EQUATIONS.
 Job cpu time:       0 days  0 hours  0 minutes  1.3 seconds.
 File lengths (MBytes):  RWF=     94 Int=      0 D2E=      0 Chk=      2 Scr=      2
 Normal termination of Gaussian 09 at Tue Feb 28 15:34:04 2017.
