 Entering Gaussian System, Link 0=g09
 AtFile(1): H.gbs
            H     0
            S   10   1.00
               1000.000000000000            0.000068713567
                316.227766000000            0.000169141320
                100.000000000000            0.000823394812
                 31.622776600000            0.003425569236
                 10.000000000000            0.013951996000
                  3.162277660000            0.056909313560
                  1.000000000000            0.198286399900
                  0.316227766000            0.496922426700
                  0.100000000000            0.369846276400
                  0.031622776600            0.003752720039
            ****
 Initial command:
 /projects/guscus/apps/gau/g09-e1/g09/l1.exe "/users/lcj1/gaussian/h10/2rows_uhf/singlet/mix/Gau-19491.inp" -scrdir="/users/lcj1/gaussian/h10/2rows_uhf/singlet/mix/"
 Entering Link 1 = /projects/guscus/apps/gau/g09-e1/g09/l1.exe PID=     19492.
  
 Copyright (c) 1988,1990,1992,1993,1995,1998,2003,2009,2015,
            Gaussian, Inc.  All Rights Reserved.
  
 This is part of the Gaussian(R) 09 program.  It is based on
 the Gaussian(R) 03 system (copyright 2003, Gaussian, Inc.),
 the Gaussian(R) 98 system (copyright 1998, Gaussian, Inc.),
 the Gaussian(R) 94 system (copyright 1995, Gaussian, Inc.),
 the Gaussian 92(TM) system (copyright 1992, Gaussian, Inc.),
 the Gaussian 90(TM) system (copyright 1990, Gaussian, Inc.),
 the Gaussian 88(TM) system (copyright 1988, Gaussian, Inc.),
 the Gaussian 86(TM) system (copyright 1986, Carnegie Mellon
 University), and the Gaussian 82(TM) system (copyright 1983,
 Carnegie Mellon University). Gaussian is a federally registered
 trademark of Gaussian, Inc.
  
 This software contains proprietary and confidential information,
 including trade secrets, belonging to Gaussian, Inc.
  
 This software is provided under written license and may be
 used, copied, transmitted, or stored only in accord with that
 written license.
  
 The following legend is applicable only to US Government
 contracts under FAR:
  
                    RESTRICTED RIGHTS LEGEND
  
 Use, reproduction and disclosure by the US Government is
 subject to restrictions as set forth in subparagraphs (a)
 and (c) of the Commercial Computer Software - Restricted
 Rights clause in FAR 52.227-19.
  
 Gaussian, Inc.
 340 Quinnipiac St., Bldg. 40, Wallingford CT 06492
  
  
 ---------------------------------------------------------------
 Warning -- This program may not be used in any manner that
 competes with the business of Gaussian, Inc. or will provide
 assistance to any competitor of Gaussian, Inc.  The licensee
 of this program is prohibited from giving any competitor of
 Gaussian, Inc. access to this program.  By using this program,
 the user acknowledges that Gaussian, Inc. is engaged in the
 business of creating and licensing software in the field of
 computational chemistry and represents and warrants to the
 licensee that it is not a competitor of Gaussian, Inc. and that
 it will not use this program in any manner prohibited above.
 ---------------------------------------------------------------
  

 Cite this work as:
 Gaussian 09, Revision E.01,
 M. J. Frisch, G. W. Trucks, H. B. Schlegel, G. E. Scuseria, 
 M. A. Robb, J. R. Cheeseman, G. Scalmani, V. Barone, B. Mennucci, 
 G. A. Petersson, H. Nakatsuji, M. Caricato, X. Li, H. P. Hratchian, 
 A. F. Izmaylov, J. Bloino, G. Zheng, J. L. Sonnenberg, M. Hada, 
 M. Ehara, K. Toyota, R. Fukuda, J. Hasegawa, M. Ishida, T. Nakajima, 
 Y. Honda, O. Kitao, H. Nakai, T. Vreven, J. A. Montgomery, Jr., 
 J. E. Peralta, F. Ogliaro, M. Bearpark, J. J. Heyd, E. Brothers, 
 K. N. Kudin, V. N. Staroverov, T. Keith, R. Kobayashi, J. Normand, 
 K. Raghavachari, A. Rendell, J. C. Burant, S. S. Iyengar, J. Tomasi, 
 M. Cossi, N. Rega, J. M. Millam, M. Klene, J. E. Knox, J. B. Cross, 
 V. Bakken, C. Adamo, J. Jaramillo, R. Gomperts, R. E. Stratmann, 
 O. Yazyev, A. J. Austin, R. Cammi, C. Pomelli, J. W. Ochterski, 
 R. L. Martin, K. Morokuma, V. G. Zakrzewski, G. A. Voth, 
 P. Salvador, J. J. Dannenberg, S. Dapprich, A. D. Daniels, 
 O. Farkas, J. B. Foresman, J. V. Ortiz, J. Cioslowski, 
 and D. J. Fox, Gaussian, Inc., Wallingford CT, 2013.
 
 ******************************************
 Gaussian 09:  ES64L-G09RevE.01 30-Nov-2015
                28-Feb-2017 
 ******************************************
 %chk=h10.chk
 ----------------------------------------------------------------------
 #uhf/gen scf(tight,novaracc,noincfock,fulldiag, ) stable(crhf) guess=m
 ix geom=nocrowd test
 ----------------------------------------------------------------------
 1/38=1/1;
 2/12=1,17=6,18=5,40=1/2;
 3/5=7,16=1,25=1,30=1,116=2/1,2,3;
 4/13=-1/1;
 5/5=100002,16=1,32=2,38=1/2;
 8/6=1,10=90,11=11/1,4;
 9/8=4,13=1/2;
 6/7=2,8=2,9=2,10=2,28=1/1;
 99/5=1,9=1/99;
 ----------------------------------------------------------------------
 hf stability analysis of h10 triangular lattice, y= 0.5423787099077283
 0 alpha= 27.000000000000000
 ----------------------------------------------------------------------
 Symbolic Z-matrix:
 Charge =  0 Multiplicity = 1
 H
 H                    1     1.19469 
 H                    1     1.19469  2     126. 
 H                    2     1.19469  1     54.      3     0.       0
 H                    3     1.19469  1     180.     2     0.       0
 H                    4     1.19469  2     180.     1     0.       0
 H                    5     1.19469  3     180.     2     0.       0
 H                    6     1.19469  4     180.     1     0.       0
 H                    7     1.19469  5     180.     2     0.       0
 H                    8     1.19469  6     180.     1     0.       0
 
                          Input orientation:                          
 ---------------------------------------------------------------------
 Center     Atomic      Atomic             Coordinates (Angstroms)
 Number     Number       Type             X           Y           Z
 ---------------------------------------------------------------------
      1          1           0        0.000000    0.000000    0.000000
      2          1           0        0.000000    0.000000    1.194692
      3          1           0        0.966526    0.000000   -0.702222
      4          1           0        0.966526    0.000000    0.492470
      5          1           0        1.933052    0.000000   -1.404444
      6          1           0        1.933052    0.000000   -0.209753
      7          1           0        2.899578    0.000000   -2.106667
      8          1           0        2.899578    0.000000   -0.911975
      9          1           0        3.866104    0.000000   -2.808889
     10          1           0        3.866104    0.000000   -1.614197
 ---------------------------------------------------------------------
                    Distance matrix (angstroms):
                    1          2          3          4          5
     1  H    0.000000
     2  H    1.194692   0.000000
     3  H    1.194692   2.128956   0.000000
     4  H    1.084757   1.194692   1.194692   0.000000
     5  H    2.389383   3.239166   1.194692   2.128956   0.000000
     6  H    1.944399   2.389383   1.084757   1.194692   1.194692
     7  H    3.584075   4.393918   2.389383   3.239166   1.194692
     8  H    3.039613   3.584075   1.944399   2.389383   1.084757
     9  H    4.778767   5.565556   3.584075   4.393918   2.389383
    10  H    4.189557   4.778767   3.039613   3.584075   1.944399
                    6          7          8          9         10
     6  H    0.000000
     7  H    2.128956   0.000000
     8  H    1.194692   1.194692   0.000000
     9  H    3.239166   1.194692   2.128956   0.000000
    10  H    2.389383   1.084757   1.194692   1.194692   0.000000
 Stoichiometry    H10
 Framework group  C2H[SGH(H10)]
 Deg. of freedom     9
 Full point group                 C2H     NOp   4
 Largest Abelian subgroup         C2H     NOp   4
 Largest concise Abelian subgroup C2      NOp   2
                         Standard orientation:                         
 ---------------------------------------------------------------------
 Center     Atomic      Atomic             Coordinates (Angstroms)
 Number     Number       Type             X           Y           Z
 ---------------------------------------------------------------------
      1          1           0        1.933052   -0.807098    0.000000
      2          1           0        1.933052   -2.001790    0.000000
      3          1           0        0.966526   -0.104876   -0.000000
      4          1           0        0.966526   -1.299568    0.000000
      5          1           0        0.000000    0.597346   -0.000000
      6          1           0       -0.000000   -0.597346   -0.000000
      7          1           0       -0.966526    1.299568    0.000000
      8          1           0       -0.966526    0.104876   -0.000000
      9          1           0       -1.933052    2.001790    0.000000
     10          1           0       -1.933052    0.807098    0.000000
 ---------------------------------------------------------------------
 Rotational constants (GHZ):    224.7752762     16.7805751     15.6148501
 General basis read from cards:  (5D, 7F)
 There are     5 symmetry adapted cartesian basis functions of AG  symmetry.
 There are     0 symmetry adapted cartesian basis functions of BG  symmetry.
 There are     0 symmetry adapted cartesian basis functions of AU  symmetry.
 There are     5 symmetry adapted cartesian basis functions of BU  symmetry.
 There are     5 symmetry adapted basis functions of AG  symmetry.
 There are     0 symmetry adapted basis functions of BG  symmetry.
 There are     0 symmetry adapted basis functions of AU  symmetry.
 There are     5 symmetry adapted basis functions of BU  symmetry.
    10 basis functions,   100 primitive gaussians,    10 cartesian basis functions
     5 alpha electrons        5 beta electrons
       nuclear repulsion energy        12.9616844231 Hartrees.
 NAtoms=   10 NActive=   10 NUniq=    5 SFac= 4.00D+00 NAtFMM=   60 NAOKFM=F Big=F
 Integral buffers will be    131072 words long.
 Regular integral format.
 Two-electron integral symmetry is turned on.
 One-electron integrals computed using PRISM.
 NBasis=    10 RedAO= T EigKep=  1.94D-01  NBF=     5     0     0     5
 NBsUse=    10 1.00D-06 EigRej= -1.00D+00 NBFU=     5     0     0     5
 ExpMin= 3.16D-02 ExpMax= 1.00D+03 ExpMxC= 1.00D+01 IAcc=3 IRadAn=         5 AccDes= 0.00D+00
 Harris functional with IExCor=  205 and IRadAn=       5 diagonalized for initial guess.
 HarFok:  IExCor=  205 AccDes= 0.00D+00 IRadAn=         5 IDoV= 1 UseB2=F ITyADJ=14
 ICtDFT=  3500011 ScaDFX=  1.000000  1.000000  1.000000  1.000000
 FoFCou: FMM=F IPFlag=           0 FMFlag=      100000 FMFlg1=           0
         NFxFlg=           0 DoJE=T BraDBF=F KetDBF=T FulRan=T
         wScrn=  0.000000 ICntrl=     500 IOpCl=  0 I1Cent=   200000004 NGrid=           0
         NMat0=    1 NMatS0=      1 NMatT0=    0 NMatD0=    1 NMtDS0=    0 NMtDT0=    0
 Petite list used in FoFCou.
 Mixing orbitals, IMix= 1 IMixAn=  0 NRI=1 NE=    5 Coef=  7.07106781D-01  7.07106781D-01
 Mixing orbitals, IMix= 1 IMixAn=  0 NRI=1 NE=    5 Coef= -7.07106781D-01  7.07106781D-01
 Initial guess orbital symmetries:
 Alpha Orbitals:
       Occupied  (AG) (BU) (AG) (BU) (?A)
       Virtual   (?A) (AG) (BU) (BU) (AG)
 Beta  Orbitals:
       Occupied  (AG) (BU) (AG) (BU) (?A)
       Virtual   (?A) (AG) (BU) (BU) (AG)
 Initial guess <Sx>= 0.0000 <Sy>= 0.0000 <Sz>= 0.0000 <S**2>= 1.0000 S= 0.6180
 Keep R1 and R2 ints in memory in symmetry-blocked form, NReq=878739.
 Requested convergence on RMS density matrix=1.00D-08 within 128 cycles.
 Requested convergence on MAX density matrix=1.00D-06.
 Requested convergence on             energy=1.00D-06.
 No special actions if energy rises.
 An orbital has undefined symmetry, so N**3 symmetry is turned off.
 Density matrix breaks symmetry, PCut= 1.00D-04
 Density matrix has no symmetry -- integrals replicated.
 Density matrix breaks symmetry, PCut= 1.00D-07
 Density matrix has no symmetry -- integrals replicated.
 Density matrix breaks symmetry, PCut= 1.00D-07
 Density matrix has no symmetry -- integrals replicated.
 Density matrix breaks symmetry, PCut= 1.00D-07
 Density matrix has no symmetry -- integrals replicated.
 Density matrix breaks symmetry, PCut= 1.00D-07
 Density matrix has no symmetry -- integrals replicated.
 Density matrix breaks symmetry, PCut= 1.00D-07
 Density matrix has no symmetry -- integrals replicated.
 Density matrix breaks symmetry, PCut= 1.00D-07
 Density matrix has no symmetry -- integrals replicated.
 Density matrix breaks symmetry, PCut= 1.00D-07
 Density matrix has no symmetry -- integrals replicated.
 Density matrix breaks symmetry, PCut= 1.00D-07
 Density matrix has no symmetry -- integrals replicated.
 Density matrix breaks symmetry, PCut= 1.00D-07
 Density matrix has no symmetry -- integrals replicated.
 Density matrix breaks symmetry, PCut= 1.00D-07
 Density matrix has no symmetry -- integrals replicated.
 Density matrix breaks symmetry, PCut= 1.00D-07
 Density matrix has no symmetry -- integrals replicated.
 Density matrix breaks symmetry, PCut= 1.00D-07
 Density matrix has no symmetry -- integrals replicated.
 Density matrix breaks symmetry, PCut= 1.00D-07
 Density matrix has no symmetry -- integrals replicated.
 Density matrix breaks symmetry, PCut= 1.00D-07
 Density matrix has no symmetry -- integrals replicated.
 Density matrix breaks symmetry, PCut= 1.00D-07
 Density matrix has no symmetry -- integrals replicated.
 Density matrix breaks symmetry, PCut= 1.00D-07
 Density matrix has no symmetry -- integrals replicated.
 Density matrix breaks symmetry, PCut= 1.00D-07
 Density matrix has no symmetry -- integrals replicated.
 Density matrix breaks symmetry, PCut= 1.00D-07
 Density matrix has no symmetry -- integrals replicated.
 Density matrix breaks symmetry, PCut= 1.00D-07
 Density matrix has no symmetry -- integrals replicated.
 Density matrix breaks symmetry, PCut= 1.00D-07
 Density matrix has no symmetry -- integrals replicated.
 SCF Done:  E(UHF) =  -4.87956785977     A.U. after   20 cycles
            NFock= 20  Conv=0.40D-08     -V/T= 1.9491
 <Sx>= 0.0000 <Sy>= 0.0000 <Sz>= 0.0000 <S**2>= 0.9282 S= 0.5855
 <L.S>= 0.000000000000E+00
 Annihilation of the first spin contaminant:
 S**2 before annihilation     0.9282,   after     0.9841
 Range of M.O.s used for correlation:     1    10
 NBasis=    10 NAE=     5 NBE=     5 NFC=     0 NFV=     0
 NROrb=     10 NOA=     5 NOB=     5 NVA=     5 NVB=     5
 Semi-Direct transformation.
 ModeAB=           2 MOrb=             5 LenV=     134107893
 LASXX=         1030 LTotXX=        1030 LenRXX=        1030
 LTotAB=        1825 MaxLAS=        2750 LenRXY=        2750
 NonZer=        2750 LenScr=      655360 LnRSAI=           0
 LnScr1=           0 LExtra=           0 Total=       659140
 MaxDsk=          -1 SrtSym=           F ITran=            3
 JobTyp=1 Pass  1:  I=   1 to   5.
 (rs|ai) integrals will be sorted in core.
 ModeAB=           2 MOrb=             5 LenV=     134107893
 LASXX=         1030 LTotXX=        1030 LenRXX=        2750
 LTotAB=         225 MaxLAS=        2750 LenRXY=         225
 NonZer=        2750 LenScr=      655360 LnRSAI=           0
 LnScr1=           0 LExtra=           0 Total=       658335
 MaxDsk=          -1 SrtSym=           F ITran=            3
 JobTyp=2 Pass  1:  I=   1 to   5.
 (rs|ai) integrals will be sorted in core.
 SymMOI:  orbitals are not symmetric.
 Spin components of T(2) and E(2):
     alpha-alpha T2 =       0.4033027600D-02 E2=     -0.5358222229D-02
     alpha-beta  T2 =       0.4621934402D-01 E2=     -0.6692769823D-01
     beta-beta   T2 =       0.4033027600D-02 E2=     -0.5358222229D-02
 ANorm=    0.1026784008D+01
 E2 =    -0.7764414269D-01 EUMP2 =    -0.49572120024583D+01
 (S**2,0)=  0.92820D+00           (S**2,1)=  0.83938D+00
 E(PUHF)=      -0.49283605775D+01        E(PMP2)=      -0.50045722034D+01
 Second order stability test of a single determinant UHF wave function:
 Stabil:  MDV=134217728
 ***********************************************************************
 Matrix         Lowest Root    Major Pairs
 ***********************************************************************
 Internal UHF     0.040443     Stable
 RUHF --> CUHF (A)0.1246115    Stable
 RUHF --> CUHF (B)0.1246115    Stable
 RUHF --> GHF     0.           Zero root
 Stable under the perturbations considered.
 ***********************************************************************

 **********************************************************************

            Population analysis using the SCF density.

 **********************************************************************

 Orbital symmetries:
 Alpha Orbitals:
       Occupied  (BG) (BG) (BG) (BG) (BG)
       Virtual   (BG) (BG) (BG) (BG) (BG)
 Beta  Orbitals:
       Occupied  (BG) (BG) (BG) (BG) (BG)
       Virtual   (BG) (BG) (BG) (BG) (BG)
 Unable to determine electronic state:  partially filled degenerate orbitals.
 Alpha  occ. eigenvalues --   -0.84781  -0.72533  -0.56199  -0.34385  -0.33425
 Alpha virt. eigenvalues --    0.05896   0.18239   0.26319   0.47480   0.57753
  Beta  occ. eigenvalues --   -0.84781  -0.72533  -0.56199  -0.34385  -0.33425
  Beta virt. eigenvalues --    0.05896   0.18239   0.26319   0.47480   0.57753
          Condensed to atoms (all electrons):
               1          2          3          4          5          6
     1  H    0.791516   0.152276   0.120751  -0.044138   0.013513  -0.132477
     2  H    0.152276   0.975215  -0.132994   0.093569   0.002357  -0.044678
     3  H    0.120751  -0.132994   1.249438  -0.082631   0.096076   0.065272
     4  H   -0.044138   0.093569  -0.082631   0.811004  -0.089323   0.253058
     5  H    0.013513   0.002357   0.096076  -0.089323   0.942145  -0.136224
     6  H   -0.132477  -0.044678   0.065272   0.253058  -0.136224   0.942145
     7  H    0.004578   0.001277  -0.010485  -0.008037   0.253058  -0.089323
     8  H   -0.005708   0.010027  -0.165229  -0.010485   0.065272   0.096076
     9  H   -0.000250  -0.000264   0.010027   0.001277  -0.044678   0.002357
    10  H    0.000292  -0.000250  -0.005708   0.004578  -0.132477   0.013513
               7          8          9         10
     1  H    0.004578  -0.005708  -0.000250   0.000292
     2  H    0.001277   0.010027  -0.000264  -0.000250
     3  H   -0.010485  -0.165229   0.010027  -0.005708
     4  H   -0.008037  -0.010485   0.001277   0.004578
     5  H    0.253058   0.065272  -0.044678  -0.132477
     6  H   -0.089323   0.096076   0.002357   0.013513
     7  H    0.811004  -0.082631   0.093569  -0.044138
     8  H   -0.082631   1.249438  -0.132994   0.120751
     9  H    0.093569  -0.132994   0.975215   0.152276
    10  H   -0.044138   0.120751   0.152276   0.791516
          Atomic-Atomic Spin Densities.
               1          2          3          4          5          6
     1  H    0.592970   0.021286   0.053732  -0.167161   0.023457  -0.113205
     2  H    0.021286  -0.545449   0.020605   0.072227  -0.008326   0.013558
     3  H    0.053732   0.020605   0.276243  -0.255664   0.143238  -0.097800
     4  H   -0.167161   0.072227  -0.255664   0.447801  -0.026739   0.170976
     5  H    0.023457  -0.008326   0.143238  -0.026739  -0.373330   0.000000
     6  H   -0.113205   0.013558  -0.097800   0.170976   0.000000   0.373330
     7  H    0.001974  -0.000348  -0.010004   0.000000  -0.170976   0.026739
     8  H    0.007506  -0.000962   0.000000   0.010004   0.097800  -0.143238
     9  H   -0.000645  -0.000000   0.000962   0.000348  -0.013558   0.008326
    10  H   -0.000000   0.000645  -0.007506  -0.001974   0.113205  -0.023457
               7          8          9         10
     1  H    0.001974   0.007506  -0.000645  -0.000000
     2  H   -0.000348  -0.000962  -0.000000   0.000645
     3  H   -0.010004   0.000000   0.000962  -0.007506
     4  H    0.000000   0.010004   0.000348  -0.001974
     5  H   -0.170976   0.097800  -0.013558   0.113205
     6  H    0.026739  -0.143238   0.008326  -0.023457
     7  H   -0.447801   0.255664  -0.072227   0.167161
     8  H    0.255664  -0.276243  -0.020605  -0.053732
     9  H   -0.072227  -0.020605   0.545449  -0.021286
    10  H    0.167161  -0.053732  -0.021286  -0.592970
 Mulliken charges and spin densities:
               1          2
     1  H    0.099646   0.419913
     2  H   -0.056537  -0.426763
     3  H   -0.144517   0.123805
     4  H    0.071127   0.249817
     5  H    0.030280  -0.215230
     6  H    0.030280   0.215230
     7  H    0.071127  -0.249817
     8  H   -0.144517  -0.123805
     9  H   -0.056537   0.426763
    10  H    0.099646  -0.419913
 Sum of Mulliken charges =  -0.00000   0.00000
 Mulliken charges and spin densities with hydrogens summed into heavy atoms:
               1          2
 Electronic spatial extent (au):  <R**2>=            146.2785
 Charge=             -0.0000 electrons
 Dipole moment (field-independent basis, Debye):
    X=             -0.0000    Y=             -0.0000    Z=              0.0000  Tot=              0.0000
 Quadrupole moment (field-independent basis, Debye-Ang):
   XX=            -14.1606   YY=            -15.3769   ZZ=            -12.9621
   XY=              0.5022   XZ=              0.0000   YZ=             -0.0000
 Traceless Quadrupole moment (field-independent basis, Debye-Ang):
   XX=              0.0059   YY=             -1.2104   ZZ=              1.2045
   XY=              0.5022   XZ=              0.0000   YZ=             -0.0000
 Octapole moment (field-independent basis, Debye-Ang**2):
  XXX=              0.0000  YYY=             -0.0000  ZZZ=             -0.0000  XYY=              0.0000
  XXY=             -0.0000  XXZ=             -0.0000  XZZ=             -0.0000  YZZ=             -0.0000
  YYZ=             -0.0000  XYZ=              0.0000
 Hexadecapole moment (field-independent basis, Debye-Ang**3):
 XXXX=           -175.4900 YYYY=           -139.6750 ZZZZ=            -15.6746 XXXY=             64.0684
 XXXZ=              0.0000 YYYX=             65.3628 YYYZ=             -0.0000 ZZZX=              0.0000
 ZZZY=             -0.0000 XXYY=            -59.7946 XXZZ=            -30.7037 YYZZ=            -24.1034
 XXYZ=             -0.0000 YYXZ=              0.0000 ZZXY=             18.3306
 N-N= 1.296168442307D+01 E-N=-3.519710535101D+01  KE= 5.141048605943D+00
 Symmetry AG   KE= 1.942663448631D+00
 Symmetry BG   KE= 0.000000000000D+00
 Symmetry AU   KE= 0.000000000000D+00
 Symmetry BU   KE= 3.198385157312D+00
                          Isotropic Fermi Contact Couplings
        Atom                 a.u.       MegaHertz       Gauss      10(-4) cm-1
     1  H(1)               0.16445     367.52813     131.14317     122.59419
     2  H(1)              -0.15563    -347.81782    -124.11004    -116.01954
     3  H(1)               0.06668     149.02652      53.17637      49.70990
     4  H(1)               0.11445     255.79851      91.27527      85.32520
     5  H(1)              -0.09996    -223.40863     -79.71775     -74.52110
     6  H(1)               0.09996     223.40863      79.71775      74.52110
     7  H(1)              -0.11445    -255.79851     -91.27527     -85.32520
     8  H(1)              -0.06668    -149.02652     -53.17637     -49.70990
     9  H(1)               0.15563     347.81782     124.11004     116.01954
    10  H(1)              -0.16445    -367.52813    -131.14317    -122.59419
 --------------------------------------------------------
       Center         ----  Spin Dipole Couplings  ----
                      3XX-RR        3YY-RR        3ZZ-RR
 --------------------------------------------------------
     1   Atom        0.023714     -0.033287      0.009573
     2   Atom        0.002815      0.044020     -0.046835
     3   Atom        0.035793     -0.009818     -0.025975
     4   Atom        0.049659     -0.036998     -0.012662
     5   Atom        0.009267     -0.002529     -0.006738
     6   Atom       -0.009267      0.002529      0.006738
     7   Atom       -0.049659      0.036998      0.012662
     8   Atom       -0.035793      0.009818      0.025975
     9   Atom       -0.002815     -0.044020      0.046835
    10   Atom       -0.023714      0.033287     -0.009573
 --------------------------------------------------------
                        XY            XZ            YZ
 --------------------------------------------------------
     1   Atom        0.010676     -0.000000      0.000000
     2   Atom       -0.019328     -0.000000     -0.000000
     3   Atom        0.014407      0.000000     -0.000000
     4   Atom        0.037701      0.000000      0.000000
     5   Atom       -0.010410     -0.000000     -0.000000
     6   Atom        0.010410      0.000000     -0.000000
     7   Atom       -0.037701      0.000000     -0.000000
     8   Atom       -0.014407      0.000000      0.000000
     9   Atom        0.019328      0.000000     -0.000000
    10   Atom       -0.010676      0.000000      0.000000
 --------------------------------------------------------


 ---------------------------------------------------------------------------------
              Anisotropic Spin Dipole Couplings in Principal Axis System
 ---------------------------------------------------------------------------------

       Atom             a.u.   MegaHertz   Gauss  10(-4) cm-1        Axes

              Baa    -0.0352   -18.792    -6.706    -6.268 -0.1782  0.9840  0.0000
     1 H(1)   Bbb     0.0096     5.108     1.823     1.704  0.0000  0.0000  1.0000
              Bcc     0.0256    13.685     4.883     4.565  0.9840  0.1782  0.0000
 
              Baa    -0.0468   -24.989    -8.917    -8.335  0.0000  0.0000  1.0000
     2 H(1)   Bbb    -0.0048    -2.578    -0.920    -0.860  0.9299  0.3679  0.0000
              Bcc     0.0517    27.567     9.837     9.195 -0.3679  0.9299 -0.0000
 
              Baa    -0.0260   -13.859    -4.945    -4.623  0.0000  0.0000  1.0000
     3 H(1)   Bbb    -0.0140    -7.463    -2.663    -2.489 -0.2780  0.9606 -0.0000
              Bcc     0.0400    21.322     7.608     7.112  0.9606  0.2780  0.0000
 
              Baa    -0.0511   -27.267    -9.729    -9.095 -0.3504  0.9366 -0.0000
     4 H(1)   Bbb    -0.0127    -6.756    -2.411    -2.253  0.0000  0.0000  1.0000
              Bcc     0.0638    34.022    12.140    11.349  0.9366  0.3504  0.0000
 
              Baa    -0.0086    -4.586    -1.637    -1.530  0.5035  0.8640 -0.0000
     5 H(1)   Bbb    -0.0067    -3.595    -1.283    -1.199  0.0000  0.0000  1.0000
              Bcc     0.0153     8.182     2.919     2.729  0.8640 -0.5035  0.0000
 
              Baa    -0.0153    -8.182    -2.919    -2.729  0.8640 -0.5035  0.0000
     6 H(1)   Bbb     0.0067     3.595     1.283     1.199  0.0000  0.0000  1.0000
              Bcc     0.0086     4.586     1.637     1.530  0.5035  0.8640  0.0000
 
              Baa    -0.0638   -34.022   -12.140   -11.349  0.9366  0.3504  0.0000
     7 H(1)   Bbb     0.0127     6.756     2.411     2.253  0.0000  0.0000  1.0000
              Bcc     0.0511    27.267     9.729     9.095 -0.3504  0.9366 -0.0000
 
              Baa    -0.0400   -21.322    -7.608    -7.112  0.9606  0.2780  0.0000
     8 H(1)   Bbb     0.0140     7.463     2.663     2.489 -0.2780  0.9606 -0.0000
              Bcc     0.0260    13.859     4.945     4.623  0.0000  0.0000  1.0000
 
              Baa    -0.0517   -27.567    -9.837    -9.195 -0.3679  0.9299  0.0000
     9 H(1)   Bbb     0.0048     2.578     0.920     0.860  0.9299  0.3679  0.0000
              Bcc     0.0468    24.989     8.917     8.335  0.0000  0.0000  1.0000
 
              Baa    -0.0256   -13.685    -4.883    -4.565  0.9840  0.1782  0.0000
    10 H(1)   Bbb    -0.0096    -5.108    -1.823    -1.704  0.0000  0.0000  1.0000
              Bcc     0.0352    18.792     6.706     6.268 -0.1782  0.9840 -0.0000
 

 ---------------------------------------------------------------------------------


 Test job not archived.
 1\1\GINC-SULU\Stability\UHF\Gen\H10\LCJ1\28-Feb-2017\0\\#uhf/gen scf(t
 ight,novaracc,noincfock,fulldiag, ) stable(crhf) guess=mix geom=nocrow
 d test\\hf stability analysis of h10 triangular lattice, y= 0.54237870
 990772830 alpha= 27.000000000000000\\0,1\H\H,1,1.1946917309\H,1,1.1946
 917309,2,126.\H,2,1.1946917309,1,54.,3,0.,0\H,3,1.1946917309,1,180.,2,
 0.,0\H,4,1.1946917309,2,180.,1,0.,0\H,5,1.1946917309,3,180.,2,0.,0\H,6
 ,1.1946917309,4,180.,1,0.,0\H,7,1.1946917309,5,180.,2,0.,0\H,8,1.19469
 17309,6,180.,1,0.,0\\Version=ES64L-G09RevE.01\HF=-4.8795679\MP2=-4.957
 212\PUHF=-4.9283606\PMP2-0=-5.0045722\S2=0.928202\S2-1=0.839381\S2A=0.
 984056\RMSD=4.005e-09\Dipole=0.,0.,0.\Quadrupole=0.004406,0.8954889,-0
 .8998949,0.,0.3733854,0.\PG=C02H [SGH(H10)]\\@


 UNDER MOST GREENE GRASSE LY MOST GREATE SNAKES.
 -- PROVERBS AND REASONS OF THE YEAR 1585
           AS REPRINTED IN PAISLEY MAGAZINE 1828.
 Job cpu time:       0 days  0 hours  0 minutes  1.4 seconds.
 File lengths (MBytes):  RWF=     94 Int=      0 D2E=      0 Chk=      2 Scr=      2
 Normal termination of Gaussian 09 at Tue Feb 28 15:37:22 2017.
