 Entering Gaussian System, Link 0=g09
 AtFile(1): H.gbs
            H     0
            S   10   1.00
               1000.000000000000            0.000068713567
                316.227766000000            0.000169141320
                100.000000000000            0.000823394812
                 31.622776600000            0.003425569236
                 10.000000000000            0.013951996000
                  3.162277660000            0.056909313560
                  1.000000000000            0.198286399900
                  0.316227766000            0.496922426700
                  0.100000000000            0.369846276400
                  0.031622776600            0.003752720039
            ****
 Initial command:
 /projects/guscus/apps/gau/g09-e1/g09/l1.exe "/users/lcj1/gaussian/h10/2rows_uhf/singlet/mix/Gau-18287.inp" -scrdir="/users/lcj1/gaussian/h10/2rows_uhf/singlet/mix/"
 Entering Link 1 = /projects/guscus/apps/gau/g09-e1/g09/l1.exe PID=     18288.
  
 Copyright (c) 1988,1990,1992,1993,1995,1998,2003,2009,2015,
            Gaussian, Inc.  All Rights Reserved.
  
 This is part of the Gaussian(R) 09 program.  It is based on
 the Gaussian(R) 03 system (copyright 2003, Gaussian, Inc.),
 the Gaussian(R) 98 system (copyright 1998, Gaussian, Inc.),
 the Gaussian(R) 94 system (copyright 1995, Gaussian, Inc.),
 the Gaussian 92(TM) system (copyright 1992, Gaussian, Inc.),
 the Gaussian 90(TM) system (copyright 1990, Gaussian, Inc.),
 the Gaussian 88(TM) system (copyright 1988, Gaussian, Inc.),
 the Gaussian 86(TM) system (copyright 1986, Carnegie Mellon
 University), and the Gaussian 82(TM) system (copyright 1983,
 Carnegie Mellon University). Gaussian is a federally registered
 trademark of Gaussian, Inc.
  
 This software contains proprietary and confidential information,
 including trade secrets, belonging to Gaussian, Inc.
  
 This software is provided under written license and may be
 used, copied, transmitted, or stored only in accord with that
 written license.
  
 The following legend is applicable only to US Government
 contracts under FAR:
  
                    RESTRICTED RIGHTS LEGEND
  
 Use, reproduction and disclosure by the US Government is
 subject to restrictions as set forth in subparagraphs (a)
 and (c) of the Commercial Computer Software - Restricted
 Rights clause in FAR 52.227-19.
  
 Gaussian, Inc.
 340 Quinnipiac St., Bldg. 40, Wallingford CT 06492
  
  
 ---------------------------------------------------------------
 Warning -- This program may not be used in any manner that
 competes with the business of Gaussian, Inc. or will provide
 assistance to any competitor of Gaussian, Inc.  The licensee
 of this program is prohibited from giving any competitor of
 Gaussian, Inc. access to this program.  By using this program,
 the user acknowledges that Gaussian, Inc. is engaged in the
 business of creating and licensing software in the field of
 computational chemistry and represents and warrants to the
 licensee that it is not a competitor of Gaussian, Inc. and that
 it will not use this program in any manner prohibited above.
 ---------------------------------------------------------------
  

 Cite this work as:
 Gaussian 09, Revision E.01,
 M. J. Frisch, G. W. Trucks, H. B. Schlegel, G. E. Scuseria, 
 M. A. Robb, J. R. Cheeseman, G. Scalmani, V. Barone, B. Mennucci, 
 G. A. Petersson, H. Nakatsuji, M. Caricato, X. Li, H. P. Hratchian, 
 A. F. Izmaylov, J. Bloino, G. Zheng, J. L. Sonnenberg, M. Hada, 
 M. Ehara, K. Toyota, R. Fukuda, J. Hasegawa, M. Ishida, T. Nakajima, 
 Y. Honda, O. Kitao, H. Nakai, T. Vreven, J. A. Montgomery, Jr., 
 J. E. Peralta, F. Ogliaro, M. Bearpark, J. J. Heyd, E. Brothers, 
 K. N. Kudin, V. N. Staroverov, T. Keith, R. Kobayashi, J. Normand, 
 K. Raghavachari, A. Rendell, J. C. Burant, S. S. Iyengar, J. Tomasi, 
 M. Cossi, N. Rega, J. M. Millam, M. Klene, J. E. Knox, J. B. Cross, 
 V. Bakken, C. Adamo, J. Jaramillo, R. Gomperts, R. E. Stratmann, 
 O. Yazyev, A. J. Austin, R. Cammi, C. Pomelli, J. W. Ochterski, 
 R. L. Martin, K. Morokuma, V. G. Zakrzewski, G. A. Voth, 
 P. Salvador, J. J. Dannenberg, S. Dapprich, A. D. Daniels, 
 O. Farkas, J. B. Foresman, J. V. Ortiz, J. Cioslowski, 
 and D. J. Fox, Gaussian, Inc., Wallingford CT, 2013.
 
 ******************************************
 Gaussian 09:  ES64L-G09RevE.01 30-Nov-2015
                28-Feb-2017 
 ******************************************
 %chk=h10.chk
 ----------------------------------------------------------------------
 #uhf/gen scf(tight,novaracc,noincfock,fulldiag, ) stable(crhf) guess=m
 ix geom=nocrowd test
 ----------------------------------------------------------------------
 1/38=1/1;
 2/12=1,17=6,18=5,40=1/2;
 3/5=7,16=1,25=1,30=1,116=2/1,2,3;
 4/13=-1/1;
 5/5=100002,16=1,32=2,38=1/2;
 8/6=1,10=90,11=11/1,4;
 9/8=4,13=1/2;
 6/7=2,8=2,9=2,10=2,28=1/1;
 99/5=1,9=1/99;
 ----------------------------------------------------------------------
 hf stability analysis of h10 triangular lattice, y= 0.4738346202814235
 9 alpha= 21.250000000000000
 ----------------------------------------------------------------------
 Symbolic Z-matrix:
 Charge =  0 Multiplicity = 1
 H
 H                    1     1.30735 
 H                    1     1.30735  2     137.5 
 H                    2     1.30735  1     42.5     3     0.       0
 H                    3     1.30735  1     180.     2     0.       0
 H                    4     1.30735  2     180.     1     0.       0
 H                    5     1.30735  3     180.     2     0.       0
 H                    6     1.30735  4     180.     1     0.       0
 H                    7     1.30735  5     180.     2     0.       0
 H                    8     1.30735  6     180.     1     0.       0
 
                          Input orientation:                          
 ---------------------------------------------------------------------
 Center     Atomic      Atomic             Coordinates (Angstroms)
 Number     Number       Type             X           Y           Z
 ---------------------------------------------------------------------
      1          1           0        0.000000    0.000000    0.000000
      2          1           0        0.000000    0.000000    1.307353
      3          1           0        0.883235    0.000000   -0.963882
      4          1           0        0.883235    0.000000    0.343471
      5          1           0        1.766470    0.000000   -1.927764
      6          1           0        1.766470    0.000000   -0.620411
      7          1           0        2.649705    0.000000   -2.891646
      8          1           0        2.649705    0.000000   -1.584293
      9          1           0        3.532941    0.000000   -3.855528
     10          1           0        3.532941    0.000000   -2.548175
 ---------------------------------------------------------------------
                    Distance matrix (angstroms):
                    1          2          3          4          5
     1  H    0.000000
     2  H    1.307353   0.000000
     3  H    1.307353   2.436927   0.000000
     4  H    0.947669   1.307353   1.307353   0.000000
     5  H    2.614707   3.685974   1.307353   2.436927   0.000000
     6  H    1.872252   2.614707   0.947669   1.307353   1.307353
     7  H    3.922060   4.965132   2.614707   3.685974   1.307353
     8  H    3.087219   3.922060   1.872252   2.614707   0.947669
     9  H    5.229414   6.255958   3.922060   4.965132   2.614707
    10  H    4.356015   5.229414   3.087219   3.922060   1.872252
                    6          7          8          9         10
     6  H    0.000000
     7  H    2.436927   0.000000
     8  H    1.307353   1.307353   0.000000
     9  H    3.685974   1.307353   2.436927   0.000000
    10  H    2.614707   0.947669   1.307353   1.307353   0.000000
 Stoichiometry    H10
 Framework group  C2H[SGH(H10)]
 Deg. of freedom     9
 Full point group                 C2H     NOp   4
 Largest Abelian subgroup         C2H     NOp   4
 Largest concise Abelian subgroup C2      NOp   2
                         Standard orientation:                         
 ---------------------------------------------------------------------
 Center     Atomic      Atomic             Coordinates (Angstroms)
 Number     Number       Type             X           Y           Z
 ---------------------------------------------------------------------
      1          1           0        1.766470   -1.274087    0.000000
      2          1           0        1.766470   -2.581441    0.000000
      3          1           0        0.883235   -0.310205    0.000000
      4          1           0        0.883235   -1.617559    0.000000
      5          1           0        0.000000    0.653677   -0.000000
      6          1           0       -0.000000   -0.653677   -0.000000
      7          1           0       -0.883235    1.617559    0.000000
      8          1           0       -0.883235    0.310205    0.000000
      9          1           0       -1.766470    2.581441    0.000000
     10          1           0       -1.766470    1.274087    0.000000
 ---------------------------------------------------------------------
 Rotational constants (GHZ):    275.5750925     13.6872255     13.0395776
 General basis read from cards:  (5D, 7F)
 There are     5 symmetry adapted cartesian basis functions of AG  symmetry.
 There are     0 symmetry adapted cartesian basis functions of BG  symmetry.
 There are     0 symmetry adapted cartesian basis functions of AU  symmetry.
 There are     5 symmetry adapted cartesian basis functions of BU  symmetry.
 There are     5 symmetry adapted basis functions of AG  symmetry.
 There are     0 symmetry adapted basis functions of BG  symmetry.
 There are     0 symmetry adapted basis functions of AU  symmetry.
 There are     5 symmetry adapted basis functions of BU  symmetry.
    10 basis functions,   100 primitive gaussians,    10 cartesian basis functions
     5 alpha electrons        5 beta electrons
       nuclear repulsion energy        12.3612538744 Hartrees.
 NAtoms=   10 NActive=   10 NUniq=    5 SFac= 4.00D+00 NAtFMM=   60 NAOKFM=F Big=F
 Integral buffers will be    131072 words long.
 Regular integral format.
 Two-electron integral symmetry is turned on.
 One-electron integrals computed using PRISM.
 NBasis=    10 RedAO= T EigKep=  1.88D-01  NBF=     5     0     0     5
 NBsUse=    10 1.00D-06 EigRej= -1.00D+00 NBFU=     5     0     0     5
 ExpMin= 3.16D-02 ExpMax= 1.00D+03 ExpMxC= 1.00D+01 IAcc=3 IRadAn=         5 AccDes= 0.00D+00
 Harris functional with IExCor=  205 and IRadAn=       5 diagonalized for initial guess.
 HarFok:  IExCor=  205 AccDes= 0.00D+00 IRadAn=         5 IDoV= 1 UseB2=F ITyADJ=14
 ICtDFT=  3500011 ScaDFX=  1.000000  1.000000  1.000000  1.000000
 FoFCou: FMM=F IPFlag=           0 FMFlag=      100000 FMFlg1=           0
         NFxFlg=           0 DoJE=T BraDBF=F KetDBF=T FulRan=T
         wScrn=  0.000000 ICntrl=     500 IOpCl=  0 I1Cent=   200000004 NGrid=           0
         NMat0=    1 NMatS0=      1 NMatT0=    0 NMatD0=    1 NMtDS0=    0 NMtDT0=    0
 Petite list used in FoFCou.
 Mixing orbitals, IMix= 1 IMixAn=  0 NRI=1 NE=    5 Coef=  7.07106781D-01  7.07106781D-01
 Mixing orbitals, IMix= 1 IMixAn=  0 NRI=1 NE=    5 Coef= -7.07106781D-01  7.07106781D-01
 Initial guess orbital symmetries:
 Alpha Orbitals:
       Occupied  (AG) (BU) (AG) (BU) (?A)
       Virtual   (?A) (AG) (BU) (BU) (AG)
 Beta  Orbitals:
       Occupied  (AG) (BU) (AG) (BU) (?A)
       Virtual   (?A) (AG) (BU) (BU) (AG)
 Initial guess <Sx>= 0.0000 <Sy>= 0.0000 <Sz>= 0.0000 <S**2>= 1.0000 S= 0.6180
 Keep R1 and R2 ints in memory in symmetry-blocked form, NReq=877423.
 Requested convergence on RMS density matrix=1.00D-08 within 128 cycles.
 Requested convergence on MAX density matrix=1.00D-06.
 Requested convergence on             energy=1.00D-06.
 No special actions if energy rises.
 An orbital has undefined symmetry, so N**3 symmetry is turned off.
 Density matrix breaks symmetry, PCut= 1.00D-04
 Density matrix has no symmetry -- integrals replicated.
 Density matrix breaks symmetry, PCut= 1.00D-07
 Density matrix has no symmetry -- integrals replicated.
 Density matrix breaks symmetry, PCut= 1.00D-07
 Density matrix has no symmetry -- integrals replicated.
 Density matrix breaks symmetry, PCut= 1.00D-07
 Density matrix has no symmetry -- integrals replicated.
 Density matrix breaks symmetry, PCut= 1.00D-07
 Density matrix has no symmetry -- integrals replicated.
 Density matrix breaks symmetry, PCut= 1.00D-07
 Density matrix has no symmetry -- integrals replicated.
 Density matrix breaks symmetry, PCut= 1.00D-07
 Density matrix has no symmetry -- integrals replicated.
 Density matrix breaks symmetry, PCut= 1.00D-07
 Density matrix has no symmetry -- integrals replicated.
 Rare condition: small coef for last iteration:  0.000D+00
 Density matrix breaks symmetry, PCut= 1.00D-07
 Density matrix has no symmetry -- integrals replicated.
 Rare condition: small coef for last iteration:  0.000D+00
 Density matrix breaks symmetry, PCut= 1.00D-07
 Density matrix has no symmetry -- integrals replicated.
 Density matrix breaks symmetry, PCut= 1.00D-07
 Density matrix has no symmetry -- integrals replicated.
 Density matrix breaks symmetry, PCut= 1.00D-07
 Density matrix has no symmetry -- integrals replicated.
 Rare condition: small coef for last iteration:  0.000D+00
 Density matrix breaks symmetry, PCut= 1.00D-07
 Density matrix has no symmetry -- integrals replicated.
 Density matrix breaks symmetry, PCut= 1.00D-07
 Density matrix has no symmetry -- integrals replicated.
 Rare condition: small coef for last iteration:  0.000D+00
 Density matrix breaks symmetry, PCut= 1.00D-07
 Density matrix has no symmetry -- integrals replicated.
 Density matrix breaks symmetry, PCut= 1.00D-07
 Density matrix has no symmetry -- integrals replicated.
 Density matrix breaks symmetry, PCut= 1.00D-07
 Density matrix has no symmetry -- integrals replicated.
 Density matrix breaks symmetry, PCut= 1.00D-07
 Density matrix has no symmetry -- integrals replicated.
 Density matrix breaks symmetry, PCut= 1.00D-07
 Density matrix has no symmetry -- integrals replicated.
 Density matrix breaks symmetry, PCut= 1.00D-07
 Density matrix has no symmetry -- integrals replicated.
 Density matrix breaks symmetry, PCut= 1.00D-07
 Density matrix has no symmetry -- integrals replicated.
 Density matrix breaks symmetry, PCut= 1.00D-07
 Density matrix has no symmetry -- integrals replicated.
 Density matrix breaks symmetry, PCut= 1.00D-07
 Density matrix has no symmetry -- integrals replicated.
 Density matrix breaks symmetry, PCut= 1.00D-07
 Density matrix has no symmetry -- integrals replicated.
 Density matrix breaks symmetry, PCut= 1.00D-07
 Density matrix has no symmetry -- integrals replicated.
 SCF Done:  E(UHF) =  -4.82017324631     A.U. after   24 cycles
            NFock= 24  Conv=0.14D-08     -V/T= 1.9395
 <Sx>= 0.0000 <Sy>= 0.0000 <Sz>= 0.0000 <S**2>= 0.9864 S= 0.6119
 <L.S>= 0.000000000000E+00
 Annihilation of the first spin contaminant:
 S**2 before annihilation     0.9864,   after     0.4909
 Range of M.O.s used for correlation:     1    10
 NBasis=    10 NAE=     5 NBE=     5 NFC=     0 NFV=     0
 NROrb=     10 NOA=     5 NOB=     5 NVA=     5 NVB=     5
 Semi-Direct transformation.
 ModeAB=           2 MOrb=             5 LenV=     134109713
 LASXX=         1030 LTotXX=        1030 LenRXX=        1030
 LTotAB=        1825 MaxLAS=        2750 LenRXY=        2750
 NonZer=        2750 LenScr=      655360 LnRSAI=           0
 LnScr1=           0 LExtra=           0 Total=       659140
 MaxDsk=          -1 SrtSym=           F ITran=            3
 JobTyp=1 Pass  1:  I=   1 to   5.
 (rs|ai) integrals will be sorted in core.
 ModeAB=           2 MOrb=             5 LenV=     134109713
 LASXX=         1030 LTotXX=        1030 LenRXX=        2750
 LTotAB=         225 MaxLAS=        2750 LenRXY=         225
 NonZer=        2750 LenScr=      655360 LnRSAI=           0
 LnScr1=           0 LExtra=           0 Total=       658335
 MaxDsk=          -1 SrtSym=           F ITran=            3
 JobTyp=2 Pass  1:  I=   1 to   5.
 (rs|ai) integrals will be sorted in core.
 SymMOI:  orbitals are not symmetric.
 Spin components of T(2) and E(2):
     alpha-alpha T2 =       0.2963751589D-02 E2=     -0.3841977026D-02
     alpha-beta  T2 =       0.5990880831D-01 E2=     -0.7703514265D-01
     beta-beta   T2 =       0.2963751589D-02 E2=     -0.3841977026D-02
 ANorm=    0.1032393487D+01
 E2 =    -0.8471909671D-01 EUMP2 =    -0.49048923430113D+01
 (S**2,0)=  0.98643D+00           (S**2,1)=  0.97574D+00
 E(PUHF)=      -0.48343063974D+01        E(PMP2)=      -0.49189652193D+01
 Second order stability test of a single determinant UHF wave function:
 Stabil:  MDV=134217728
 ***********************************************************************
 Matrix         Lowest Root    Major Pairs
 ***********************************************************************

 Internal UHF    -0.0383112    5B=6B 5A=6A 4A=7A 4B=7B 5B=8B 5A=8A 4A=8A 4B=8B 3A
 =6A 3B=6B 3A=7A 3B=7B
 RUHF --> CUHF (A)0.0888228    Stable
 RUHF --> CUHF (B)0.0888228    Stable



 RUHF --> GHF    -0.0697726    5B=6A 5A=6B 5B=7A 5A=7B 4A=7B 4B=7A 5B=8A 5A=8B 4A
 =6B 4B=6A 4A=8B 4B=8A 3A=8B 3B=8A 5B=9A 5A=9B 3B=7A 3A=7B 3A=6B 3B=6A 2A=9B 2B=9
 A 1B=10A 1A=10B
 Not stable.
 ***********************************************************************

 **********************************************************************

            Population analysis using the SCF density.

 **********************************************************************

 Orbital symmetries:
 Alpha Orbitals:
       Occupied  (BG) (BG) (BG) (BG) (BG)
       Virtual   (BG) (BG) (BG) (BG) (BG)
 Beta  Orbitals:
       Occupied  (BG) (BG) (BG) (BG) (BG)
       Virtual   (BG) (BG) (BG) (BG) (BG)
 Unable to determine electronic state:  partially filled degenerate orbitals.
 Alpha  occ. eigenvalues --   -0.82008  -0.70991  -0.56573  -0.35751  -0.26456
 Alpha virt. eigenvalues --    0.07234   0.16030   0.20464   0.38140   0.60831
  Beta  occ. eigenvalues --   -0.82008  -0.70991  -0.56573  -0.35751  -0.26456
  Beta virt. eigenvalues --    0.07234   0.16030   0.20464   0.38140   0.60831
          Condensed to atoms (all electrons):
               1          2          3          4          5          6
     1  H    1.042281   0.020503   0.151432  -0.065768   0.015180  -0.180777
     2  H    0.020503   0.891439  -0.096192   0.216546   0.003489  -0.022583
     3  H    0.151432  -0.096192   1.076537  -0.110359  -0.019409   0.174738
     4  H   -0.065768   0.216546  -0.110359   0.720168  -0.044941   0.188323
     5  H    0.015180   0.003489  -0.019409  -0.044941   1.113798  -0.179060
     6  H   -0.180777  -0.022583   0.174738   0.188323  -0.179060   1.113798
     7  H    0.002305   0.000248  -0.002551  -0.002113   0.188323  -0.044941
     8  H   -0.004047   0.004332  -0.123567  -0.002551   0.174738  -0.019409
     9  H   -0.000170  -0.000047   0.004332   0.000248  -0.022583   0.003489
    10  H   -0.000038  -0.000170  -0.004047   0.002305  -0.180777   0.015180
               7          8          9         10
     1  H    0.002305  -0.004047  -0.000170  -0.000038
     2  H    0.000248   0.004332  -0.000047  -0.000170
     3  H   -0.002551  -0.123567   0.004332  -0.004047
     4  H   -0.002113  -0.002551   0.000248   0.002305
     5  H    0.188323   0.174738  -0.022583  -0.180777
     6  H   -0.044941  -0.019409   0.003489   0.015180
     7  H    0.720168  -0.110359   0.216546  -0.065768
     8  H   -0.110359   1.076537  -0.096192   0.151432
     9  H    0.216546  -0.096192   0.891439   0.020503
    10  H   -0.065768   0.151432   0.020503   1.042281
          Atomic-Atomic Spin Densities.
               1          2          3          4          5          6
     1  H   -0.819719   0.151409  -0.178784   0.230779  -0.018552   0.156783
     2  H    0.151409   0.130014   0.018498  -0.113875   0.004674  -0.033129
     3  H   -0.178784   0.018498  -0.284168   0.188895  -0.044784   0.178018
     4  H    0.230779  -0.113875   0.188895  -0.295298   0.001582  -0.121382
     5  H   -0.018552   0.004674  -0.044784   0.001582   0.543429  -0.000000
     6  H    0.156783  -0.033129   0.178018  -0.121382  -0.000000  -0.543429
     7  H   -0.001337   0.000194   0.004094  -0.000000   0.121382  -0.001582
     8  H    0.001095  -0.000760  -0.000000  -0.004094  -0.178018   0.044784
     9  H    0.000210   0.000000   0.000760  -0.000194   0.033129  -0.004674
    10  H   -0.000000  -0.000210  -0.001095   0.001337  -0.156783   0.018552
               7          8          9         10
     1  H   -0.001337   0.001095   0.000210  -0.000000
     2  H    0.000194  -0.000760   0.000000  -0.000210
     3  H    0.004094  -0.000000   0.000760  -0.001095
     4  H   -0.000000  -0.004094  -0.000194   0.001337
     5  H    0.121382  -0.178018   0.033129  -0.156783
     6  H   -0.001582   0.044784  -0.004674   0.018552
     7  H    0.295298  -0.188895   0.113875  -0.230779
     8  H   -0.188895   0.284168  -0.018498   0.178784
     9  H    0.113875  -0.018498  -0.130014  -0.151409
    10  H   -0.230779   0.178784  -0.151409   0.819719
 Mulliken charges and spin densities:
               1          2
     1  H    0.019099  -0.478116
     2  H   -0.017565   0.156815
     3  H   -0.050915  -0.118563
     4  H    0.098141  -0.112251
     5  H   -0.048759   0.306060
     6  H   -0.048759  -0.306060
     7  H    0.098141   0.112251
     8  H   -0.050915   0.118563
     9  H   -0.017565  -0.156815
    10  H    0.019099   0.478116
 Sum of Mulliken charges =   0.00000   0.00000
 Mulliken charges and spin densities with hydrogens summed into heavy atoms:
               1          2
 Electronic spatial extent (au):  <R**2>=            167.8111
 Charge=              0.0000 electrons
 Dipole moment (field-independent basis, Debye):
    X=             -0.0000    Y=              0.0000    Z=              0.0000  Tot=              0.0000
 Quadrupole moment (field-independent basis, Debye-Ang):
   XX=            -14.0610   YY=            -13.8956   ZZ=            -13.0412
   XY=             -0.4290   XZ=             -0.0000   YZ=             -0.0000
 Traceless Quadrupole moment (field-independent basis, Debye-Ang):
   XX=             -0.3951   YY=             -0.2296   ZZ=              0.6247
   XY=             -0.4290   XZ=             -0.0000   YZ=             -0.0000
 Octapole moment (field-independent basis, Debye-Ang**2):
  XXX=             -0.0000  YYY=             -0.0000  ZZZ=             -0.0000  XYY=             -0.0000
  XXY=              0.0000  XXZ=             -0.0000  XZZ=             -0.0000  YZZ=              0.0000
  YYZ=             -0.0000  XYZ=              0.0000
 Hexadecapole moment (field-independent basis, Debye-Ang**3):
 XXXX=           -147.9382 YYYY=           -212.7565 ZZZZ=            -15.8696 XXXY=             69.4568
 XXXZ=              0.0000 YYYX=             70.3817 YYYZ=             -0.0000 ZZZX=              0.0000
 ZZZY=             -0.0000 XXYY=            -58.0161 XXZZ=            -26.5410 YYZZ=            -36.7745
 XXYZ=             -0.0000 YYXZ=              0.0000 ZZXY=             22.8429
 N-N= 1.236125387444D+01 E-N=-3.405794043589D+01  KE= 5.130666346665D+00
 Symmetry AG   KE= 2.065678050623D+00
 Symmetry BG   KE= 0.000000000000D+00
 Symmetry AU   KE= 0.000000000000D+00
 Symmetry BU   KE= 3.064988296042D+00
                          Isotropic Fermi Contact Couplings
        Atom                 a.u.       MegaHertz       Gauss      10(-4) cm-1
     1  H(1)              -0.21272    -475.42490    -169.64342    -158.58468
     2  H(1)               0.04361      97.45775      34.77535      32.50841
     3  H(1)              -0.06484    -144.90857     -51.70698     -48.33630
     4  H(1)              -0.06339    -141.67874     -50.55450     -47.25894
     5  H(1)               0.13988     312.63266     111.55510     104.28303
     6  H(1)              -0.13988    -312.63266    -111.55510    -104.28303
     7  H(1)               0.06339     141.67874      50.55450      47.25894
     8  H(1)               0.06484     144.90857      51.70698      48.33630
     9  H(1)              -0.04361     -97.45775     -34.77535     -32.50841
    10  H(1)               0.21272     475.42490     169.64342     158.58468
 --------------------------------------------------------
       Center         ----  Spin Dipole Couplings  ----
                      3XX-RR        3YY-RR        3ZZ-RR
 --------------------------------------------------------
     1   Atom       -0.001237      0.004495     -0.003258
     2   Atom        0.003446     -0.032264      0.028818
     3   Atom       -0.060374      0.029233      0.031140
     4   Atom       -0.068065      0.020737      0.047327
     5   Atom        0.007212     -0.018039      0.010827
     6   Atom       -0.007212      0.018039     -0.010827
     7   Atom        0.068065     -0.020737     -0.047327
     8   Atom        0.060374     -0.029233     -0.031140
     9   Atom       -0.003446      0.032264     -0.028818
    10   Atom        0.001237     -0.004495      0.003258
 --------------------------------------------------------
                        XY            XZ            YZ
 --------------------------------------------------------
     1   Atom        0.000273     -0.000000      0.000000
     2   Atom        0.014485     -0.000000     -0.000000
     3   Atom       -0.010155     -0.000000     -0.000000
     4   Atom       -0.033945     -0.000000      0.000000
     5   Atom        0.010123     -0.000000     -0.000000
     6   Atom       -0.010123      0.000000      0.000000
     7   Atom        0.033945     -0.000000      0.000000
     8   Atom        0.010155     -0.000000     -0.000000
     9   Atom       -0.014485     -0.000000      0.000000
    10   Atom       -0.000273     -0.000000     -0.000000
 --------------------------------------------------------


 ---------------------------------------------------------------------------------
              Anisotropic Spin Dipole Couplings in Principal Axis System
 ---------------------------------------------------------------------------------

       Atom             a.u.   MegaHertz   Gauss  10(-4) cm-1        Axes

              Baa    -0.0033    -1.738    -0.620    -0.580  0.0000  0.0000  1.0000
     1 H(1)   Bbb    -0.0013    -0.667    -0.238    -0.222  0.9989 -0.0475  0.0000
              Bcc     0.0045     2.405     0.858     0.802  0.0475  0.9989  0.0000
 
              Baa    -0.0374   -19.955    -7.121    -6.656 -0.3342  0.9425 -0.0000
     2 H(1)   Bbb     0.0086     4.580     1.634     1.528  0.9425  0.3342  0.0000
              Bcc     0.0288    15.376     5.486     5.129  0.0000  0.0000  1.0000
 
              Baa    -0.0615   -32.819   -11.711   -10.947  0.9938  0.1112  0.0000
     3 H(1)   Bbb     0.0304    16.204     5.782     5.405 -0.1112  0.9938  0.0000
              Bcc     0.0311    16.615     5.929     5.542  0.0000  0.0000  1.0000
 
              Baa    -0.0796   -42.446   -15.146   -14.159  0.9472  0.3206  0.0000
     4 H(1)   Bbb     0.0322    17.195     6.135     5.735 -0.3206  0.9472  0.0000
              Bcc     0.0473    25.252     9.010     8.423  0.0000  0.0000  1.0000
 
              Baa    -0.0216   -11.523    -4.112    -3.844 -0.3315  0.9434 -0.0000
     5 H(1)   Bbb     0.0108     5.746     2.050     1.917  0.9434  0.3315  0.0000
              Bcc     0.0108     5.777     2.061     1.927  0.0000  0.0000  1.0000
 
              Baa    -0.0108    -5.777    -2.061    -1.927  0.0000  0.0000  1.0000
     6 H(1)   Bbb    -0.0108    -5.746    -2.050    -1.917  0.9434  0.3315  0.0000
              Bcc     0.0216    11.523     4.112     3.844 -0.3315  0.9434  0.0000
 
              Baa    -0.0473   -25.252    -9.010    -8.423  0.0000  0.0000  1.0000
     7 H(1)   Bbb    -0.0322   -17.195    -6.135    -5.735 -0.3206  0.9472  0.0000
              Bcc     0.0796    42.446    15.146    14.159  0.9472  0.3206  0.0000
 
              Baa    -0.0311   -16.615    -5.929    -5.542  0.0000  0.0000  1.0000
     8 H(1)   Bbb    -0.0304   -16.204    -5.782    -5.405 -0.1112  0.9938 -0.0000
              Bcc     0.0615    32.819    11.711    10.947  0.9938  0.1112  0.0000
 
              Baa    -0.0288   -15.376    -5.486    -5.129  0.0000  0.0000  1.0000
     9 H(1)   Bbb    -0.0086    -4.580    -1.634    -1.528  0.9425  0.3342  0.0000
              Bcc     0.0374    19.955     7.121     6.656 -0.3342  0.9425  0.0000
 
              Baa    -0.0045    -2.405    -0.858    -0.802  0.0475  0.9989  0.0000
    10 H(1)   Bbb     0.0013     0.667     0.238     0.222  0.9989 -0.0475  0.0000
              Bcc     0.0033     1.738     0.620     0.580  0.0000  0.0000  1.0000
 

 ---------------------------------------------------------------------------------


 Test job not archived.
 1\1\GINC-SULU\Stability\UHF\Gen\H10\LCJ1\28-Feb-2017\0\\#uhf/gen scf(t
 ight,novaracc,noincfock,fulldiag, ) stable(crhf) guess=mix geom=nocrow
 d test\\hf stability analysis of h10 triangular lattice, y= 0.47383462
 028142359 alpha= 21.250000000000000\\0,1\H\H,1,1.3073534167\H,1,1.3073
 534167,2,137.5\H,2,1.3073534167,1,42.5,3,0.,0\H,3,1.3073534167,1,180.,
 2,0.,0\H,4,1.3073534167,2,180.,1,0.,0\H,5,1.3073534167,3,180.,2,0.,0\H
 ,6,1.3073534167,4,180.,1,0.,0\H,7,1.3073534167,5,180.,2,0.,0\H,8,1.307
 3534167,6,180.,1,0.,0\\Version=ES64L-G09RevE.01\HF=-4.8201732\MP2=-4.9
 048923\PUHF=-4.8343064\PMP2-0=-4.9189652\S2=0.986426\S2-1=0.975742\S2A
 =0.490855\RMSD=1.366e-09\Dipole=0.,0.,0.\Quadrupole=-0.2937473,0.46447
 75,-0.1707302,0.,-0.3189209,0.\PG=C02H [SGH(H10)]\\@


 THE ONLY TROUBLE WITH A SURE THING IS THE UNCERTAINTY.
     -- FROM A TEABAG (BELONGING TO W.H.?)
 Job cpu time:       0 days  0 hours  0 minutes  1.4 seconds.
 File lengths (MBytes):  RWF=     94 Int=      0 D2E=      0 Chk=      2 Scr=      2
 Normal termination of Gaussian 09 at Tue Feb 28 15:36:09 2017.
