 Entering Gaussian System, Link 0=g09
 AtFile(1): H.gbs
            H     0
            S   10   1.00
               1000.000000000000            0.000068713567
                316.227766000000            0.000169141320
                100.000000000000            0.000823394812
                 31.622776600000            0.003425569236
                 10.000000000000            0.013951996000
                  3.162277660000            0.056909313560
                  1.000000000000            0.198286399900
                  0.316227766000            0.496922426700
                  0.100000000000            0.369846276400
                  0.031622776600            0.003752720039
            ****
 Initial command:
 /projects/guscus/apps/gau/g09-e1/g09/l1.exe "/users/lcj1/gaussian/h12/rhfstability/cross/Gau-14411.inp" -scrdir="/users/lcj1/gaussian/h12/rhfstability/cross/"
 Entering Link 1 = /projects/guscus/apps/gau/g09-e1/g09/l1.exe PID=     14412.
  
 Copyright (c) 1988,1990,1992,1993,1995,1998,2003,2009,2015,
            Gaussian, Inc.  All Rights Reserved.
  
 This is part of the Gaussian(R) 09 program.  It is based on
 the Gaussian(R) 03 system (copyright 2003, Gaussian, Inc.),
 the Gaussian(R) 98 system (copyright 1998, Gaussian, Inc.),
 the Gaussian(R) 94 system (copyright 1995, Gaussian, Inc.),
 the Gaussian 92(TM) system (copyright 1992, Gaussian, Inc.),
 the Gaussian 90(TM) system (copyright 1990, Gaussian, Inc.),
 the Gaussian 88(TM) system (copyright 1988, Gaussian, Inc.),
 the Gaussian 86(TM) system (copyright 1986, Carnegie Mellon
 University), and the Gaussian 82(TM) system (copyright 1983,
 Carnegie Mellon University). Gaussian is a federally registered
 trademark of Gaussian, Inc.
  
 This software contains proprietary and confidential information,
 including trade secrets, belonging to Gaussian, Inc.
  
 This software is provided under written license and may be
 used, copied, transmitted, or stored only in accord with that
 written license.
  
 The following legend is applicable only to US Government
 contracts under FAR:
  
                    RESTRICTED RIGHTS LEGEND
  
 Use, reproduction and disclosure by the US Government is
 subject to restrictions as set forth in subparagraphs (a)
 and (c) of the Commercial Computer Software - Restricted
 Rights clause in FAR 52.227-19.
  
 Gaussian, Inc.
 340 Quinnipiac St., Bldg. 40, Wallingford CT 06492
  
  
 ---------------------------------------------------------------
 Warning -- This program may not be used in any manner that
 competes with the business of Gaussian, Inc. or will provide
 assistance to any competitor of Gaussian, Inc.  The licensee
 of this program is prohibited from giving any competitor of
 Gaussian, Inc. access to this program.  By using this program,
 the user acknowledges that Gaussian, Inc. is engaged in the
 business of creating and licensing software in the field of
 computational chemistry and represents and warrants to the
 licensee that it is not a competitor of Gaussian, Inc. and that
 it will not use this program in any manner prohibited above.
 ---------------------------------------------------------------
  

 Cite this work as:
 Gaussian 09, Revision E.01,
 M. J. Frisch, G. W. Trucks, H. B. Schlegel, G. E. Scuseria, 
 M. A. Robb, J. R. Cheeseman, G. Scalmani, V. Barone, B. Mennucci, 
 G. A. Petersson, H. Nakatsuji, M. Caricato, X. Li, H. P. Hratchian, 
 A. F. Izmaylov, J. Bloino, G. Zheng, J. L. Sonnenberg, M. Hada, 
 M. Ehara, K. Toyota, R. Fukuda, J. Hasegawa, M. Ishida, T. Nakajima, 
 Y. Honda, O. Kitao, H. Nakai, T. Vreven, J. A. Montgomery, Jr., 
 J. E. Peralta, F. Ogliaro, M. Bearpark, J. J. Heyd, E. Brothers, 
 K. N. Kudin, V. N. Staroverov, T. Keith, R. Kobayashi, J. Normand, 
 K. Raghavachari, A. Rendell, J. C. Burant, S. S. Iyengar, J. Tomasi, 
 M. Cossi, N. Rega, J. M. Millam, M. Klene, J. E. Knox, J. B. Cross, 
 V. Bakken, C. Adamo, J. Jaramillo, R. Gomperts, R. E. Stratmann, 
 O. Yazyev, A. J. Austin, R. Cammi, C. Pomelli, J. W. Ochterski, 
 R. L. Martin, K. Morokuma, V. G. Zakrzewski, G. A. Voth, 
 P. Salvador, J. J. Dannenberg, S. Dapprich, A. D. Daniels, 
 O. Farkas, J. B. Foresman, J. V. Ortiz, J. Cioslowski, 
 and D. J. Fox, Gaussian, Inc., Wallingford CT, 2013.
 
 ******************************************
 Gaussian 09:  ES64L-G09RevE.01 30-Nov-2015
                 9-Feb-2017 
 ******************************************
 %chk=h12.chk
 ----------------------------------------------------------------------
 #rhf/gen scf(symm,tight,novaracc,noincfock,fulldiag) stable(crhf) gues
 s=read geom=nocrowd test
 ----------------------------------------------------------------------
 1/38=1/1;
 2/12=1,17=6,18=5,40=1/2;
 3/5=7,16=1,25=1,30=1,116=1/1,2,3;
 4/5=1,9=4/1;
 5/5=100002,15=2,16=1,32=2,38=6/2;
 8/6=1,10=90,11=11/1,4;
 9/8=4,13=1/2;
 6/7=2,8=2,9=2,10=2,28=1/1;
 99/5=1,9=1/99;
 ----------------------------------------------------------------------
 hf stability analysis of h10 triangular lattice, y= 0.7084369783301545
 1
 ----------------------------------------------------------------------
 Symbolic Z-matrix:
 Charge =  0 Multiplicity = 1
 H
 H                    1     1.07984 
 H                    1     1.07984  2     98. 
 H                    2     1.07984  1     82.      3     0.       0
 H                    4     1.07984  2     180.     3     0.       0
 H                    5     1.07984  4     180.     3     0.       0
 H                    3     1.07984  1     180.     4     0.       0
 H                    7     1.07984  3     180.     4     0.       0
 H                    3     1.07984  4     180.     1     0.       0
 H                    7     1.07984  5     180.     3     0.       0
 H                    4     1.07984  3     180.     1     0.       0
 H                    5     1.07984  7     180.     3     0.       0
 
                          Input orientation:                          
 ---------------------------------------------------------------------
 Center     Atomic      Atomic             Coordinates (Angstroms)
 Number     Number       Type             X           Y           Z
 ---------------------------------------------------------------------
      1          1           0        0.000000    0.000000    0.000000
      2          1           0        0.000000    0.000000    1.079837
      3          1           0        1.069328    0.000000   -0.150284
      4          1           0        1.069328    0.000000    0.929553
      5          1           0        2.138657    0.000000    0.779269
      6          1           0        3.207985    0.000000    0.628984
      7          1           0        2.138657    0.000000   -0.300569
      8          1           0        3.207985    0.000000   -0.450853
      9          1           0        1.069328    0.000000   -1.230122
     10          1           0        2.138657    0.000000   -1.380406
     11          1           0        1.069328    0.000000    2.009390
     12          1           0        2.138657    0.000000    1.859106
 ---------------------------------------------------------------------
                    Distance matrix (angstroms):
                    1          2          3          4          5
     1  H    0.000000
     2  H    1.079837   0.000000
     3  H    1.079837   1.629927   0.000000
     4  H    1.416874   1.079837   1.079837   0.000000
     5  H    2.276206   2.159674   1.416874   1.079837   0.000000
     6  H    3.269065   3.239512   2.276206   2.159674   1.079837
     7  H    2.159674   2.545461   1.079837   1.629927   1.079837
     8  H    3.239512   3.554459   2.159674   2.545461   1.629927
     9  H    1.629927   2.545461   1.079837   2.159674   2.276206
    10  H    2.545461   3.259854   1.629927   2.545461   2.159674
    11  H    2.276206   1.416874   2.159674   1.079837   1.629927
    12  H    2.833748   2.276206   2.276206   1.416874   1.079837
                    6          7          8          9         10
     6  H    0.000000
     7  H    1.416874   0.000000
     8  H    1.079837   1.079837   0.000000
     9  H    2.833748   1.416874   2.276206   0.000000
    10  H    2.276206   1.079837   1.416874   1.079837   0.000000
    11  H    2.545461   2.545461   3.259854   3.239512   3.554459
    12  H    1.629927   2.159674   2.545461   3.269065   3.239512
                   11         12
    11  H    0.000000
    12  H    1.079837   0.000000
 Stoichiometry    H12
 Framework group  D2H[C2'(H.H),C2"(H.H),SG(H8)]
 Deg. of freedom     6
 Full point group                 D2H     NOp   8
 Largest Abelian subgroup         D2H     NOp   8
 Largest concise Abelian subgroup D2      NOp   4
                         Standard orientation:                         
 ---------------------------------------------------------------------
 Center     Atomic      Atomic             Coordinates (Angstroms)
 Number     Number       Type             X           Y           Z
 ---------------------------------------------------------------------
      1          1           0        0.000000    1.416874    0.814963
      2          1           0        0.000000    0.708437    1.629927
      3          1           0        0.000000    0.708437    0.000000
      4          1           0        0.000000   -0.000000    0.814963
      5          1           0       -0.000000   -0.708437   -0.000000
      6          1           0       -0.000000   -1.416874   -0.814963
      7          1           0        0.000000    0.000000   -0.814963
      8          1           0       -0.000000   -0.708437   -1.629927
      9          1           0        0.000000    1.416874   -0.814963
     10          1           0        0.000000    0.708437   -1.629927
     11          1           0       -0.000000   -0.708437    1.629927
     12          1           0       -0.000000   -1.416874    0.814963
 ---------------------------------------------------------------------
 Rotational constants (GHZ):     45.4157978     34.3188760     19.5475702
 General basis read from cards:  (5D, 7F)
 There are     4 symmetry adapted cartesian basis functions of AG  symmetry.
 There are     0 symmetry adapted cartesian basis functions of B1G symmetry.
 There are     0 symmetry adapted cartesian basis functions of B2G symmetry.
 There are     2 symmetry adapted cartesian basis functions of B3G symmetry.
 There are     0 symmetry adapted cartesian basis functions of AU  symmetry.
 There are     3 symmetry adapted cartesian basis functions of B1U symmetry.
 There are     3 symmetry adapted cartesian basis functions of B2U symmetry.
 There are     0 symmetry adapted cartesian basis functions of B3U symmetry.
 There are     4 symmetry adapted basis functions of AG  symmetry.
 There are     0 symmetry adapted basis functions of B1G symmetry.
 There are     0 symmetry adapted basis functions of B2G symmetry.
 There are     2 symmetry adapted basis functions of B3G symmetry.
 There are     0 symmetry adapted basis functions of AU  symmetry.
 There are     3 symmetry adapted basis functions of B1U symmetry.
 There are     3 symmetry adapted basis functions of B2U symmetry.
 There are     0 symmetry adapted basis functions of B3U symmetry.
    12 basis functions,   120 primitive gaussians,    12 cartesian basis functions
     6 alpha electrons        6 beta electrons
       nuclear repulsion energy        20.1841052722 Hartrees.
 NAtoms=   12 NActive=   12 NUniq=    4 SFac= 4.00D+00 NAtFMM=   60 NAOKFM=F Big=F
 Integral buffers will be    131072 words long.
 Regular integral format.
 Two-electron integral symmetry is turned on.
 One-electron integrals computed using PRISM.
 NBasis=    12 RedAO= T EigKep=  1.42D-01  NBF=     4     0     0     2     0     3     3     0
 NBsUse=    12 1.00D-06 EigRej= -1.00D+00 NBFU=     4     0     0     2     0     3     3     0
 Initial guess from the checkpoint file:  "h12.chk"
 B after Tr=    -0.000000    0.000000    0.000000
         Rot=    1.000000   -0.000000   -0.000000   -0.000000 Ang=   0.00 deg.
 Initial guess orbital symmetries:
       Occupied  (AG) (B1U) (B2U) (AG) (AG) (B1U)
       Virtual   (B3G) (B2U) (B1U) (B3G) (B2U) (AG)
 Keep R1 ints in memory in symmetry-blocked form, NReq=904238.
 Requested convergence on RMS density matrix=1.00D-08 within 128 cycles.
 Requested convergence on MAX density matrix=1.00D-06.
 Requested convergence on             energy=1.00D-06.
 No special actions if energy rises.
 SCF Done:  E(RHF) =  -5.16727803118     A.U. after    9 cycles
            NFock=  9  Conv=0.86D-09     -V/T= 1.7128
 Range of M.O.s used for correlation:     1    12
 NBasis=    12 NAE=     6 NBE=     6 NFC=     0 NFV=     0
 NROrb=     12 NOA=     6 NOB=     6 NVA=     6 NVB=     6

 **** Warning!!: The smallest alpha delta epsilon is -0.15459192D+00

 Semi-Direct transformation.
 ModeAB=           4 MOrb=             6 LenV=     134083417
 LASXX=         2181 LTotXX=        2181 LenRXX=        5115
 LTotAB=        2934 MaxLAS=        1800 LenRXY=           0
 NonZer=        7296 LenScr=      655360 LnRSAI=        1800
 LnScr1=      655360 LExtra=           0 Total=      1317635
 MaxDsk=          -1 SrtSym=           T ITran=            3
 JobTyp=0 Pass  1:  I=   1 to   6.
 (rs|ai) integrals will be sorted in core.
 Spin components of T(2) and E(2):
     alpha-alpha T2 =       0.2373258938D-01 E2=     -0.1819096814D-01
     alpha-beta  T2 =       0.4330015841D+00 E2=     -0.1919442707D+00
     beta-beta   T2 =       0.2373258938D-01 E2=     -0.1819096814D-01
 ANorm=    0.1216744329D+01
 E2 =    -0.2283262070D+00 EUMP2 =    -0.53956042381623D+01
 Second order stability test of a single determinant RHF wave function:
 Stabil:  MDV=134217728
 ***********************************************************************
 Matrix         Lowest Root    Major Pairs
 ***********************************************************************
 Internal RHF    -0.3300059    6A=7A
 RRHF --> CRHF   -0.38883      6A=7A
 RRHF --> RUHF   -0.5685416    6A=7B
 Not stable.
 ***********************************************************************

 **********************************************************************

            Population analysis using the SCF density.

 **********************************************************************

 Orbital symmetries:
       Occupied  (AG) (B1U) (B2U) (AG) (AG) (B1U)
       Virtual   (B3G) (B2U) (B1U) (B3G) (B2U) (AG)
 The electronic state is 1-AG.
 Alpha  occ. eigenvalues --   -0.91209  -0.71356  -0.62398  -0.40741  -0.29907
 Alpha  occ. eigenvalues --   -0.06442
 Alpha virt. eigenvalues --   -0.21901   0.14086   0.27077   0.42037   0.48837
 Alpha virt. eigenvalues --    0.86696
          Condensed to atoms (all electrons):
               1          2          3          4          5          6
     1  H    1.617322   0.009290   0.102656  -0.584803  -0.028889  -0.020855
     2  H    0.009290   0.604071  -0.107581   0.153529  -0.089866  -0.003047
     3  H    0.102656  -0.107581   0.818409   0.115334   0.142907  -0.028889
     4  H   -0.584803   0.153529   0.115334   1.885622   0.115334   0.050526
     5  H   -0.028889  -0.089866   0.142907   0.115334   0.818409   0.102656
     6  H   -0.020855  -0.003047  -0.028889   0.050526   0.102656   1.617322
     7  H    0.050526  -0.023209   0.115334  -0.115667   0.115334  -0.584803
     8  H   -0.003047   0.007205  -0.089866  -0.023209  -0.107581   0.009290
     9  H   -0.078976   0.006787   0.102656   0.050526  -0.028889   0.101323
    10  H    0.006787   0.013869  -0.107581  -0.023209  -0.089866  -0.018284
    11  H   -0.018284   0.225520  -0.089866   0.153529  -0.107581   0.006787
    12  H    0.101323  -0.018284  -0.028889  -0.584803   0.102656  -0.078976
               7          8          9         10         11         12
     1  H    0.050526  -0.003047  -0.078976   0.006787  -0.018284   0.101323
     2  H   -0.023209   0.007205   0.006787   0.013869   0.225520  -0.018284
     3  H    0.115334  -0.089866   0.102656  -0.107581  -0.089866  -0.028889
     4  H   -0.115667  -0.023209   0.050526  -0.023209   0.153529  -0.584803
     5  H    0.115334  -0.107581  -0.028889  -0.089866  -0.107581   0.102656
     6  H   -0.584803   0.009290   0.101323  -0.018284   0.006787  -0.078976
     7  H    1.885622   0.153529  -0.584803   0.153529  -0.023209   0.050526
     8  H    0.153529   0.604071  -0.018284   0.225520   0.013869   0.006787
     9  H   -0.584803  -0.018284   1.617322   0.009290  -0.003047  -0.020855
    10  H    0.153529   0.225520   0.009290   0.604071   0.007205  -0.003047
    11  H   -0.023209   0.013869  -0.003047   0.007205   0.604071   0.009290
    12  H    0.050526   0.006787  -0.020855  -0.003047   0.009290   1.617322
 Mulliken charges:
               1
     1  H   -0.153050
     2  H    0.221716
     3  H    0.055379
     4  H   -0.192711
     5  H    0.055379
     6  H   -0.153050
     7  H   -0.192711
     8  H    0.221716
     9  H   -0.153050
    10  H    0.221716
    11  H    0.221716
    12  H   -0.153050
 Sum of Mulliken charges =  -0.00000
 Mulliken charges with hydrogens summed into heavy atoms:
               1
 Electronic spatial extent (au):  <R**2>=            126.8632
 Charge=             -0.0000 electrons
 Dipole moment (field-independent basis, Debye):
    X=              0.0000    Y=              0.0000    Z=             -0.0000  Tot=              0.0000
 Quadrupole moment (field-independent basis, Debye-Ang):
   XX=            -14.6734   YY=            -23.2751   ZZ=             -9.4700
   XY=             -0.0000   XZ=             -0.0000   YZ=              0.0000
 Traceless Quadrupole moment (field-independent basis, Debye-Ang):
   XX=              1.1327   YY=             -7.4689   ZZ=              6.3362
   XY=             -0.0000   XZ=             -0.0000   YZ=              0.0000
 Octapole moment (field-independent basis, Debye-Ang**2):
  XXX=              0.0000  YYY=             -0.0000  ZZZ=              0.0000  XYY=              0.0000
  XXY=             -0.0000  XXZ=             -0.0000  XZZ=              0.0000  YZZ=             -0.0000
  YYZ=              0.0000  XYZ=             -0.0000
 Hexadecapole moment (field-independent basis, Debye-Ang**3):
 XXXX=            -17.1142 YYYY=           -149.0910 ZZZZ=           -108.5643 XXXY=             -0.0000
 XXXZ=              0.0000 YYYX=             -0.0000 YYYZ=              0.0000 ZZZX=              0.0000
 ZZZY=              0.0000 XXYY=            -22.1283 XXZZ=            -23.6878 YYZZ=            -39.2282
 XXYZ=              0.0000 YYXZ=              0.0000 ZZXY=             -0.0000
 N-N= 2.018410527225D+01 E-N=-5.191076797536D+01  KE= 7.249058665766D+00
 Symmetry AG   KE= 3.421883402587D+00
 Symmetry B1G  KE= 0.000000000000D+00
 Symmetry B2G  KE= 0.000000000000D+00
 Symmetry B3G  KE= 4.319335036515D-16
 Symmetry AU   KE= 0.000000000000D+00
 Symmetry B1U  KE= 3.018349475169D+00
 Symmetry B2U  KE= 8.088257880100D-01
 Symmetry B3U  KE= 0.000000000000D+00

 Test job not archived.
 1\1\GINC-SULU\Stability\RHF\Gen\H12\LCJ1\09-Feb-2017\0\\#rhf/gen scf(s
 ymm,tight,novaracc,noincfock,fulldiag) stable(crhf) guess=read geom=no
 crowd test\\hf stability analysis of h10 triangular lattice, y= 0.7084
 3697833015451\\0,1\H\H,1,1.0798372262\H,1,1.0798372262,2,98.\H,2,1.079
 8372262,1,82.,3,0.,0\H,4,1.0798372262,2,180.,3,0.,0\H,5,1.0798372262,4
 ,180.,3,0.,0\H,3,1.0798372262,1,180.,4,0.,0\H,7,1.0798372262,3,180.,4,
 0.,0\H,3,1.0798372262,4,180.,1,0.,0\H,7,1.0798372262,5,180.,3,0.,0\H,4
 ,1.0798372262,3,180.,1,0.,0\H,5,1.0798372262,7,180.,3,0.,0\\Version=ES
 64L-G09RevE.01\State=1-AG\HF=-5.167278\MP2=-5.3956042\RMSD=8.558e-10\D
 ipole=0.,0.,0.\Quadrupole=-1.1353041,0.8421671,0.293137,0.,-5.0819434,
 0.\PG=D02H [C2'(H1.H1),C2"(H1.H1),SG(H8)]\\@


 MEMORIES ARE LIKE AN ENGLISH GRAMMER LESSON -
 PRESENT TENSE, AND PAST PERFECT.
 Job cpu time:       0 days  0 hours  0 minutes  0.8 seconds.
 File lengths (MBytes):  RWF=     84 Int=      0 D2E=      0 Chk=      2 Scr=      2
 Normal termination of Gaussian 09 at Thu Feb  9 19:15:39 2017.
