 Entering Gaussian System, Link 0=g09
 AtFile(1): H.gbs
            H     0
            S   10   1.00
               1000.000000000000            0.000068713567
                316.227766000000            0.000169141320
                100.000000000000            0.000823394812
                 31.622776600000            0.003425569236
                 10.000000000000            0.013951996000
                  3.162277660000            0.056909313560
                  1.000000000000            0.198286399900
                  0.316227766000            0.496922426700
                  0.100000000000            0.369846276400
                  0.031622776600            0.003752720039
            ****
 Initial command:
 /projects/guscus/apps/gau/g09-e1/g09/l1.exe "/users/lcj1/gaussian/h12/rhfstability/cross/Gau-15095.inp" -scrdir="/users/lcj1/gaussian/h12/rhfstability/cross/"
 Entering Link 1 = /projects/guscus/apps/gau/g09-e1/g09/l1.exe PID=     15096.
  
 Copyright (c) 1988,1990,1992,1993,1995,1998,2003,2009,2015,
            Gaussian, Inc.  All Rights Reserved.
  
 This is part of the Gaussian(R) 09 program.  It is based on
 the Gaussian(R) 03 system (copyright 2003, Gaussian, Inc.),
 the Gaussian(R) 98 system (copyright 1998, Gaussian, Inc.),
 the Gaussian(R) 94 system (copyright 1995, Gaussian, Inc.),
 the Gaussian 92(TM) system (copyright 1992, Gaussian, Inc.),
 the Gaussian 90(TM) system (copyright 1990, Gaussian, Inc.),
 the Gaussian 88(TM) system (copyright 1988, Gaussian, Inc.),
 the Gaussian 86(TM) system (copyright 1986, Carnegie Mellon
 University), and the Gaussian 82(TM) system (copyright 1983,
 Carnegie Mellon University). Gaussian is a federally registered
 trademark of Gaussian, Inc.
  
 This software contains proprietary and confidential information,
 including trade secrets, belonging to Gaussian, Inc.
  
 This software is provided under written license and may be
 used, copied, transmitted, or stored only in accord with that
 written license.
  
 The following legend is applicable only to US Government
 contracts under FAR:
  
                    RESTRICTED RIGHTS LEGEND
  
 Use, reproduction and disclosure by the US Government is
 subject to restrictions as set forth in subparagraphs (a)
 and (c) of the Commercial Computer Software - Restricted
 Rights clause in FAR 52.227-19.
  
 Gaussian, Inc.
 340 Quinnipiac St., Bldg. 40, Wallingford CT 06492
  
  
 ---------------------------------------------------------------
 Warning -- This program may not be used in any manner that
 competes with the business of Gaussian, Inc. or will provide
 assistance to any competitor of Gaussian, Inc.  The licensee
 of this program is prohibited from giving any competitor of
 Gaussian, Inc. access to this program.  By using this program,
 the user acknowledges that Gaussian, Inc. is engaged in the
 business of creating and licensing software in the field of
 computational chemistry and represents and warrants to the
 licensee that it is not a competitor of Gaussian, Inc. and that
 it will not use this program in any manner prohibited above.
 ---------------------------------------------------------------
  

 Cite this work as:
 Gaussian 09, Revision E.01,
 M. J. Frisch, G. W. Trucks, H. B. Schlegel, G. E. Scuseria, 
 M. A. Robb, J. R. Cheeseman, G. Scalmani, V. Barone, B. Mennucci, 
 G. A. Petersson, H. Nakatsuji, M. Caricato, X. Li, H. P. Hratchian, 
 A. F. Izmaylov, J. Bloino, G. Zheng, J. L. Sonnenberg, M. Hada, 
 M. Ehara, K. Toyota, R. Fukuda, J. Hasegawa, M. Ishida, T. Nakajima, 
 Y. Honda, O. Kitao, H. Nakai, T. Vreven, J. A. Montgomery, Jr., 
 J. E. Peralta, F. Ogliaro, M. Bearpark, J. J. Heyd, E. Brothers, 
 K. N. Kudin, V. N. Staroverov, T. Keith, R. Kobayashi, J. Normand, 
 K. Raghavachari, A. Rendell, J. C. Burant, S. S. Iyengar, J. Tomasi, 
 M. Cossi, N. Rega, J. M. Millam, M. Klene, J. E. Knox, J. B. Cross, 
 V. Bakken, C. Adamo, J. Jaramillo, R. Gomperts, R. E. Stratmann, 
 O. Yazyev, A. J. Austin, R. Cammi, C. Pomelli, J. W. Ochterski, 
 R. L. Martin, K. Morokuma, V. G. Zakrzewski, G. A. Voth, 
 P. Salvador, J. J. Dannenberg, S. Dapprich, A. D. Daniels, 
 O. Farkas, J. B. Foresman, J. V. Ortiz, J. Cioslowski, 
 and D. J. Fox, Gaussian, Inc., Wallingford CT, 2013.
 
 ******************************************
 Gaussian 09:  ES64L-G09RevE.01 30-Nov-2015
                 9-Feb-2017 
 ******************************************
 %chk=h12.chk
 ----------------------------------------------------------------------
 #rhf/gen scf(symm,tight,novaracc,noincfock,fulldiag) stable(crhf) gues
 s=read geom=nocrowd test
 ----------------------------------------------------------------------
 1/38=1/1;
 2/12=1,17=6,18=5,40=1/2;
 3/5=7,16=1,25=1,30=1,116=1/1,2,3;
 4/5=1,9=4/1;
 5/5=100002,15=2,16=1,32=2,38=6/2;
 8/6=1,10=90,11=11/1,4;
 9/8=4,13=1/2;
 6/7=2,8=2,9=2,10=2,28=1/1;
 99/5=1,9=1/99;
 ----------------------------------------------------------------------
 hf stability analysis of h10 triangular lattice, y= 0.9612250668035587
 9
 ----------------------------------------------------------------------
 Symbolic Z-matrix:
 Charge =  0 Multiplicity = 1
 H
 H                    1     1.13346 
 H                    1     1.13346  2     64. 
 H                    2     1.13346  1     116.     3     0.       0
 H                    4     1.13346  2     180.     3     0.       0
 H                    5     1.13346  4     180.     3     0.       0
 H                    3     1.13346  1     180.     4     0.       0
 H                    7     1.13346  3     180.     4     0.       0
 H                    3     1.13346  4     180.     1     0.       0
 H                    7     1.13346  5     180.     3     0.       0
 H                    4     1.13346  3     180.     1     0.       0
 H                    5     1.13346  7     180.     3     0.       0
 
                          Input orientation:                          
 ---------------------------------------------------------------------
 Center     Atomic      Atomic             Coordinates (Angstroms)
 Number     Number       Type             X           Y           Z
 ---------------------------------------------------------------------
      1          1           0        0.000000    0.000000    0.000000
      2          1           0        0.000000    0.000000    1.133456
      3          1           0        1.018743    0.000000    0.496874
      4          1           0        1.018743    0.000000    1.630330
      5          1           0        2.037487    0.000000    2.127204
      6          1           0        3.056230    0.000000    2.624079
      7          1           0        2.037487    0.000000    0.993749
      8          1           0        3.056230    0.000000    1.490623
      9          1           0        1.018743    0.000000   -0.636581
     10          1           0        2.037487    0.000000   -0.139707
     11          1           0        1.018743    0.000000    2.763786
     12          1           0        2.037487    0.000000    3.260660
 ---------------------------------------------------------------------
                    Distance matrix (angstroms):
                    1          2          3          4          5
     1  H    0.000000
     2  H    1.133456   0.000000
     3  H    1.133456   1.201280   0.000000
     4  H    1.922450   1.133456   1.133456   0.000000
     5  H    2.945565   2.266912   1.922450   1.133456   0.000000
     6  H    4.028192   3.400367   2.945565   2.266912   1.133456
     7  H    2.266912   2.042271   1.133456   1.201280   1.133456
     8  H    3.400367   3.077029   2.266912   2.042271   1.201280
     9  H    1.201280   2.042271   1.133456   2.266912   2.945565
    10  H    2.042271   2.402560   1.201280   2.042271   2.266912
    11  H    2.945565   1.922450   2.266912   1.133456   1.201280
    12  H    3.844900   2.945565   2.945565   1.922450   1.133456
                    6          7          8          9         10
     6  H    0.000000
     7  H    1.922450   0.000000
     8  H    1.133456   1.133456   0.000000
     9  H    3.844900   1.922450   2.945565   0.000000
    10  H    2.945565   1.133456   1.922450   1.133456   0.000000
    11  H    2.042271   2.042271   2.402560   3.400367   3.077029
    12  H    1.201280   2.266912   2.042271   4.028192   3.400367
                   11         12
    11  H    0.000000
    12  H    1.133456   0.000000
 Stoichiometry    H12
 Framework group  D2H[C2'(H.H),C2"(H.H),SG(H8)]
 Deg. of freedom     6
 Full point group                 D2H     NOp   8
 Largest Abelian subgroup         D2H     NOp   8
 Largest concise Abelian subgroup D2      NOp   4
                         Standard orientation:                         
 ---------------------------------------------------------------------
 Center     Atomic      Atomic             Coordinates (Angstroms)
 Number     Number       Type             X           Y           Z
 ---------------------------------------------------------------------
      1          1           0        0.000000    0.600640    1.922450
      2          1           0        0.000000    1.201280    0.961225
      3          1           0        0.000000    0.000000    0.961225
      4          1           0       -0.000000    0.600640   -0.000000
      5          1           0        0.000000    0.000000   -0.961225
      6          1           0       -0.000000   -0.600640   -1.922450
      7          1           0       -0.000000   -0.600640   -0.000000
      8          1           0       -0.000000   -1.201280   -0.961225
      9          1           0       -0.000000   -0.600640    1.922450
     10          1           0       -0.000000   -1.201280    0.961225
     11          1           0        0.000000    1.201280   -0.961225
     12          1           0        0.000000    0.600640   -1.922450
 ---------------------------------------------------------------------
 Rotational constants (GHZ):     63.1801661     24.6694355     17.7419021
 General basis read from cards:  (5D, 7F)
 There are     4 symmetry adapted cartesian basis functions of AG  symmetry.
 There are     0 symmetry adapted cartesian basis functions of B1G symmetry.
 There are     0 symmetry adapted cartesian basis functions of B2G symmetry.
 There are     2 symmetry adapted cartesian basis functions of B3G symmetry.
 There are     0 symmetry adapted cartesian basis functions of AU  symmetry.
 There are     3 symmetry adapted cartesian basis functions of B1U symmetry.
 There are     3 symmetry adapted cartesian basis functions of B2U symmetry.
 There are     0 symmetry adapted cartesian basis functions of B3U symmetry.
 There are     4 symmetry adapted basis functions of AG  symmetry.
 There are     0 symmetry adapted basis functions of B1G symmetry.
 There are     0 symmetry adapted basis functions of B2G symmetry.
 There are     2 symmetry adapted basis functions of B3G symmetry.
 There are     0 symmetry adapted basis functions of AU  symmetry.
 There are     3 symmetry adapted basis functions of B1U symmetry.
 There are     3 symmetry adapted basis functions of B2U symmetry.
 There are     0 symmetry adapted basis functions of B3U symmetry.
    12 basis functions,   120 primitive gaussians,    12 cartesian basis functions
     6 alpha electrons        6 beta electrons
       nuclear repulsion energy        19.8028950256 Hartrees.
 NAtoms=   12 NActive=   12 NUniq=    4 SFac= 4.00D+00 NAtFMM=   60 NAOKFM=F Big=F
 Integral buffers will be    131072 words long.
 Regular integral format.
 Two-electron integral symmetry is turned on.
 One-electron integrals computed using PRISM.
 NBasis=    12 RedAO= T EigKep=  1.55D-01  NBF=     4     0     0     2     0     3     3     0
 NBsUse=    12 1.00D-06 EigRej= -1.00D+00 NBFU=     4     0     0     2     0     3     3     0
 Initial guess from the checkpoint file:  "h12.chk"
 B after Tr=     0.000000   -0.000000   -0.000000
         Rot=    1.000000   -0.000000    0.000000    0.000000 Ang=   0.00 deg.
 Initial guess orbital symmetries:
       Occupied  (AG) (B1U) (B2U) (AG) (AG) (B2U)
       Virtual   (B3G) (B1U) (B1U) (B3G) (B2U) (AG)
 Keep R1 ints in memory in symmetry-blocked form, NReq=904490.
 Requested convergence on RMS density matrix=1.00D-08 within 128 cycles.
 Requested convergence on MAX density matrix=1.00D-06.
 Requested convergence on             energy=1.00D-06.
 No special actions if energy rises.
 SCF Done:  E(RHF) =  -5.02093043897     A.U. after    8 cycles
            NFock=  8  Conv=0.18D-08     -V/T= 1.6836
 Range of M.O.s used for correlation:     1    12
 NBasis=    12 NAE=     6 NBE=     6 NFC=     0 NFV=     0
 NROrb=     12 NOA=     6 NOB=     6 NVA=     6 NVB=     6

 **** Warning!!: The smallest alpha delta epsilon is -0.13860813D+00

 Semi-Direct transformation.
 ModeAB=           4 MOrb=             6 LenV=     134082941
 LASXX=         2181 LTotXX=        2181 LenRXX=        5115
 LTotAB=        2934 MaxLAS=        1800 LenRXY=           0
 NonZer=        7296 LenScr=      655360 LnRSAI=        1800
 LnScr1=      655360 LExtra=           0 Total=      1317635
 MaxDsk=          -1 SrtSym=           T ITran=            3
 JobTyp=0 Pass  1:  I=   1 to   6.
 (rs|ai) integrals will be sorted in core.
 Spin components of T(2) and E(2):
     alpha-alpha T2 =       0.1488773967D+00 E2=     -0.3951764883D-01
     alpha-beta  T2 =       0.8726399199D+00 E2=     -0.2783690785D+00
     beta-beta   T2 =       0.1488773967D+00 E2=     -0.3951764883D-01
 ANorm=    0.1473225955D+01
 E2 =    -0.3574043761D+00 EUMP2 =    -0.53783348151076D+01
 Second order stability test of a single determinant RHF wave function:
 Stabil:  MDV=134217728
 ***********************************************************************
 Matrix         Lowest Root    Major Pairs
 ***********************************************************************
 Internal RHF    -0.3382731    6A=7A
 RRHF --> CRHF   -0.3691548    6A=7A
 RRHF --> RUHF   -0.5312327    6A=7B
 Not stable.
 ***********************************************************************

 **********************************************************************

            Population analysis using the SCF density.

 **********************************************************************

 Orbital symmetries:
       Occupied  (AG) (B1U) (B2U) (AG) (AG) (B2U)
       Virtual   (B3G) (B1U) (B1U) (B3G) (AG) (B2U)
 The electronic state is 1-AG.
 Alpha  occ. eigenvalues --   -0.90139  -0.73612  -0.57826  -0.47774  -0.15045
 Alpha  occ. eigenvalues --   -0.07376
 Alpha virt. eigenvalues --   -0.21236   0.07171   0.24758   0.38275   0.58938
 Alpha virt. eigenvalues --    0.62675
          Condensed to atoms (all electrons):
               1          2          3          4          5          6
     1  H    1.293473   0.036258   0.160302  -0.269001  -0.000416  -0.008074
     2  H    0.036258   1.032099  -0.349719   0.021653  -0.130090  -0.006682
     3  H    0.160302  -0.349719   1.163113   0.149494   0.163242  -0.000416
     4  H   -0.269001   0.021653   0.149494   1.734862   0.149494   0.081086
     5  H   -0.000416  -0.130090   0.163242   0.149494   1.163113   0.160302
     6  H   -0.008074  -0.006682  -0.000416   0.081086   0.160302   1.293473
     7  H    0.081086  -0.076532   0.149494  -0.325973   0.149494  -0.269001
     8  H   -0.006682   0.031594  -0.130090  -0.076532  -0.349719   0.036258
     9  H   -0.240210  -0.023314   0.160302   0.081086  -0.000416   0.018533
    10  H   -0.023314   0.084192  -0.349719  -0.076532  -0.130090  -0.001424
    11  H   -0.001424   0.237538  -0.130090   0.021653  -0.349719  -0.023314
    12  H    0.018533  -0.001424  -0.000416  -0.269001   0.160302  -0.240210
               7          8          9         10         11         12
     1  H    0.081086  -0.006682  -0.240210  -0.023314  -0.001424   0.018533
     2  H   -0.076532   0.031594  -0.023314   0.084192   0.237538  -0.001424
     3  H    0.149494  -0.130090   0.160302  -0.349719  -0.130090  -0.000416
     4  H   -0.325973  -0.076532   0.081086  -0.076532   0.021653  -0.269001
     5  H    0.149494  -0.349719  -0.000416  -0.130090  -0.349719   0.160302
     6  H   -0.269001   0.036258   0.018533  -0.001424  -0.023314  -0.240210
     7  H    1.734862   0.021653  -0.269001   0.021653  -0.076532   0.081086
     8  H    0.021653   1.032099  -0.001424   0.237538   0.084192  -0.023314
     9  H   -0.269001  -0.001424   1.293473   0.036258  -0.006682  -0.008074
    10  H    0.021653   0.237538   0.036258   1.032099   0.031594  -0.006682
    11  H   -0.076532   0.084192  -0.006682   0.031594   1.032099   0.036258
    12  H    0.081086  -0.023314  -0.008074  -0.006682   0.036258   1.293473
 Mulliken charges:
               1
     1  H   -0.040533
     2  H    0.144426
     3  H    0.014502
     4  H   -0.222288
     5  H    0.014502
     6  H   -0.040533
     7  H   -0.222288
     8  H    0.144426
     9  H   -0.040533
    10  H    0.144426
    11  H    0.144426
    12  H   -0.040533
 Sum of Mulliken charges =   0.00000
 Mulliken charges with hydrogens summed into heavy atoms:
               1
 Electronic spatial extent (au):  <R**2>=            137.4701
 Charge=              0.0000 electrons
 Dipole moment (field-independent basis, Debye):
    X=             -0.0000    Y=              0.0000    Z=             -0.0000  Tot=              0.0000
 Quadrupole moment (field-independent basis, Debye-Ang):
   XX=            -14.6897   YY=            -17.4921   ZZ=            -16.9630
   XY=             -0.0000   XZ=              0.0000   YZ=              0.0000
 Traceless Quadrupole moment (field-independent basis, Debye-Ang):
   XX=              1.6919   YY=             -1.1105   ZZ=             -0.5814
   XY=             -0.0000   XZ=              0.0000   YZ=              0.0000
 Octapole moment (field-independent basis, Debye-Ang**2):
  XXX=              0.0000  YYY=              0.0000  ZZZ=              0.0000  XYY=              0.0000
  XXY=              0.0000  XXZ=              0.0000  XZZ=             -0.0000  YZZ=              0.0000
  YYZ=              0.0000  XYZ=              0.0000
 Hexadecapole moment (field-independent basis, Debye-Ang**3):
 XXXX=            -17.1776 YYYY=            -93.2408 ZZZZ=           -199.7340 XXXY=             -0.0000
 XXXZ=              0.0000 YYYX=             -0.0000 YYYZ=              0.0000 ZZZX=              0.0000
 ZZZY=              0.0000 XXYY=            -17.1995 XXZZ=            -32.0207 YYZZ=            -46.1858
 XXYZ=              0.0000 YYXZ=              0.0000 ZZXY=             -0.0000
 N-N= 1.980289502556D+01 E-N=-5.115673541227D+01  KE= 7.344494354372D+00
 Symmetry AG   KE= 3.587126417899D+00
 Symmetry B1G  KE= 0.000000000000D+00
 Symmetry B2G  KE= 0.000000000000D+00
 Symmetry B3G  KE=-2.776710450599D-17
 Symmetry AU   KE= 0.000000000000D+00
 Symmetry B1U  KE= 7.046213164098D-01
 Symmetry B2U  KE= 3.052746620063D+00
 Symmetry B3U  KE= 0.000000000000D+00

 Test job not archived.
 1\1\GINC-SULU\Stability\RHF\Gen\H12\LCJ1\09-Feb-2017\0\\#rhf/gen scf(s
 ymm,tight,novaracc,noincfock,fulldiag) stable(crhf) guess=read geom=no
 crowd test\\hf stability analysis of h10 triangular lattice, y= 0.9612
 2506680355879\\0,1\H\H,1,1.1334558196\H,1,1.1334558196,2,64.\H,2,1.133
 4558196,1,116.,3,0.,0\H,4,1.1334558196,2,180.,3,0.,0\H,5,1.1334558196,
 4,180.,3,0.,0\H,3,1.1334558196,1,180.,4,0.,0\H,7,1.1334558196,3,180.,4
 ,0.,0\H,3,1.1334558196,4,180.,1,0.,0\H,7,1.1334558196,5,180.,3,0.,0\H,
 4,1.1334558196,3,180.,1,0.,0\H,5,1.1334558196,7,180.,3,0.,0\\Version=E
 S64L-G09RevE.01\State=1-AG\HF=-5.0209304\MP2=-5.3783348\RMSD=1.833e-09
 \Dipole=0.,0.,0.\Quadrupole=-0.7151775,1.2578926,-0.5427152,0.,0.17680
 01,0.\PG=D02H [C2'(H1.H1),C2"(H1.H1),SG(H8)]\\@


 MYSTERY IS THE WISDOM OF BLOCKHEADS... HORACE WALPOLE 
 Job cpu time:       0 days  0 hours  0 minutes  0.8 seconds.
 File lengths (MBytes):  RWF=     84 Int=      0 D2E=      0 Chk=      2 Scr=      2
 Normal termination of Gaussian 09 at Thu Feb  9 19:16:17 2017.
