 Entering Gaussian System, Link 0=gdv
 AtFile(1): H.gbs
            H     0
            S   10   1.00
               1000.000000000000            0.000068713567
                316.227766000000            0.000169141320
                100.000000000000            0.000823394812
                 31.622776600000            0.003425569236
                 10.000000000000            0.013951996000
                  3.162277660000            0.056909313560
                  1.000000000000            0.198286399900
                  0.316227766000            0.496922426700
                  0.100000000000            0.369846276400
                  0.031622776600            0.003752720039
            ****
 Initial command:
 /users/lcj1/GHF_hess/exe-dir/l1.exe "/users/lcj1/GHF_hess/h10_2rows/follow25/follow45/fwd/Gau-17580.inp" -scrdir="/users/lcj1/GHF_hess/h10_2rows/follow25/follow45/fwd/"
 Entering Link 1 = /users/lcj1/GHF_hess/exe-dir/l1.exe PID=     17581.
  
 Copyright (c) 1988,1990,1992,1993,1995,1998,2003,2009,2012,
            Gaussian, Inc.  All Rights Reserved.
  
 This is the private, development version of
 the Gaussian(R) DV system of programs. It is based on
 the Gaussian(R) 09 system (copyright 2009, Gaussian, Inc.),
 the Gaussian(R) 03 system (copyright 2003, Gaussian, Inc.),
 the Gaussian(R) 98 system (copyright 1998, Gaussian, Inc.),
 the Gaussian(R) 94 system (copyright 1995, Gaussian, Inc.),
 the Gaussian 92(TM) system (copyright 1992, Gaussian, Inc.),
 the Gaussian 90(TM) system (copyright 1990, Gaussian, Inc.),
 the Gaussian 88(TM) system (copyright 1988, Gaussian, Inc.),
 the Gaussian 86(TM) system (copyright 1986, Carnegie Mellon
 University), and the Gaussian 82(TM) system (copyright 1983,
 Carnegie Mellon University). Gaussian is a federally registered
 trademark of Gaussian, Inc.
  
 This software contains proprietary and confidential information,
 including trade secrets, belonging to Gaussian, Inc.
  
 This software is provided under written license and may be
 used, copied, transmitted, or stored only in accord with that
 written license.
  
 The following legend is applicable only to US Government
 contracts under FAR:
  
                    RESTRICTED RIGHTS LEGEND
  
 Use, reproduction and disclosure by the US Government is
 subject to restrictions as set forth in subparagraphs (a)
 and (c) of the Commercial Computer Software - Restricted
 Rights clause in FAR 52.227-19.
  
 Gaussian, Inc.
 340 Quinnipiac St., Bldg. 40, Wallingford CT 06492
  
  
 ---------------------------------------------------------------
 Warning -- This program may not be used in any manner that
 competes with the business of Gaussian, Inc. or will provide
 assistance to any competitor of Gaussian, Inc.  The licensee
 of this program is prohibited from giving any competitor of
 Gaussian, Inc. access to this program.  By using this program,
 the user acknowledges that Gaussian, Inc. is engaged in the
 business of creating and licensing software in the field of
 computational chemistry and represents and warrants to the
 licensee that it is not a competitor of Gaussian, Inc. and that
 it will not use this program in any manner prohibited above.
 ---------------------------------------------------------------
  

 Cite this work as:
 Gaussian Development Version, Revision H.21,
 M. J. Frisch, G. W. Trucks, H. B. Schlegel, G. E. Scuseria, 
 M. A. Robb, J. R. Cheeseman, G. Scalmani, V. Barone, B. Mennucci, 
 G. A. Petersson, H. Nakatsuji, M. Caricato, X. Li, H. P. Hratchian, 
 A. F. Izmaylov, J. Bloino, G. Zheng, J. L. Sonnenberg, W. Liang, 
 M. Hada, M. Ehara, K. Toyota, R. Fukuda, J. Hasegawa, M. Ishida, 
 T. Nakajima, Y. Honda, O. Kitao, H. Nakai, T. Vreven, 
 J. A. Montgomery, Jr., J. E. Peralta, F. Ogliaro, M. Bearpark, 
 J. J. Heyd, E. Brothers, K. N. Kudin, V. N. Staroverov, T. Keith, 
 R. Kobayashi, J. Normand, K. Raghavachari, A. Rendell, J. C. Burant, 
 S. S. Iyengar, J. Tomasi, M. Cossi, N. Rega, J. M. Millam, M. Klene, 
 J. E. Knox, J. B. Cross, V. Bakken, C. Adamo, J. Jaramillo, 
 R. Gomperts, R. E. Stratmann, O. Yazyev, A. J. Austin, R. Cammi, 
 C. Pomelli, J. W. Ochterski, R. L. Martin, K. Morokuma, 
 V. G. Zakrzewski, G. A. Voth, P. Salvador, J. J. Dannenberg, 
 S. Dapprich, P. V. Parandekar, N. J. Mayhall, A. D. Daniels, 
 O. Farkas, J. B. Foresman, J. V. Ortiz, J. Cioslowski, 
 and D. J. Fox, Gaussian, Inc., Wallingford CT, 2010.
 
 ******************************************
 Gaussian DV:  EM64L-GDVRevH.21 13-May-2012
                28-Feb-2017 
 ******************************************
 %chk=h10.chk
 ----------------------------------------------------------------------
 #ghf/gen scf(tight,novaracc,noincfock,fulldiag) stable guess=read geom
 =nocrowd use=l802 use=l902 test
 ----------------------------------------------------------------------
 ********************************************
   THE COMPLEX ERI TRANSFORMATION WITH L802  
        COMPLEX STABILITY WITH L902          
 ********************************************
 1/38=1/1;
 2/12=1,17=6,18=5,40=1/2;
 3/5=7,16=1,25=20,28=1,116=7/1,2,3,20;
 4/5=1/1;
 5/5=100001,16=1,32=2,38=6/2;
 8/6=1,10=90,11=11/1,2;
 9/8=4,13=1/1,2;
 6/7=2,8=2,9=2,10=2,28=1/1;
 99/5=1,9=1/99;
 ----------------------------------------------------------------------
 hf stability analysis of h10 triangular lattice, y= 2.3945089138952178
  alpha= 84.250000000000000
 ----------------------------------------------------------------------
 Symbolic Z-Matrix:
 Charge =  0 Multiplicity = 1
 H
 H                    1     2.40662 
 H                    1     2.40662  2     11.5 
 H                    2     2.40662  1     168.5    3     0.       0
 H                    3     2.40662  1     180.     2     0.       0
 H                    4     2.40662  2     180.     1     0.       0
 H                    5     2.40662  3     180.     2     0.       0
 H                    6     2.40662  4     180.     1     0.       0
 H                    7     2.40662  5     180.     2     0.       0
 H                    8     2.40662  6     180.     1     0.       0
 
                          Input orientation:                          
 ---------------------------------------------------------------------
 Center     Atomic      Atomic             Coordinates (Angstroms)
 Number     Number       Type             X           Y           Z
 ---------------------------------------------------------------------
      1          1           0        0.000000    0.000000    0.000000
      2          1           0        0.000000    0.000000    2.406618
      3          1           0        0.479802    0.000000    2.358304
      4          1           0        0.479802    0.000000    4.764922
      5          1           0        0.959605    0.000000    4.716608
      6          1           0        0.959605    0.000000    7.123226
      7          1           0        1.439407    0.000000    7.074913
      8          1           0        1.439407    0.000000    9.481530
      9          1           0        1.919210    0.000000    9.433217
     10          1           0        1.919210    0.000000   11.839835
 ---------------------------------------------------------------------
                    Distance matrix (angstroms):
                    1          2          3          4          5
     1  H    0.000000
     2  H    2.406618   0.000000
     3  H    2.406618   0.482229   0.000000
     4  H    4.789018   2.406618   2.406618   0.000000
     5  H    4.813236   2.501379   2.406618   0.482229   0.000000
     6  H    7.187572   4.813236   4.789018   2.406618   2.406618
     7  H    7.219853   4.885168   4.813236   2.501379   2.406618
     8  H    9.590167   7.219853   7.187572   4.813236   4.789018
     9  H    9.626471   7.283987   7.219853   4.885168   4.813236
    10  H   11.994376   9.626471   9.590167   7.219853   7.187572
                    6          7          8          9         10
     6  H    0.000000
     7  H    0.482229   0.000000
     8  H    2.406618   2.406618   0.000000
     9  H    2.501379   2.406618   0.482229   0.000000
    10  H    4.813236   4.789018   2.406618   2.406618   0.000000
 Stoichiometry    H10
 Framework group  C2H[SGH(H10)]
 Deg. of freedom     9
 Full point group                 C2H     NOp   4
 Largest Abelian subgroup         C2H     NOp   4
 Largest concise Abelian subgroup C2      NOp   2
                         Standard orientation:                         
 ---------------------------------------------------------------------
 Center     Atomic      Atomic             Coordinates (Angstroms)
 Number     Number       Type             X           Y           Z
 ---------------------------------------------------------------------
      1          1           0        0.959605    5.919917    0.000000
      2          1           0        0.959605    3.513300    0.000000
      3          1           0        0.479802    3.561613    0.000000
      4          1           0        0.479802    1.154995    0.000000
      5          1           0        0.000000    1.203309    0.000000
      6          1           0        0.000000   -1.203309    0.000000
      7          1           0       -0.479802   -1.154995    0.000000
      8          1           0       -0.479802   -3.561613    0.000000
      9          1           0       -0.959605   -3.513300    0.000000
     10          1           0       -0.959605   -5.919917    0.000000
 ---------------------------------------------------------------------
 Rotational constants (GHZ):    976.3481017      3.8632280      3.8480021
 General basis read from cards:  (5D, 7F)
 There are     5 symmetry adapted cartesian basis functions of AG  symmetry.
 There are     0 symmetry adapted cartesian basis functions of BG  symmetry.
 There are     0 symmetry adapted cartesian basis functions of AU  symmetry.
 There are     5 symmetry adapted cartesian basis functions of BU  symmetry.
 There are     5 symmetry adapted basis functions of AG  symmetry.
 There are     0 symmetry adapted basis functions of BG  symmetry.
 There are     0 symmetry adapted basis functions of AU  symmetry.
 There are     5 symmetry adapted basis functions of BU  symmetry.
    10 basis functions,   100 primitive gaussians,    10 cartesian basis functions
     5 alpha electrons        5 beta electrons
       nuclear repulsion energy        10.0519967024 Hartrees.
 NAtoms=   10 NActive=   10 NUniq=    5 SFac= 4.00D+00 NAtFMM=   60 NAOKFM=F Big=F
 Integral buffers will be    131072 words long.
 Regular integral format.
 Two-electron integral symmetry is turned off.
 One-electron integrals computed using PRISM.
 NBasis=    10 RedAO= T EigKep=  1.08D-01  NBF=     5     0     0     5
 NBsUse=    10 1.00D-06 EigRej= -1.00D+00 NBFU=     5     0     0     5
 IOp(28)                       1
                        1                       0
                        2                       1
                        3                       1
                        4                      20
                        5                       0
                        6                       0
                        7                      10
                        8                       1
                        9                       4
                       10                       0
                       11              1073741824
                       12                      20
                       13                       2
                       14                  131070
                       15                       1
                       16                       1
                       17                  131073
                       18                       0
                       19                       0
                       20                       0
                       21                       2
                       22                  131070
                       23                       0
                       24                       0
                       25                       0
                       26                       0
                       27                   65535
                       28                       2
                       29                  131072
                       30                       0
 IHMeth                       1
 ib3: ISMode =                        0                       4
 Enter DskPsm, NBasis=  10 NBas6D=  10 NShell=  10 IDoSP=4.
 Out2e will use a cutoff of  1.00D-10
 FoFCou: FMM=F IPFlag=           0 FMFlag=           0 FMFlg1=           0
         NFxFlg=           0 DoJE=F BraDBF=F KetDBF=F FulRan=T
         wScrn=  0.000000 ICntrl=     600 IOpCl=  9 I1Cent=           0 NGrid=           0
         NMat0=    0 NMatS0=      0 NMatT0=    0 NMatD0=    0 NMtDS0=    0 NMtDT0=    0
 Symmetry not used in FoFCou.
 Entering PrmDigJobTyp =                      20
 LenSav and NKeep                       0                       0
 Entered Stor2E with KNTT1,2                       2                  131070
 Leave Stor2X
 Entering PrmDigJobTyp =                      20
 LenSav and NKeep                       0                       0
 Entered Stor2E with KNTT1,2                       2                  131056
 Leave Stor2X
 Entering PrmDigJobTyp =                      20
 LenSav and NKeep                       0                       0
 Entered Stor2E with KNTT1,2                       2                  131042
 Leave Stor2X
 Entering PrmDigJobTyp =                      20
 LenSav and NKeep                       0                       0
 Entered Stor2E with KNTT1,2                       2                  131028
 Leave Stor2X
 Entering PrmDigJobTyp =                      20
 LenSav and NKeep                       0                       0
 Entered Stor2E with KNTT1,2                       2                  131014
 Leave Stor2X
 Entering PrmDigJobTyp =                      20
 LenSav and NKeep                       0                       0
 Entered Stor2E with KNTT1,2                       2                  131000
 Leave Stor2X
 Entering PrmDigJobTyp =                      20
 LenSav and NKeep                       0                       0
 Entered Stor2E with KNTT1,2                       2                  130986
 Leave Stor2X
 Entering PrmDigJobTyp =                      20
 LenSav and NKeep                       0                       0
 Entered Stor2E with KNTT1,2                       2                  130972
 Leave Stor2X
 Entering PrmDigJobTyp =                      20
 LenSav and NKeep                       0                       0
 Entered Stor2E with KNTT1,2                       2                  130960
 Leave Stor2X
 Entering PrmDigJobTyp =                      20
 LenSav and NKeep                       0                       0
 Entered Stor2E with KNTT1,2                       2                  130942
 Leave Stor2X
 Entering PrmDigJobTyp =                      20
 LenSav and NKeep                       0                       0
 Entered Stor2E with KNTT1,2                       2                  130924
 Leave Stor2X
 Entering PrmDigJobTyp =                      20
 LenSav and NKeep                       0                       0
 Entered Stor2E with KNTT1,2                       2                  130906
 Leave Stor2X
 Entering PrmDigJobTyp =                      20
 LenSav and NKeep                       0                       0
 Entered Stor2E with KNTT1,2                       2                  130888
 Leave Stor2X
 Entering PrmDigJobTyp =                      20
 LenSav and NKeep                       0                       0
 Entered Stor2E with KNTT1,2                       2                  130870
 Leave Stor2X
 Entering PrmDigJobTyp =                      20
 LenSav and NKeep                       0                       0
 Entered Stor2E with KNTT1,2                       2                  130852
 Leave Stor2X
 Entering PrmDigJobTyp =                      20
 LenSav and NKeep                       0                       0
 Entered Stor2E with KNTT1,2                       2                  130834
 Leave Stor2X
 Entering PrmDigJobTyp =                      20
 LenSav and NKeep                       0                       0
 Entered Stor2E with KNTT1,2                       2                  130816
 Leave Stor2X
 Entering PrmDigJobTyp =                      20
 LenSav and NKeep                       0                       0
 Entered Stor2E with KNTT1,2                       2                  130798
 Leave Stor2X
 Entering PrmDigJobTyp =                      20
 LenSav and NKeep                       0                       0
 Entered Stor2E with KNTT1,2                       2                  130780
 Leave Stor2X
 Entering PrmDigJobTyp =                      20
 LenSav and NKeep                       0                       0
 Entered Stor2E with KNTT1,2                       2                  130762
 Leave Stor2X
 Entering PrmDigJobTyp =                      20
 LenSav and NKeep                       0                       0
 Entered Stor2E with KNTT1,2                       2                  130744
 Leave Stor2X
 Entering PrmDigJobTyp =                      20
 LenSav and NKeep                       0                       0
 Entered Stor2E with KNTT1,2                       2                  130726
 Leave Stor2X
 Entering PrmDigJobTyp =                      20
 LenSav and NKeep                       0                       0
 Entered Stor2E with KNTT1,2                       2                  130708
 Leave Stor2X
 Entering PrmDigJobTyp =                      20
 LenSav and NKeep                       0                       0
 Entered Stor2E with KNTT1,2                       2                  130700
 Leave Stor2X
 Entering PrmDigJobTyp =                      20
 LenSav and NKeep                       0                       0
 Entered Stor2E with KNTT1,2                      12                  130678
 Leave Stor2X
 Entering PrmDigJobTyp =                      20
 LenSav and NKeep                       0                       0
 Entered Stor2E with KNTT1,2                      32                  130666
 Leave Stor2X
 Entering PrmDigJobTyp =                      20
 LenSav and NKeep                       0                       0
 Entered Stor2E with KNTT1,2                      52                  130654
 Leave Stor2X
 Entering PrmDigJobTyp =                      20
 LenSav and NKeep                       0                       0
 Entered Stor2E with KNTT1,2                      76                  130646
 Leave Stor2X
 Entering PrmDigJobTyp =                      20
 LenSav and NKeep                       0                       0
 Entered Stor2E with KNTT1,2                      98                  130636
 Leave Stor2X
 Entering PrmDigJobTyp =                      20
 LenSav and NKeep                       0                       0
 Entered Stor2E with KNTT1,2                     114                  130630
 Leave Stor2X
 Entering PrmDigJobTyp =                      20
 LenSav and NKeep                       0                       0
 Entered Stor2E with KNTT1,2                     114                  130616
 Leave Stor2X
 Entering PrmDigJobTyp =                      20
 LenSav and NKeep                       0                       0
 Entered Stor2E with KNTT1,2                     114                  130602
 Leave Stor2X
 Entering PrmDigJobTyp =                      20
 LenSav and NKeep                       0                       0
 Entered Stor2E with KNTT1,2                     114                  130588
 Leave Stor2X
 Entering PrmDigJobTyp =                      20
 LenSav and NKeep                       0                       0
 Entered Stor2E with KNTT1,2                     114                  130574
 Leave Stor2X
 Entering PrmDigJobTyp =                      20
 LenSav and NKeep                       0                       0
 Entered Stor2E with KNTT1,2                     114                  130560
 Leave Stor2X
 Entering PrmDigJobTyp =                      20
 LenSav and NKeep                       0                       0
 Entered Stor2E with KNTT1,2                     114                  130550
 Leave Stor2X
 Entering PrmDigJobTyp =                      20
 LenSav and NKeep                       0                       0
 Entered Stor2E with KNTT1,2                     126                  130540
 Leave Stor2X
 Entering PrmDigJobTyp =                      20
 LenSav and NKeep                       0                       0
 Entered Stor2E with KNTT1,2                     136                  130528
 Leave Stor2X
 Entering PrmDigJobTyp =                      20
 LenSav and NKeep                       0                       0
 Entered Stor2E with KNTT1,2                     154                  130524
 Leave Stor2X
 Entering PrmDigJobTyp =                      20
 LenSav and NKeep                       0                       0
 Entered Stor2E with KNTT1,2                     168                  130516
 Leave Stor2X
 Entering PrmDigJobTyp =                      20
 LenSav and NKeep                       0                       0
 Entered Stor2E with KNTT1,2                     174                  130506
 Leave Stor2X
 Entering PrmDigJobTyp =                      20
 LenSav and NKeep                       0                       0
 Entered Stor2E with KNTT1,2                     182                  130500
 Leave Stor2X
 Entering PrmDigJobTyp =                      20
 LenSav and NKeep                       0                       0
 Entered Stor2E with KNTT1,2                     186                  130498
 Leave Stor2X
 Entering PrmDigJobTyp =                      20
 LenSav and NKeep                       0                       0
 Entered Stor2E with KNTT1,2                     186                  130472
 Leave Stor2X
 Entering PrmDigJobTyp =                      20
 LenSav and NKeep                       0                       0
 Entered Stor2E with KNTT1,2                     186                  130446
 Leave Stor2X
 Entering PrmDigJobTyp =                      20
 LenSav and NKeep                       0                       0
 Entered Stor2E with KNTT1,2                     186                  130420
 Leave Stor2X
 Entering PrmDigJobTyp =                      20
 LenSav and NKeep                       0                       0
 Entered Stor2E with KNTT1,2                     186                  130418
 Leave Stor2X
 Entering PrmDigJobTyp =                      20
 LenSav and NKeep                       0                       0
 Entered Stor2E with KNTT1,2                     208                  130396
 Leave Stor2X
 Entering PrmDigJobTyp =                      20
 LenSav and NKeep                       0                       0
 Entered Stor2E with KNTT1,2                     240                  130384
 Leave Stor2X
 Entering PrmDigJobTyp =                      20
 LenSav and NKeep                       0                       0
 Entered Stor2E with KNTT1,2                     246                  130374
 Leave Stor2X
 Entering PrmDigJobTyp =                      20
 LenSav and NKeep                       0                       0
 Entered Stor2E with KNTT1,2                     264                  130362
 Leave Stor2X
 Entering PrmDigJobTyp =                      20
 LenSav and NKeep                       0                       0
 Entered Stor2E with KNTT1,2                     266                  130362
 Leave Stor2X
 Entering PrmDigJobTyp =                      20
 LenSav and NKeep                       0                       0
 Entered Stor2E with KNTT1,2                     278                  130354
 Leave Stor2X
 Entering PrmDigJobTyp =                      20
 LenSav and NKeep                       0                       0
 Entered Stor2E with KNTT1,2                     278                  130326
 Leave Stor2X
 Entering PrmDigJobTyp =                      20
 LenSav and NKeep                       0                       0
 Entered Stor2E with KNTT1,2                     278                  130298
 Leave Stor2X
 Entering PrmDigJobTyp =                      20
 LenSav and NKeep                       0                       0
 Entered Stor2E with KNTT1,2                     278                  130270
 Leave Stor2X
 Entering PrmDigJobTyp =                      20
 LenSav and NKeep                       0                       0
 Entered Stor2E with KNTT1,2                     278                  130242
 Leave Stor2X
 Entering PrmDigJobTyp =                      20
 LenSav and NKeep                       0                       0
 Entered Stor2E with KNTT1,2                     278                  130214
 Leave Stor2X
 Entering PrmDigJobTyp =                      20
 LenSav and NKeep                       0                       0
 Entered Stor2E with KNTT1,2                     278                  130194
 Leave Stor2X
 Entering PrmDigJobTyp =                      20
 LenSav and NKeep                       0                       0
 Entered Stor2E with KNTT1,2                     304                  130174
 Leave Stor2X
 Entering PrmDigJobTyp =                      20
 LenSav and NKeep                       0                       0
 Entered Stor2E with KNTT1,2                     334                  130158
 Leave Stor2X
 Entering PrmDigJobTyp =                      20
 LenSav and NKeep                       0                       0
 Entered Stor2E with KNTT1,2                     358                  130136
 Leave Stor2X
 Entering PrmDigJobTyp =                      20
 LenSav and NKeep                       0                       0
 Entered Stor2E with KNTT1,2                     388                  130120
 Leave Stor2X
 Entering PrmDigJobTyp =                      20
 LenSav and NKeep                       0                       0
 Entered Stor2E with KNTT1,2                     402                  130110
 Leave Stor2X
 Entering PrmDigJobTyp =                      20
 LenSav and NKeep                       0                       0
 Entered Stor2E with KNTT1,2                     420                  130096
 Leave Stor2X
 Entering PrmDigJobTyp =                      20
 LenSav and NKeep                       0                       0
 Entered Stor2E with KNTT1,2                     438                  130082
 Leave Stor2X
 Entering PrmDigJobTyp =                      20
 LenSav and NKeep                       0                       0
 Entered Stor2E with KNTT1,2                     478                  130058
 Leave Stor2X
 Entering PrmDigJobTyp =                      20
 LenSav and NKeep                       0                       0
 Entered Stor2E with KNTT1,2                     520                  130032
 Leave Stor2X
 Entering PrmDigJobTyp =                      20
 LenSav and NKeep                       0                       0
 Entered Stor2E with KNTT1,2                     522                  130030
 Leave Stor2X
 Entering PrmDigJobTyp =                      20
 LenSav and NKeep                       0                       0
 Entered Stor2E with KNTT1,2                     522                  130010
 Leave Stor2X
 Entering PrmDigJobTyp =                      20
 LenSav and NKeep                       0                       0
 Entered Stor2E with KNTT1,2                     522                  129990
 Leave Stor2X
 Entering PrmDigJobTyp =                      20
 LenSav and NKeep                       0                       0
 Entered Stor2E with KNTT1,2                     522                  129970
 Leave Stor2X
 Entering PrmDigJobTyp =                      20
 LenSav and NKeep                       0                       0
 Entered Stor2E with KNTT1,2                     542                  129958
 Leave Stor2X
 Entering PrmDigJobTyp =                      20
 LenSav and NKeep                       0                       0
 Entered Stor2E with KNTT1,2                     562                  129946
 Leave Stor2X
 Entering PrmDigJobTyp =                      20
 LenSav and NKeep                       0                       0
 Entered Stor2E with KNTT1,2                     568                  129938
 Leave Stor2X
 Entering PrmDigJobTyp =                      20
 LenSav and NKeep                       0                       0
 Entered Stor2E with KNTT1,2                     580                  129928
 Leave Stor2X
 Entering PrmDigJobTyp =                      20
 LenSav and NKeep                       0                       0
 Entered Stor2E with KNTT1,2                     580                  129926
 Leave Stor2X
 Entering PrmDigJobTyp =                      20
 LenSav and NKeep                       0                       0
 Entered Stor2E with KNTT1,2                     596                  129918
 Leave Stor2X
 Entering PrmDigJobTyp =                      20
 LenSav and NKeep                       0                       0
 Entered Stor2E with KNTT1,2                     620                  129894
 Leave Stor2X
 Entering PrmDigJobTyp =                      20
 LenSav and NKeep                       0                       0
 Entered Stor2E with KNTT1,2                     626                  129888
 Leave Stor2X
 Entering PrmDigJobTyp =                      20
 LenSav and NKeep                       0                       0
 Entered Stor2E with KNTT1,2                     626                  129854
 Leave Stor2X
 Entering PrmDigJobTyp =                      20
 LenSav and NKeep                       0                       0
 Entered Stor2E with KNTT1,2                     626                  129820
 Leave Stor2X
 Entering PrmDigJobTyp =                      20
 LenSav and NKeep                       0                       0
 Entered Stor2E with KNTT1,2                     626                  129786
 Leave Stor2X
 Entering PrmDigJobTyp =                      20
 LenSav and NKeep                       0                       0
 Entered Stor2E with KNTT1,2                     626                  129752
 Leave Stor2X
 Entering PrmDigJobTyp =                      20
 LenSav and NKeep                       0                       0
 Entered Stor2E with KNTT1,2                     626                  129748
 Leave Stor2X
 Entering PrmDigJobTyp =                      20
 LenSav and NKeep                       0                       0
 Entered Stor2E with KNTT1,2                     660                  129726
 Leave Stor2X
 Entering PrmDigJobTyp =                      20
 LenSav and NKeep                       0                       0
 Entered Stor2E with KNTT1,2                     692                  129702
 Leave Stor2X
 Entering PrmDigJobTyp =                      20
 LenSav and NKeep                       0                       0
 Entered Stor2E with KNTT1,2                     730                  129684
 Leave Stor2X
 Entering PrmDigJobTyp =                      20
 LenSav and NKeep                       0                       0
 Entered Stor2E with KNTT1,2                     736                  129676
 Leave Stor2X
 Entering PrmDigJobTyp =                      20
 LenSav and NKeep                       0                       0
 Entered Stor2E with KNTT1,2                     760                  129662
 Leave Stor2X
 Entering PrmDigJobTyp =                      20
 LenSav and NKeep                       0                       0
 Entered Stor2E with KNTT1,2                     772                  129656
 Leave Stor2X
 Entering PrmDigJobTyp =                      20
 LenSav and NKeep                       0                       0
 Entered Stor2E with KNTT1,2                     804                  129632
 Leave Stor2X
 Entering PrmDigJobTyp =                      20
 LenSav and NKeep                       0                       0
 Entered Stor2E with KNTT1,2                     858                  129604
 Leave Stor2X
 Entering PrmDigJobTyp =                      20
 LenSav and NKeep                       0                       0
 Entered Stor2E with KNTT1,2                     876                  129592
 Leave Stor2X
 Entering PrmDigJobTyp =                      20
 LenSav and NKeep                       0                       0
 Entered Stor2E with KNTT1,2                     906                  129580
 Leave Stor2X
 Entering PrmDigJobTyp =                      20
 LenSav and NKeep                       0                       0
 Entered Stor2E with KNTT1,2                     940                  129558
 Leave Stor2X
 Entering PrmDigJobTyp =                      20
 LenSav and NKeep                       0                       0
 Entered Stor2E with KNTT1,2                     940                  129506
 Leave Stor2X
 Entering PrmDigJobTyp =                      20
 LenSav and NKeep                       0                       0
 Entered Stor2E with KNTT1,2                     940                  129478
 Leave Stor2X
 Entering PrmDigJobTyp =                      20
 LenSav and NKeep                       0                       0
 Entered Stor2E with KNTT1,2                     996                  129446
 Leave Stor2X
 Entering PrmDigJobTyp =                      20
 LenSav and NKeep                       0                       0
 Entered Stor2E with KNTT1,2                    1008                  129442
 Leave Stor2X
 Entering PrmDigJobTyp =                      20
 LenSav and NKeep                       0                       0
 Entered Stor2E with KNTT1,2                    1032                  129434
 Leave Stor2X
 Entering PrmDigJobTyp =                      20
 LenSav and NKeep                       0                       0
 Entered Stor2E with KNTT1,2                    1040                  129428
 Leave Stor2X
 Entering PrmDigJobTyp =                      20
 LenSav and NKeep                       0                       0
 Entered Stor2E with KNTT1,2                    1050                  129424
 Leave Stor2X
 Entering PrmDigJobTyp =                      20
 LenSav and NKeep                       0                       0
 Entered Stor2E with KNTT1,2                    1052                  129422
 Leave Stor2X
 Entering PrmDigJobTyp =                      20
 LenSav and NKeep                       0                       0
 Entered Stor2E with KNTT1,2                    1064                  129418
 Leave Stor2X
 Entering PrmDigJobTyp =                      20
 LenSav and NKeep                       0                       0
 Entered Stor2E with KNTT1,2                    1074                  129412
 Leave Stor2X
 Entering PrmDigJobTyp =                      20
 LenSav and NKeep                       0                       0
 Entered Stor2E with KNTT1,2                    1084                  129406
 Leave Stor2X
 Entering PrmDigJobTyp =                      20
 LenSav and NKeep                       0                       0
 Entered Stor2E with KNTT1,2                    1096                  129402
 Leave Stor2X
 Entering PrmDigJobTyp =                      20
 LenSav and NKeep                       0                       0
 Entered Stor2E with KNTT1,2                    1116                  129398
 Leave Stor2X
 Entering PrmDigJobTyp =                      20
 LenSav and NKeep                       0                       0
 Entered Stor2E with KNTT1,2                    1116                  129398
 Leave Stor2X
 Entering PrmDigJobTyp =                      20
 LenSav and NKeep                       0                       0
 Entered Stor2E with KNTT1,2                    1116                  129398
 Leave Stor2X
 Entering PrmDigJobTyp =                      20
 LenSav and NKeep                       0                       0
 Entered Stor2E with KNTT1,2                    1116                  129398
 Leave Stor2X
 Entering PrmDigJobTyp =                      20
 LenSav and NKeep                       0                       0
 Entered Stor2E with KNTT1,2                    1116                  129398
 Leave Stor2X
 Entering PrmDigJobTyp =                      20
 LenSav and NKeep                       0                       0
 Entered Stor2E with KNTT1,2                    1116                  129378
 Leave Stor2X
 Entering PrmDigJobTyp =                      20
 LenSav and NKeep                       0                       0
 Entered Stor2E with KNTT1,2                    1134                  129370
 Leave Stor2X
 Entering PrmDigJobTyp =                      20
 LenSav and NKeep                       0                       0
 Entered Stor2E with KNTT1,2                    1138                  129366
 Leave Stor2X
 Entering PrmDigJobTyp =                      20
 LenSav and NKeep                       0                       0
 Entered Stor2E with KNTT1,2                    1146                  129366
 Leave Stor2X
 Entering PrmDigJobTyp =                      20
 LenSav and NKeep                       0                       0
 Entered Stor2E with KNTT1,2                    1154                  129358
 Leave Stor2X
 Entering PrmDigJobTyp =                      20
 LenSav and NKeep                       0                       0
 Entered Stor2E with KNTT1,2                    1156                  129354
 Leave Stor2X
 Entering PrmDigJobTyp =                      20
 LenSav and NKeep                       0                       0
 Entered Stor2E with KNTT1,2                    1166                  129350
 Leave Stor2X
 Entering PrmDigJobTyp =                      20
 LenSav and NKeep                       0                       0
 Entered Stor2E with KNTT1,2                    1166                  129350
 Leave Stor2X
 Entering PrmDigJobTyp =                      20
 LenSav and NKeep                       0                       0
 Entered Stor2E with KNTT1,2                    1166                  129348
 Leave Stor2X
 Entering PrmDigJobTyp =                      20
 LenSav and NKeep                       0                       0
 Entered Stor2E with KNTT1,2                    1166                  129328
 Leave Stor2X
 Entering PrmDigJobTyp =                      20
 LenSav and NKeep                       0                       0
 Entered Stor2E with KNTT1,2                    1178                  129324
 Leave Stor2X
 Entering PrmDigJobTyp =                      20
 LenSav and NKeep                       0                       0
 Entered Stor2E with KNTT1,2                    1184                  129320
 Leave Stor2X
 Entering PrmDigJobTyp =                      20
 LenSav and NKeep                       0                       0
 Entered Stor2E with KNTT1,2                    1192                  129320
 Leave Stor2X
 Entering PrmDigJobTyp =                      20
 LenSav and NKeep                       0                       0
 Entered Stor2E with KNTT1,2                    1192                  129320
 Leave Stor2X
 Entering PrmDigJobTyp =                      20
 LenSav and NKeep                       0                       0
 Entered Stor2E with KNTT1,2                    1192                  129320
 Leave Stor2X
 In PrSumR
 Called IWRITE
         1473 integrals produced for a total of         1473.
 Initial guess from the checkpoint file:  "h10.chk"
 B after Tr=     0.000000    0.000000    0.000000
         Rot=    0.977708    0.000000    0.000000   -0.209968 Ang= -24.24 deg.
 Initial guess <Sx>= 0.0000 <Sy>= 0.0000 <Sz>= 0.0000 <S**2>= 0.0000 S= 0.0000
 Two-electron integrals will be kept in memory, NGetB=      152788.
 Requested convergence on RMS density matrix=1.00D-08 within 128 cycles.
 Requested convergence on MAX density matrix=1.00D-06.
 Requested convergence on             energy=1.00D-06.
 No special actions if energy rises.
 Density File Not Found. Continue as usual
 SCF Done:  E(GHF) =  -4.44106301892     A.U. after   11 cycles
            NFock= 11  Conv=0.39D-08     -V/T= 1.9480
 <Sx>= 0.0000 <Sy>= 0.0000 <Sz>= 0.0000 <S**2>= 0.0000 S= 0.0000
 <L.S>= 0.000000000000E+00
 Range of M.O.s used for correlation:     1    10
 NBasis=    10 NAE=    10 NBE=     0 NFC=     0 NFV=     0
 NROrb=     20 NOA=    10 NOB=     0 NVA=    10 NVB=     0

 **** Warning!!: The smallest alpha delta epsilon is  0.44110357D-01

 jaja DoHack is true or false? T
 jaja in hckghf.F, NBasis=                      10
 jaja in hckGHF/FixOG, LC =                      800
 jaja in hckGHF/FixOG, IRwC=                      548
 bfr conversion (real):
                 1             2             3             4             5 
      1a  0.335976D-03 -0.361943D-02 -0.653379D-02  0.362037D-03  0.119550D-03
      1b -0.361943D-02 -0.335976D-03 -0.362037D-03 -0.653379D-02 -0.572706D-02
      2a -0.162426D-01  0.174979D+00  0.299356D+00 -0.165873D-01 -0.674396D-02
      2b  0.174979D+00  0.162426D-01  0.165873D-01  0.299356D+00  0.323069D+00
      3a -0.160735D-01  0.173157D+00  0.298471D+00 -0.165383D-01 -0.679078D-02
      3b  0.173157D+00  0.160735D-01  0.165383D-01  0.298471D+00  0.325312D+00
      4a -0.258635D-01  0.278624D+00  0.181050D+00 -0.100320D-01  0.426934D-02
      4b  0.278624D+00  0.258635D-01  0.100320D-01  0.181050D+00 -0.204523D+00
      5a -0.257828D-01  0.277754D+00  0.184848D+00 -0.102424D-01  0.417871D-02
      5b  0.277754D+00  0.257828D-01  0.102424D-01  0.184848D+00 -0.200181D+00
      6a -0.257828D-01  0.277754D+00 -0.184848D+00  0.102424D-01  0.417871D-02
      6b  0.277754D+00  0.257828D-01 -0.102424D-01 -0.184848D+00 -0.200181D+00
      7a -0.258635D-01  0.278624D+00 -0.181050D+00  0.100320D-01  0.426934D-02
      7b  0.278624D+00  0.258635D-01 -0.100320D-01 -0.181050D+00 -0.204523D+00
      8a -0.160735D-01  0.173157D+00 -0.298471D+00  0.165383D-01 -0.679078D-02
      8b  0.173157D+00  0.160735D-01 -0.165383D-01 -0.298471D+00  0.325312D+00
      9a -0.162426D-01  0.174979D+00 -0.299356D+00  0.165873D-01 -0.674396D-02
      9b  0.174979D+00  0.162426D-01 -0.165873D-01 -0.299356D+00  0.323069D+00
     10a  0.335976D-03 -0.361943D-02  0.653379D-02 -0.362037D-03  0.119550D-03
     10b -0.361943D-02 -0.335976D-03  0.362037D-03  0.653379D-02 -0.572706D-02
                 6             7             8             9            10 
      1a -0.572706D-02  0.387444D-02  0.164457D-02  0.200217D-01  0.713624D+00
      1b -0.119550D-03 -0.164457D-02  0.387444D-02  0.713624D+00 -0.200217D-01
      2a  0.323069D+00 -0.197220D+00 -0.837133D-01 -0.133024D-02 -0.474132D-01
      2b  0.674396D-02  0.837133D-01 -0.197220D+00 -0.474132D-01  0.133024D-02
      3a  0.325312D+00 -0.200261D+00 -0.850042D-01 -0.132607D-02 -0.472647D-01
      3b  0.679078D-02  0.850042D-01 -0.200261D+00 -0.472647D-01  0.132607D-02
      4a -0.204523D+00  0.323529D+00  0.137327D+00  0.149165D-03  0.531662D-02
      4b -0.426934D-02 -0.137327D+00  0.323529D+00  0.531662D-02 -0.149165D-03
      5a -0.200181D+00  0.324522D+00  0.137749D+00  0.195727D-03  0.697620D-02
      5b -0.417871D-02 -0.137749D+00  0.324522D+00  0.697620D-02 -0.195727D-03
      6a -0.200181D+00 -0.324522D+00 -0.137749D+00 -0.195727D-03 -0.697620D-02
      6b -0.417871D-02  0.137749D+00 -0.324522D+00 -0.697620D-02  0.195727D-03
      7a -0.204523D+00 -0.323529D+00 -0.137327D+00 -0.149165D-03 -0.531662D-02
      7b -0.426934D-02  0.137327D+00 -0.323529D+00 -0.531662D-02  0.149165D-03
      8a  0.325312D+00  0.200261D+00  0.850042D-01  0.132607D-02  0.472647D-01
      8b  0.679078D-02 -0.850042D-01  0.200261D+00  0.472647D-01 -0.132607D-02
      9a  0.323069D+00  0.197220D+00  0.837133D-01  0.133024D-02  0.474132D-01
      9b  0.674396D-02 -0.837133D-01  0.197220D+00  0.474132D-01 -0.133024D-02
     10a -0.572706D-02 -0.387444D-02 -0.164457D-02 -0.200217D-01 -0.713624D+00
     10b -0.119550D-03  0.164457D-02 -0.387444D-02 -0.713624D+00  0.200217D-01
                11            12            13            14            15 
      1a  0.147060D+00  0.698588D+00  0.000000D+00 -0.148515D-02 -0.818273D-04
      1b  0.698588D+00 -0.147060D+00 -0.148515D-02  0.000000D+00 -0.116054D-02
      2a -0.984541D-02 -0.467692D-01  0.327532D-03 -0.728999D+00 -0.849257D-01
      2b -0.467692D-01  0.984541D-02 -0.728999D+00 -0.327532D-03 -0.120448D+01
      3a -0.982045D-02 -0.466506D-01 -0.331502D-03  0.737835D+00  0.854397D-01
      3b -0.466506D-01  0.982045D-02  0.737835D+00  0.331502D-03  0.121177D+01
      4a  0.847383D-03  0.402537D-02  0.520519D-03 -0.115854D+01 -0.519502D-01
      4b  0.402537D-02 -0.847383D-03 -0.115854D+01 -0.520519D-03 -0.736797D+00
      5a  0.121791D-02  0.578548D-02 -0.521695D-03  0.116115D+01  0.509558D-01
      5b  0.578548D-02 -0.121791D-02  0.116115D+01  0.521695D-03  0.722693D+00
      6a  0.121791D-02  0.578548D-02  0.521695D-03 -0.116115D+01  0.509558D-01
      6b  0.578548D-02 -0.121791D-02 -0.116115D+01 -0.521695D-03  0.722693D+00
      7a  0.847383D-03  0.402537D-02 -0.520519D-03  0.115854D+01 -0.519502D-01
      7b  0.402537D-02 -0.847383D-03  0.115854D+01  0.520519D-03 -0.736797D+00
      8a -0.982045D-02 -0.466506D-01  0.331502D-03 -0.737835D+00  0.854397D-01
      8b -0.466506D-01  0.982045D-02 -0.737835D+00 -0.331502D-03  0.121177D+01
      9a -0.984541D-02 -0.467692D-01 -0.327532D-03  0.728999D+00 -0.849257D-01
      9b -0.467692D-01  0.984541D-02  0.728999D+00  0.327532D-03 -0.120448D+01
     10a  0.147060D+00  0.698588D+00  0.000000D+00  0.148515D-02 -0.818273D-04
     10b  0.698588D+00 -0.147060D+00  0.148515D-02  0.000000D+00 -0.116054D-02
                16            17            18            19            20 
      1a -0.116054D-02 -0.196441D-04 -0.692958D-03 -0.685337D-04  0.161152D-02
      1b  0.818273D-04 -0.692958D-03  0.196441D-04  0.161152D-02  0.685337D-04
      2a -0.120448D+01  0.353181D-01  0.124587D+01  0.336694D-01 -0.791711D+00
      2b  0.849257D-01  0.124587D+01 -0.353181D-01 -0.791711D+00 -0.336694D-01
      3a  0.121177D+01 -0.351992D-01 -0.124167D+01 -0.332223D-01  0.781198D+00
      3b -0.854397D-01 -0.124167D+01  0.351992D-01  0.781198D+00  0.332223D-01
      4a -0.736797D+00 -0.220205D-01 -0.776786D+00 -0.553809D-01  0.130224D+01
      4b  0.519502D-01 -0.776786D+00  0.220205D-01  0.130224D+01  0.553809D-01
      5a  0.722693D+00  0.224982D-01  0.793636D+00  0.551883D-01 -0.129771D+01
      5b -0.509558D-01  0.793636D+00 -0.224982D-01 -0.129771D+01 -0.551883D-01
      6a  0.722693D+00 -0.224982D-01 -0.793636D+00  0.551883D-01 -0.129771D+01
      6b -0.509558D-01 -0.793636D+00  0.224982D-01 -0.129771D+01 -0.551883D-01
      7a -0.736797D+00  0.220205D-01  0.776786D+00 -0.553809D-01  0.130224D+01
      7b  0.519502D-01  0.776786D+00 -0.220205D-01  0.130224D+01  0.553809D-01
      8a  0.121177D+01  0.351992D-01  0.124167D+01 -0.332223D-01  0.781198D+00
      8b -0.854397D-01  0.124167D+01 -0.351992D-01  0.781198D+00  0.332223D-01
      9a -0.120448D+01 -0.353181D-01 -0.124587D+01  0.336694D-01 -0.791711D+00
      9b  0.849257D-01 -0.124587D+01  0.353181D-01 -0.791711D+00 -0.336694D-01
     10a -0.116054D-02  0.196441D-04  0.692958D-03 -0.685337D-04  0.161152D-02
     10b  0.818273D-04  0.692958D-03 -0.196441D-04  0.161152D-02  0.685337D-04
 bfr conversion (imaginary):
                 1             2             3             4             5 
      1a  0.000000D+00  0.000000D+00  0.000000D+00  0.000000D+00  0.000000D+00
      1b  0.000000D+00  0.000000D+00  0.000000D+00  0.000000D+00  0.000000D+00
      2a  0.000000D+00  0.000000D+00  0.000000D+00  0.000000D+00  0.000000D+00
      2b  0.000000D+00  0.000000D+00  0.000000D+00  0.000000D+00  0.000000D+00
      3a  0.000000D+00  0.000000D+00  0.000000D+00  0.000000D+00  0.000000D+00
      3b  0.000000D+00  0.000000D+00  0.000000D+00  0.000000D+00  0.000000D+00
      4a  0.000000D+00  0.000000D+00  0.000000D+00  0.000000D+00  0.000000D+00
      4b  0.000000D+00  0.000000D+00  0.000000D+00  0.000000D+00  0.000000D+00
      5a  0.000000D+00  0.000000D+00  0.000000D+00  0.000000D+00  0.000000D+00
      5b  0.000000D+00  0.000000D+00  0.000000D+00  0.000000D+00  0.000000D+00
      6a  0.000000D+00  0.000000D+00  0.000000D+00  0.000000D+00  0.000000D+00
      6b  0.000000D+00  0.000000D+00  0.000000D+00  0.000000D+00  0.000000D+00
      7a  0.000000D+00  0.000000D+00  0.000000D+00  0.000000D+00  0.000000D+00
      7b  0.000000D+00  0.000000D+00  0.000000D+00  0.000000D+00  0.000000D+00
      8a  0.000000D+00  0.000000D+00  0.000000D+00  0.000000D+00  0.000000D+00
      8b  0.000000D+00  0.000000D+00  0.000000D+00  0.000000D+00  0.000000D+00
      9a  0.000000D+00  0.000000D+00  0.000000D+00  0.000000D+00  0.000000D+00
      9b  0.000000D+00  0.000000D+00  0.000000D+00  0.000000D+00  0.000000D+00
     10a  0.000000D+00  0.000000D+00  0.000000D+00  0.000000D+00  0.000000D+00
     10b  0.000000D+00  0.000000D+00  0.000000D+00  0.000000D+00  0.000000D+00
                 6             7             8             9            10 
      1a  0.000000D+00  0.000000D+00  0.000000D+00  0.000000D+00  0.000000D+00
      1b  0.000000D+00  0.000000D+00  0.000000D+00  0.000000D+00  0.000000D+00
      2a  0.000000D+00  0.000000D+00  0.000000D+00  0.000000D+00  0.000000D+00
      2b  0.000000D+00  0.000000D+00  0.000000D+00  0.000000D+00  0.000000D+00
      3a  0.000000D+00  0.000000D+00  0.000000D+00  0.000000D+00  0.000000D+00
      3b  0.000000D+00  0.000000D+00  0.000000D+00  0.000000D+00  0.000000D+00
      4a  0.000000D+00  0.000000D+00  0.000000D+00  0.000000D+00  0.000000D+00
      4b  0.000000D+00  0.000000D+00  0.000000D+00  0.000000D+00  0.000000D+00
      5a  0.000000D+00  0.000000D+00  0.000000D+00  0.000000D+00  0.000000D+00
      5b  0.000000D+00  0.000000D+00  0.000000D+00  0.000000D+00  0.000000D+00
      6a  0.000000D+00  0.000000D+00  0.000000D+00  0.000000D+00  0.000000D+00
      6b  0.000000D+00  0.000000D+00  0.000000D+00  0.000000D+00  0.000000D+00
      7a  0.000000D+00  0.000000D+00  0.000000D+00  0.000000D+00  0.000000D+00
      7b  0.000000D+00  0.000000D+00  0.000000D+00  0.000000D+00  0.000000D+00
      8a  0.000000D+00  0.000000D+00  0.000000D+00  0.000000D+00  0.000000D+00
      8b  0.000000D+00  0.000000D+00  0.000000D+00  0.000000D+00  0.000000D+00
      9a  0.000000D+00  0.000000D+00  0.000000D+00  0.000000D+00  0.000000D+00
      9b  0.000000D+00  0.000000D+00  0.000000D+00  0.000000D+00  0.000000D+00
     10a  0.000000D+00  0.000000D+00  0.000000D+00  0.000000D+00  0.000000D+00
     10b  0.000000D+00  0.000000D+00  0.000000D+00  0.000000D+00  0.000000D+00
                11            12            13            14            15 
      1a  0.000000D+00  0.000000D+00  0.000000D+00  0.000000D+00  0.000000D+00
      1b  0.000000D+00  0.000000D+00  0.000000D+00  0.000000D+00  0.000000D+00
      2a  0.000000D+00  0.000000D+00  0.000000D+00  0.000000D+00  0.000000D+00
      2b  0.000000D+00  0.000000D+00  0.000000D+00  0.000000D+00  0.000000D+00
      3a  0.000000D+00  0.000000D+00  0.000000D+00  0.000000D+00  0.000000D+00
      3b  0.000000D+00  0.000000D+00  0.000000D+00  0.000000D+00  0.000000D+00
      4a  0.000000D+00  0.000000D+00  0.000000D+00  0.000000D+00  0.000000D+00
      4b  0.000000D+00  0.000000D+00  0.000000D+00  0.000000D+00  0.000000D+00
      5a  0.000000D+00  0.000000D+00  0.000000D+00  0.000000D+00  0.000000D+00
      5b  0.000000D+00  0.000000D+00  0.000000D+00  0.000000D+00  0.000000D+00
      6a  0.000000D+00  0.000000D+00  0.000000D+00  0.000000D+00  0.000000D+00
      6b  0.000000D+00  0.000000D+00  0.000000D+00  0.000000D+00  0.000000D+00
      7a  0.000000D+00  0.000000D+00  0.000000D+00  0.000000D+00  0.000000D+00
      7b  0.000000D+00  0.000000D+00  0.000000D+00  0.000000D+00  0.000000D+00
      8a  0.000000D+00  0.000000D+00  0.000000D+00  0.000000D+00  0.000000D+00
      8b  0.000000D+00  0.000000D+00  0.000000D+00  0.000000D+00  0.000000D+00
      9a  0.000000D+00  0.000000D+00  0.000000D+00  0.000000D+00  0.000000D+00
      9b  0.000000D+00  0.000000D+00  0.000000D+00  0.000000D+00  0.000000D+00
     10a  0.000000D+00  0.000000D+00  0.000000D+00  0.000000D+00  0.000000D+00
     10b  0.000000D+00  0.000000D+00  0.000000D+00  0.000000D+00  0.000000D+00
                16            17            18            19            20 
      1a  0.000000D+00  0.000000D+00  0.000000D+00  0.000000D+00  0.000000D+00
      1b  0.000000D+00  0.000000D+00  0.000000D+00  0.000000D+00  0.000000D+00
      2a  0.000000D+00  0.000000D+00  0.000000D+00  0.000000D+00  0.000000D+00
      2b  0.000000D+00  0.000000D+00  0.000000D+00  0.000000D+00  0.000000D+00
      3a  0.000000D+00  0.000000D+00  0.000000D+00  0.000000D+00  0.000000D+00
      3b  0.000000D+00  0.000000D+00  0.000000D+00  0.000000D+00  0.000000D+00
      4a  0.000000D+00  0.000000D+00  0.000000D+00  0.000000D+00  0.000000D+00
      4b  0.000000D+00  0.000000D+00  0.000000D+00  0.000000D+00  0.000000D+00
      5a  0.000000D+00  0.000000D+00  0.000000D+00  0.000000D+00  0.000000D+00
      5b  0.000000D+00  0.000000D+00  0.000000D+00  0.000000D+00  0.000000D+00
      6a  0.000000D+00  0.000000D+00  0.000000D+00  0.000000D+00  0.000000D+00
      6b  0.000000D+00  0.000000D+00  0.000000D+00  0.000000D+00  0.000000D+00
      7a  0.000000D+00  0.000000D+00  0.000000D+00  0.000000D+00  0.000000D+00
      7b  0.000000D+00  0.000000D+00  0.000000D+00  0.000000D+00  0.000000D+00
      8a  0.000000D+00  0.000000D+00  0.000000D+00  0.000000D+00  0.000000D+00
      8b  0.000000D+00  0.000000D+00  0.000000D+00  0.000000D+00  0.000000D+00
      9a  0.000000D+00  0.000000D+00  0.000000D+00  0.000000D+00  0.000000D+00
      9b  0.000000D+00  0.000000D+00  0.000000D+00  0.000000D+00  0.000000D+00
     10a  0.000000D+00  0.000000D+00  0.000000D+00  0.000000D+00  0.000000D+00
     10b  0.000000D+00  0.000000D+00  0.000000D+00  0.000000D+00  0.000000D+00
 afr conversion (alpha, real):
                 1             2             3             4             5 
      1   0.335976D-03 -0.361943D-02 -0.653379D-02  0.362037D-03  0.119550D-03
      2  -0.162426D-01  0.174979D+00  0.299356D+00 -0.165873D-01 -0.674396D-02
      3  -0.160735D-01  0.173157D+00  0.298471D+00 -0.165383D-01 -0.679078D-02
      4  -0.258635D-01  0.278624D+00  0.181050D+00 -0.100320D-01  0.426934D-02
      5  -0.257828D-01  0.277754D+00  0.184848D+00 -0.102424D-01  0.417871D-02
      6  -0.257828D-01  0.277754D+00 -0.184848D+00  0.102424D-01  0.417871D-02
      7  -0.258635D-01  0.278624D+00 -0.181050D+00  0.100320D-01  0.426934D-02
      8  -0.160735D-01  0.173157D+00 -0.298471D+00  0.165383D-01 -0.679078D-02
      9  -0.162426D-01  0.174979D+00 -0.299356D+00  0.165873D-01 -0.674396D-02
     10   0.335976D-03 -0.361943D-02  0.653379D-02 -0.362037D-03  0.119550D-03
                 6             7             8             9            10 
      1  -0.572706D-02  0.387444D-02  0.164457D-02  0.200217D-01  0.713624D+00
      2   0.323069D+00 -0.197220D+00 -0.837133D-01 -0.133024D-02 -0.474132D-01
      3   0.325312D+00 -0.200261D+00 -0.850042D-01 -0.132607D-02 -0.472647D-01
      4  -0.204523D+00  0.323529D+00  0.137327D+00  0.149165D-03  0.531662D-02
      5  -0.200181D+00  0.324522D+00  0.137749D+00  0.195727D-03  0.697620D-02
      6  -0.200181D+00 -0.324522D+00 -0.137749D+00 -0.195727D-03 -0.697620D-02
      7  -0.204523D+00 -0.323529D+00 -0.137327D+00 -0.149165D-03 -0.531662D-02
      8   0.325312D+00  0.200261D+00  0.850042D-01  0.132607D-02  0.472647D-01
      9   0.323069D+00  0.197220D+00  0.837133D-01  0.133024D-02  0.474132D-01
     10  -0.572706D-02 -0.387444D-02 -0.164457D-02 -0.200217D-01 -0.713624D+00
                11            12            13            14            15 
      1   0.147060D+00  0.698588D+00  0.000000D+00 -0.148515D-02 -0.818273D-04
      2  -0.984541D-02 -0.467692D-01  0.327532D-03 -0.728999D+00 -0.849257D-01
      3  -0.982045D-02 -0.466506D-01 -0.331502D-03  0.737835D+00  0.854397D-01
      4   0.847383D-03  0.402537D-02  0.520519D-03 -0.115854D+01 -0.519502D-01
      5   0.121791D-02  0.578548D-02 -0.521695D-03  0.116115D+01  0.509558D-01
      6   0.121791D-02  0.578548D-02  0.521695D-03 -0.116115D+01  0.509558D-01
      7   0.847383D-03  0.402537D-02 -0.520519D-03  0.115854D+01 -0.519502D-01
      8  -0.982045D-02 -0.466506D-01  0.331502D-03 -0.737835D+00  0.854397D-01
      9  -0.984541D-02 -0.467692D-01 -0.327532D-03  0.728999D+00 -0.849257D-01
     10   0.147060D+00  0.698588D+00  0.000000D+00  0.148515D-02 -0.818273D-04
                16            17            18            19            20 
      1  -0.116054D-02 -0.196441D-04 -0.692958D-03 -0.685337D-04  0.161152D-02
      2  -0.120448D+01  0.353181D-01  0.124587D+01  0.336694D-01 -0.791711D+00
      3   0.121177D+01 -0.351992D-01 -0.124167D+01 -0.332223D-01  0.781198D+00
      4  -0.736797D+00 -0.220205D-01 -0.776786D+00 -0.553809D-01  0.130224D+01
      5   0.722693D+00  0.224982D-01  0.793636D+00  0.551883D-01 -0.129771D+01
      6   0.722693D+00 -0.224982D-01 -0.793636D+00  0.551883D-01 -0.129771D+01
      7  -0.736797D+00  0.220205D-01  0.776786D+00 -0.553809D-01  0.130224D+01
      8   0.121177D+01  0.351992D-01  0.124167D+01 -0.332223D-01  0.781198D+00
      9  -0.120448D+01 -0.353181D-01 -0.124587D+01  0.336694D-01 -0.791711D+00
     10  -0.116054D-02  0.196441D-04  0.692958D-03 -0.685337D-04  0.161152D-02
 afr conversion (alpha, imaginary):
                 1             2             3             4             5 
      1   0.000000D+00  0.000000D+00  0.000000D+00  0.000000D+00  0.000000D+00
      2   0.000000D+00  0.000000D+00  0.000000D+00  0.000000D+00  0.000000D+00
      3   0.000000D+00  0.000000D+00  0.000000D+00  0.000000D+00  0.000000D+00
      4   0.000000D+00  0.000000D+00  0.000000D+00  0.000000D+00  0.000000D+00
      5   0.000000D+00  0.000000D+00  0.000000D+00  0.000000D+00  0.000000D+00
      6   0.000000D+00  0.000000D+00  0.000000D+00  0.000000D+00  0.000000D+00
      7   0.000000D+00  0.000000D+00  0.000000D+00  0.000000D+00  0.000000D+00
      8   0.000000D+00  0.000000D+00  0.000000D+00  0.000000D+00  0.000000D+00
      9   0.000000D+00  0.000000D+00  0.000000D+00  0.000000D+00  0.000000D+00
     10   0.000000D+00  0.000000D+00  0.000000D+00  0.000000D+00  0.000000D+00
                 6             7             8             9            10 
      1   0.000000D+00  0.000000D+00  0.000000D+00  0.000000D+00  0.000000D+00
      2   0.000000D+00  0.000000D+00  0.000000D+00  0.000000D+00  0.000000D+00
      3   0.000000D+00  0.000000D+00  0.000000D+00  0.000000D+00  0.000000D+00
      4   0.000000D+00  0.000000D+00  0.000000D+00  0.000000D+00  0.000000D+00
      5   0.000000D+00  0.000000D+00  0.000000D+00  0.000000D+00  0.000000D+00
      6   0.000000D+00  0.000000D+00  0.000000D+00  0.000000D+00  0.000000D+00
      7   0.000000D+00  0.000000D+00  0.000000D+00  0.000000D+00  0.000000D+00
      8   0.000000D+00  0.000000D+00  0.000000D+00  0.000000D+00  0.000000D+00
      9   0.000000D+00  0.000000D+00  0.000000D+00  0.000000D+00  0.000000D+00
     10   0.000000D+00  0.000000D+00  0.000000D+00  0.000000D+00  0.000000D+00
                11            12            13            14            15 
      1   0.000000D+00  0.000000D+00  0.000000D+00  0.000000D+00  0.000000D+00
      2   0.000000D+00  0.000000D+00  0.000000D+00  0.000000D+00  0.000000D+00
      3   0.000000D+00  0.000000D+00  0.000000D+00  0.000000D+00  0.000000D+00
      4   0.000000D+00  0.000000D+00  0.000000D+00  0.000000D+00  0.000000D+00
      5   0.000000D+00  0.000000D+00  0.000000D+00  0.000000D+00  0.000000D+00
      6   0.000000D+00  0.000000D+00  0.000000D+00  0.000000D+00  0.000000D+00
      7   0.000000D+00  0.000000D+00  0.000000D+00  0.000000D+00  0.000000D+00
      8   0.000000D+00  0.000000D+00  0.000000D+00  0.000000D+00  0.000000D+00
      9   0.000000D+00  0.000000D+00  0.000000D+00  0.000000D+00  0.000000D+00
     10   0.000000D+00  0.000000D+00  0.000000D+00  0.000000D+00  0.000000D+00
                16            17            18            19            20 
      1   0.000000D+00  0.000000D+00  0.000000D+00  0.000000D+00  0.000000D+00
      2   0.000000D+00  0.000000D+00  0.000000D+00  0.000000D+00  0.000000D+00
      3   0.000000D+00  0.000000D+00  0.000000D+00  0.000000D+00  0.000000D+00
      4   0.000000D+00  0.000000D+00  0.000000D+00  0.000000D+00  0.000000D+00
      5   0.000000D+00  0.000000D+00  0.000000D+00  0.000000D+00  0.000000D+00
      6   0.000000D+00  0.000000D+00  0.000000D+00  0.000000D+00  0.000000D+00
      7   0.000000D+00  0.000000D+00  0.000000D+00  0.000000D+00  0.000000D+00
      8   0.000000D+00  0.000000D+00  0.000000D+00  0.000000D+00  0.000000D+00
      9   0.000000D+00  0.000000D+00  0.000000D+00  0.000000D+00  0.000000D+00
     10   0.000000D+00  0.000000D+00  0.000000D+00  0.000000D+00  0.000000D+00
 afr conversion (beta, real):
                 1             2             3             4             5 
      1  -0.361943D-02 -0.335976D-03 -0.362037D-03 -0.653379D-02 -0.572706D-02
      2   0.174979D+00  0.162426D-01  0.165873D-01  0.299356D+00  0.323069D+00
      3   0.173157D+00  0.160735D-01  0.165383D-01  0.298471D+00  0.325312D+00
      4   0.278624D+00  0.258635D-01  0.100320D-01  0.181050D+00 -0.204523D+00
      5   0.277754D+00  0.257828D-01  0.102424D-01  0.184848D+00 -0.200181D+00
      6   0.277754D+00  0.257828D-01 -0.102424D-01 -0.184848D+00 -0.200181D+00
      7   0.278624D+00  0.258635D-01 -0.100320D-01 -0.181050D+00 -0.204523D+00
      8   0.173157D+00  0.160735D-01 -0.165383D-01 -0.298471D+00  0.325312D+00
      9   0.174979D+00  0.162426D-01 -0.165873D-01 -0.299356D+00  0.323069D+00
     10  -0.361943D-02 -0.335976D-03  0.362037D-03  0.653379D-02 -0.572706D-02
                 6             7             8             9            10 
      1  -0.119550D-03 -0.164457D-02  0.387444D-02  0.713624D+00 -0.200217D-01
      2   0.674396D-02  0.837133D-01 -0.197220D+00 -0.474132D-01  0.133024D-02
      3   0.679078D-02  0.850042D-01 -0.200261D+00 -0.472647D-01  0.132607D-02
      4  -0.426934D-02 -0.137327D+00  0.323529D+00  0.531662D-02 -0.149165D-03
      5  -0.417871D-02 -0.137749D+00  0.324522D+00  0.697620D-02 -0.195727D-03
      6  -0.417871D-02  0.137749D+00 -0.324522D+00 -0.697620D-02  0.195727D-03
      7  -0.426934D-02  0.137327D+00 -0.323529D+00 -0.531662D-02  0.149165D-03
      8   0.679078D-02 -0.850042D-01  0.200261D+00  0.472647D-01 -0.132607D-02
      9   0.674396D-02 -0.837133D-01  0.197220D+00  0.474132D-01 -0.133024D-02
     10  -0.119550D-03  0.164457D-02 -0.387444D-02 -0.713624D+00  0.200217D-01
                11            12            13            14            15 
      1   0.698588D+00 -0.147060D+00 -0.148515D-02  0.000000D+00 -0.116054D-02
      2  -0.467692D-01  0.984541D-02 -0.728999D+00 -0.327532D-03 -0.120448D+01
      3  -0.466506D-01  0.982045D-02  0.737835D+00  0.331502D-03  0.121177D+01
      4   0.402537D-02 -0.847383D-03 -0.115854D+01 -0.520519D-03 -0.736797D+00
      5   0.578548D-02 -0.121791D-02  0.116115D+01  0.521695D-03  0.722693D+00
      6   0.578548D-02 -0.121791D-02 -0.116115D+01 -0.521695D-03  0.722693D+00
      7   0.402537D-02 -0.847383D-03  0.115854D+01  0.520519D-03 -0.736797D+00
      8  -0.466506D-01  0.982045D-02 -0.737835D+00 -0.331502D-03  0.121177D+01
      9  -0.467692D-01  0.984541D-02  0.728999D+00  0.327532D-03 -0.120448D+01
     10   0.698588D+00 -0.147060D+00  0.148515D-02  0.000000D+00 -0.116054D-02
                16            17            18            19            20 
      1   0.818273D-04 -0.692958D-03  0.196441D-04  0.161152D-02  0.685337D-04
      2   0.849257D-01  0.124587D+01 -0.353181D-01 -0.791711D+00 -0.336694D-01
      3  -0.854397D-01 -0.124167D+01  0.351992D-01  0.781198D+00  0.332223D-01
      4   0.519502D-01 -0.776786D+00  0.220205D-01  0.130224D+01  0.553809D-01
      5  -0.509558D-01  0.793636D+00 -0.224982D-01 -0.129771D+01 -0.551883D-01
      6  -0.509558D-01 -0.793636D+00  0.224982D-01 -0.129771D+01 -0.551883D-01
      7   0.519502D-01  0.776786D+00 -0.220205D-01  0.130224D+01  0.553809D-01
      8  -0.854397D-01  0.124167D+01 -0.351992D-01  0.781198D+00  0.332223D-01
      9   0.849257D-01 -0.124587D+01  0.353181D-01 -0.791711D+00 -0.336694D-01
     10   0.818273D-04  0.692958D-03 -0.196441D-04  0.161152D-02  0.685337D-04
 afr conversion (beta, imaginary):
                 1             2             3             4             5 
      1   0.000000D+00  0.000000D+00  0.000000D+00  0.000000D+00  0.000000D+00
      2   0.000000D+00  0.000000D+00  0.000000D+00  0.000000D+00  0.000000D+00
      3   0.000000D+00  0.000000D+00  0.000000D+00  0.000000D+00  0.000000D+00
      4   0.000000D+00  0.000000D+00  0.000000D+00  0.000000D+00  0.000000D+00
      5   0.000000D+00  0.000000D+00  0.000000D+00  0.000000D+00  0.000000D+00
      6   0.000000D+00  0.000000D+00  0.000000D+00  0.000000D+00  0.000000D+00
      7   0.000000D+00  0.000000D+00  0.000000D+00  0.000000D+00  0.000000D+00
      8   0.000000D+00  0.000000D+00  0.000000D+00  0.000000D+00  0.000000D+00
      9   0.000000D+00  0.000000D+00  0.000000D+00  0.000000D+00  0.000000D+00
     10   0.000000D+00  0.000000D+00  0.000000D+00  0.000000D+00  0.000000D+00
                 6             7             8             9            10 
      1   0.000000D+00  0.000000D+00  0.000000D+00  0.000000D+00  0.000000D+00
      2   0.000000D+00  0.000000D+00  0.000000D+00  0.000000D+00  0.000000D+00
      3   0.000000D+00  0.000000D+00  0.000000D+00  0.000000D+00  0.000000D+00
      4   0.000000D+00  0.000000D+00  0.000000D+00  0.000000D+00  0.000000D+00
      5   0.000000D+00  0.000000D+00  0.000000D+00  0.000000D+00  0.000000D+00
      6   0.000000D+00  0.000000D+00  0.000000D+00  0.000000D+00  0.000000D+00
      7   0.000000D+00  0.000000D+00  0.000000D+00  0.000000D+00  0.000000D+00
      8   0.000000D+00  0.000000D+00  0.000000D+00  0.000000D+00  0.000000D+00
      9   0.000000D+00  0.000000D+00  0.000000D+00  0.000000D+00  0.000000D+00
     10   0.000000D+00  0.000000D+00  0.000000D+00  0.000000D+00  0.000000D+00
                11            12            13            14            15 
      1   0.000000D+00  0.000000D+00  0.000000D+00  0.000000D+00  0.000000D+00
      2   0.000000D+00  0.000000D+00  0.000000D+00  0.000000D+00  0.000000D+00
      3   0.000000D+00  0.000000D+00  0.000000D+00  0.000000D+00  0.000000D+00
      4   0.000000D+00  0.000000D+00  0.000000D+00  0.000000D+00  0.000000D+00
      5   0.000000D+00  0.000000D+00  0.000000D+00  0.000000D+00  0.000000D+00
      6   0.000000D+00  0.000000D+00  0.000000D+00  0.000000D+00  0.000000D+00
      7   0.000000D+00  0.000000D+00  0.000000D+00  0.000000D+00  0.000000D+00
      8   0.000000D+00  0.000000D+00  0.000000D+00  0.000000D+00  0.000000D+00
      9   0.000000D+00  0.000000D+00  0.000000D+00  0.000000D+00  0.000000D+00
     10   0.000000D+00  0.000000D+00  0.000000D+00  0.000000D+00  0.000000D+00
                16            17            18            19            20 
      1   0.000000D+00  0.000000D+00  0.000000D+00  0.000000D+00  0.000000D+00
      2   0.000000D+00  0.000000D+00  0.000000D+00  0.000000D+00  0.000000D+00
      3   0.000000D+00  0.000000D+00  0.000000D+00  0.000000D+00  0.000000D+00
      4   0.000000D+00  0.000000D+00  0.000000D+00  0.000000D+00  0.000000D+00
      5   0.000000D+00  0.000000D+00  0.000000D+00  0.000000D+00  0.000000D+00
      6   0.000000D+00  0.000000D+00  0.000000D+00  0.000000D+00  0.000000D+00
      7   0.000000D+00  0.000000D+00  0.000000D+00  0.000000D+00  0.000000D+00
      8   0.000000D+00  0.000000D+00  0.000000D+00  0.000000D+00  0.000000D+00
      9   0.000000D+00  0.000000D+00  0.000000D+00  0.000000D+00  0.000000D+00
     10   0.000000D+00  0.000000D+00  0.000000D+00  0.000000D+00  0.000000D+00
 jaja in hckghf.F, ISPECT =                     548
Spin block MO for GHF transformation
NOA =   10   NOB =   10
NVA =   10   NVB =   10
 NOAvA in Hack                     100
 jaja in tranN3.F, ISPECT =                     548
 in l802/tranN3.F, LSPECT =                      800
 NMat, NBtSiz,MDV                    8372                   16000
                133954722
 TranN3:  NGot= 134217728 NBasic=    263006 NTTT=       550 NMat=      8372.
 Defined bucket =                      51                   10000
 Defined bucket =                      52                   10000
 Defined bucket =                      53                   10000
 Defined bucket =                      55                   10000
 Defined bucket =                      57                   10000
 Defined bucket =                      58                   10000
 Defined bucket =                      60                   10000
 Defined bucket =                      72                   10000
 Defined bucket =                      73                   10000
 Defined bucket =                      74                   10000
 Defined bucket =                      75                   10000
 Defined bucket =                      76                   10000
 (IK/LS) integrals will be saved in memory.
 TrCghf made   2 passes through the AO integrals.
 jaja DoHack is true or false? F
 jaja in hckghf.F, NBasis=                      10
 jaja in hckGHF/FixOG, LC =                      800
 jaja in hckGHF/FixOG, IRwC=                      548
 bfr conversion (alpha, real):
                 1             2             3             4             5 
      1   0.335976D-03 -0.361943D-02 -0.653379D-02  0.362037D-03  0.119550D-03
      2  -0.162426D-01  0.174979D+00  0.299356D+00 -0.165873D-01 -0.674396D-02
      3  -0.160735D-01  0.173157D+00  0.298471D+00 -0.165383D-01 -0.679078D-02
      4  -0.258635D-01  0.278624D+00  0.181050D+00 -0.100320D-01  0.426934D-02
      5  -0.257828D-01  0.277754D+00  0.184848D+00 -0.102424D-01  0.417871D-02
      6  -0.257828D-01  0.277754D+00 -0.184848D+00  0.102424D-01  0.417871D-02
      7  -0.258635D-01  0.278624D+00 -0.181050D+00  0.100320D-01  0.426934D-02
      8  -0.160735D-01  0.173157D+00 -0.298471D+00  0.165383D-01 -0.679078D-02
      9  -0.162426D-01  0.174979D+00 -0.299356D+00  0.165873D-01 -0.674396D-02
     10   0.335976D-03 -0.361943D-02  0.653379D-02 -0.362037D-03  0.119550D-03
                 6             7             8             9            10 
      1  -0.572706D-02  0.387444D-02  0.164457D-02  0.200217D-01  0.713624D+00
      2   0.323069D+00 -0.197220D+00 -0.837133D-01 -0.133024D-02 -0.474132D-01
      3   0.325312D+00 -0.200261D+00 -0.850042D-01 -0.132607D-02 -0.472647D-01
      4  -0.204523D+00  0.323529D+00  0.137327D+00  0.149165D-03  0.531662D-02
      5  -0.200181D+00  0.324522D+00  0.137749D+00  0.195727D-03  0.697620D-02
      6  -0.200181D+00 -0.324522D+00 -0.137749D+00 -0.195727D-03 -0.697620D-02
      7  -0.204523D+00 -0.323529D+00 -0.137327D+00 -0.149165D-03 -0.531662D-02
      8   0.325312D+00  0.200261D+00  0.850042D-01  0.132607D-02  0.472647D-01
      9   0.323069D+00  0.197220D+00  0.837133D-01  0.133024D-02  0.474132D-01
     10  -0.572706D-02 -0.387444D-02 -0.164457D-02 -0.200217D-01 -0.713624D+00
                11            12            13            14            15 
      1   0.147060D+00  0.698588D+00  0.000000D+00 -0.148515D-02 -0.818273D-04
      2  -0.984541D-02 -0.467692D-01  0.327532D-03 -0.728999D+00 -0.849257D-01
      3  -0.982045D-02 -0.466506D-01 -0.331502D-03  0.737835D+00  0.854397D-01
      4   0.847383D-03  0.402537D-02  0.520519D-03 -0.115854D+01 -0.519502D-01
      5   0.121791D-02  0.578548D-02 -0.521695D-03  0.116115D+01  0.509558D-01
      6   0.121791D-02  0.578548D-02  0.521695D-03 -0.116115D+01  0.509558D-01
      7   0.847383D-03  0.402537D-02 -0.520519D-03  0.115854D+01 -0.519502D-01
      8  -0.982045D-02 -0.466506D-01  0.331502D-03 -0.737835D+00  0.854397D-01
      9  -0.984541D-02 -0.467692D-01 -0.327532D-03  0.728999D+00 -0.849257D-01
     10   0.147060D+00  0.698588D+00  0.000000D+00  0.148515D-02 -0.818273D-04
                16            17            18            19            20 
      1  -0.116054D-02 -0.196441D-04 -0.692958D-03 -0.685337D-04  0.161152D-02
      2  -0.120448D+01  0.353181D-01  0.124587D+01  0.336694D-01 -0.791711D+00
      3   0.121177D+01 -0.351992D-01 -0.124167D+01 -0.332223D-01  0.781198D+00
      4  -0.736797D+00 -0.220205D-01 -0.776786D+00 -0.553809D-01  0.130224D+01
      5   0.722693D+00  0.224982D-01  0.793636D+00  0.551883D-01 -0.129771D+01
      6   0.722693D+00 -0.224982D-01 -0.793636D+00  0.551883D-01 -0.129771D+01
      7  -0.736797D+00  0.220205D-01  0.776786D+00 -0.553809D-01  0.130224D+01
      8   0.121177D+01  0.351992D-01  0.124167D+01 -0.332223D-01  0.781198D+00
      9  -0.120448D+01 -0.353181D-01 -0.124587D+01  0.336694D-01 -0.791711D+00
     10  -0.116054D-02  0.196441D-04  0.692958D-03 -0.685337D-04  0.161152D-02
 bfr conversion (alpha, imaginary):
                 1             2             3             4             5 
      1   0.000000D+00  0.000000D+00  0.000000D+00  0.000000D+00  0.000000D+00
      2   0.000000D+00  0.000000D+00  0.000000D+00  0.000000D+00  0.000000D+00
      3   0.000000D+00  0.000000D+00  0.000000D+00  0.000000D+00  0.000000D+00
      4   0.000000D+00  0.000000D+00  0.000000D+00  0.000000D+00  0.000000D+00
      5   0.000000D+00  0.000000D+00  0.000000D+00  0.000000D+00  0.000000D+00
      6   0.000000D+00  0.000000D+00  0.000000D+00  0.000000D+00  0.000000D+00
      7   0.000000D+00  0.000000D+00  0.000000D+00  0.000000D+00  0.000000D+00
      8   0.000000D+00  0.000000D+00  0.000000D+00  0.000000D+00  0.000000D+00
      9   0.000000D+00  0.000000D+00  0.000000D+00  0.000000D+00  0.000000D+00
     10   0.000000D+00  0.000000D+00  0.000000D+00  0.000000D+00  0.000000D+00
                 6             7             8             9            10 
      1   0.000000D+00  0.000000D+00  0.000000D+00  0.000000D+00  0.000000D+00
      2   0.000000D+00  0.000000D+00  0.000000D+00  0.000000D+00  0.000000D+00
      3   0.000000D+00  0.000000D+00  0.000000D+00  0.000000D+00  0.000000D+00
      4   0.000000D+00  0.000000D+00  0.000000D+00  0.000000D+00  0.000000D+00
      5   0.000000D+00  0.000000D+00  0.000000D+00  0.000000D+00  0.000000D+00
      6   0.000000D+00  0.000000D+00  0.000000D+00  0.000000D+00  0.000000D+00
      7   0.000000D+00  0.000000D+00  0.000000D+00  0.000000D+00  0.000000D+00
      8   0.000000D+00  0.000000D+00  0.000000D+00  0.000000D+00  0.000000D+00
      9   0.000000D+00  0.000000D+00  0.000000D+00  0.000000D+00  0.000000D+00
     10   0.000000D+00  0.000000D+00  0.000000D+00  0.000000D+00  0.000000D+00
                11            12            13            14            15 
      1   0.000000D+00  0.000000D+00  0.000000D+00  0.000000D+00  0.000000D+00
      2   0.000000D+00  0.000000D+00  0.000000D+00  0.000000D+00  0.000000D+00
      3   0.000000D+00  0.000000D+00  0.000000D+00  0.000000D+00  0.000000D+00
      4   0.000000D+00  0.000000D+00  0.000000D+00  0.000000D+00  0.000000D+00
      5   0.000000D+00  0.000000D+00  0.000000D+00  0.000000D+00  0.000000D+00
      6   0.000000D+00  0.000000D+00  0.000000D+00  0.000000D+00  0.000000D+00
      7   0.000000D+00  0.000000D+00  0.000000D+00  0.000000D+00  0.000000D+00
      8   0.000000D+00  0.000000D+00  0.000000D+00  0.000000D+00  0.000000D+00
      9   0.000000D+00  0.000000D+00  0.000000D+00  0.000000D+00  0.000000D+00
     10   0.000000D+00  0.000000D+00  0.000000D+00  0.000000D+00  0.000000D+00
                16            17            18            19            20 
      1   0.000000D+00  0.000000D+00  0.000000D+00  0.000000D+00  0.000000D+00
      2   0.000000D+00  0.000000D+00  0.000000D+00  0.000000D+00  0.000000D+00
      3   0.000000D+00  0.000000D+00  0.000000D+00  0.000000D+00  0.000000D+00
      4   0.000000D+00  0.000000D+00  0.000000D+00  0.000000D+00  0.000000D+00
      5   0.000000D+00  0.000000D+00  0.000000D+00  0.000000D+00  0.000000D+00
      6   0.000000D+00  0.000000D+00  0.000000D+00  0.000000D+00  0.000000D+00
      7   0.000000D+00  0.000000D+00  0.000000D+00  0.000000D+00  0.000000D+00
      8   0.000000D+00  0.000000D+00  0.000000D+00  0.000000D+00  0.000000D+00
      9   0.000000D+00  0.000000D+00  0.000000D+00  0.000000D+00  0.000000D+00
     10   0.000000D+00  0.000000D+00  0.000000D+00  0.000000D+00  0.000000D+00
 bfr conversion (beta, real):
                 1             2             3             4             5 
      1  -0.361943D-02 -0.335976D-03 -0.362037D-03 -0.653379D-02 -0.572706D-02
      2   0.174979D+00  0.162426D-01  0.165873D-01  0.299356D+00  0.323069D+00
      3   0.173157D+00  0.160735D-01  0.165383D-01  0.298471D+00  0.325312D+00
      4   0.278624D+00  0.258635D-01  0.100320D-01  0.181050D+00 -0.204523D+00
      5   0.277754D+00  0.257828D-01  0.102424D-01  0.184848D+00 -0.200181D+00
      6   0.277754D+00  0.257828D-01 -0.102424D-01 -0.184848D+00 -0.200181D+00
      7   0.278624D+00  0.258635D-01 -0.100320D-01 -0.181050D+00 -0.204523D+00
      8   0.173157D+00  0.160735D-01 -0.165383D-01 -0.298471D+00  0.325312D+00
      9   0.174979D+00  0.162426D-01 -0.165873D-01 -0.299356D+00  0.323069D+00
     10  -0.361943D-02 -0.335976D-03  0.362037D-03  0.653379D-02 -0.572706D-02
                 6             7             8             9            10 
      1  -0.119550D-03 -0.164457D-02  0.387444D-02  0.713624D+00 -0.200217D-01
      2   0.674396D-02  0.837133D-01 -0.197220D+00 -0.474132D-01  0.133024D-02
      3   0.679078D-02  0.850042D-01 -0.200261D+00 -0.472647D-01  0.132607D-02
      4  -0.426934D-02 -0.137327D+00  0.323529D+00  0.531662D-02 -0.149165D-03
      5  -0.417871D-02 -0.137749D+00  0.324522D+00  0.697620D-02 -0.195727D-03
      6  -0.417871D-02  0.137749D+00 -0.324522D+00 -0.697620D-02  0.195727D-03
      7  -0.426934D-02  0.137327D+00 -0.323529D+00 -0.531662D-02  0.149165D-03
      8   0.679078D-02 -0.850042D-01  0.200261D+00  0.472647D-01 -0.132607D-02
      9   0.674396D-02 -0.837133D-01  0.197220D+00  0.474132D-01 -0.133024D-02
     10  -0.119550D-03  0.164457D-02 -0.387444D-02 -0.713624D+00  0.200217D-01
                11            12            13            14            15 
      1   0.698588D+00 -0.147060D+00 -0.148515D-02  0.000000D+00 -0.116054D-02
      2  -0.467692D-01  0.984541D-02 -0.728999D+00 -0.327532D-03 -0.120448D+01
      3  -0.466506D-01  0.982045D-02  0.737835D+00  0.331502D-03  0.121177D+01
      4   0.402537D-02 -0.847383D-03 -0.115854D+01 -0.520519D-03 -0.736797D+00
      5   0.578548D-02 -0.121791D-02  0.116115D+01  0.521695D-03  0.722693D+00
      6   0.578548D-02 -0.121791D-02 -0.116115D+01 -0.521695D-03  0.722693D+00
      7   0.402537D-02 -0.847383D-03  0.115854D+01  0.520519D-03 -0.736797D+00
      8  -0.466506D-01  0.982045D-02 -0.737835D+00 -0.331502D-03  0.121177D+01
      9  -0.467692D-01  0.984541D-02  0.728999D+00  0.327532D-03 -0.120448D+01
     10   0.698588D+00 -0.147060D+00  0.148515D-02  0.000000D+00 -0.116054D-02
                16            17            18            19            20 
      1   0.818273D-04 -0.692958D-03  0.196441D-04  0.161152D-02  0.685337D-04
      2   0.849257D-01  0.124587D+01 -0.353181D-01 -0.791711D+00 -0.336694D-01
      3  -0.854397D-01 -0.124167D+01  0.351992D-01  0.781198D+00  0.332223D-01
      4   0.519502D-01 -0.776786D+00  0.220205D-01  0.130224D+01  0.553809D-01
      5  -0.509558D-01  0.793636D+00 -0.224982D-01 -0.129771D+01 -0.551883D-01
      6  -0.509558D-01 -0.793636D+00  0.224982D-01 -0.129771D+01 -0.551883D-01
      7   0.519502D-01  0.776786D+00 -0.220205D-01  0.130224D+01  0.553809D-01
      8  -0.854397D-01  0.124167D+01 -0.351992D-01  0.781198D+00  0.332223D-01
      9   0.849257D-01 -0.124587D+01  0.353181D-01 -0.791711D+00 -0.336694D-01
     10   0.818273D-04  0.692958D-03 -0.196441D-04  0.161152D-02  0.685337D-04
 bfr conversion (beta, imaginary):
                 1             2             3             4             5 
[...]
      6b 0.668250D-03 -0.120046D-01 -0.432704D+00  0.182678D+00 -0.439349D+00
      7a-0.204137D-02  0.153319D-01  0.102605D+01 -0.432437D+00  0.104372D+01
      7b 0.699905D-03 -0.115119D-01 -0.431402D+00  0.179762D+00 -0.438026D+00
      8a 0.176593D-01 -0.103068D-01 -0.600233D+00  0.267777D+00 -0.610027D+00
      8b 0.215828D-02  0.318227D-01  0.266397D+00 -0.805807D-01  0.270509D+00
      9a 0.178342D-01 -0.101661D-01 -0.590621D+00  0.263709D+00 -0.600251D+00
      9b 0.217004D-02  0.317642D-01  0.262346D+00 -0.789142D-01  0.266396D+00
     10a-0.324002D+00  0.156784D-01  0.499023D-01 -0.104366D-01  0.502612D-01
     10b-0.465780D-01 -0.330550D+00  0.189953D-02  0.169765D-01  0.188338D-02
                3b            4a            4b            5a            5b
      3b 0.792941D+00
      4a 0.435636D+00  0.228549D+01
      4b-0.435942D+00 -0.711824D+00  0.976052D+00
      5a 0.436962D+00  0.229025D+01 -0.714004D+00  0.229511D+01
      5b-0.431027D+00 -0.713989D+00  0.976513D+00 -0.716175D+00  0.977068D+00
      6a-0.440393D+00 -0.191247D+01  0.707240D+00 -0.192251D+01  0.709440D+00
      6b 0.187306D+00  0.707037D+00 -0.510156D+00  0.709253D+00 -0.516561D+00
      7a-0.439076D+00 -0.190245D+01  0.705048D+00 -0.191249D+01  0.707241D+00
      7b 0.184333D+00  0.704828D+00 -0.503746D+00  0.707038D+00 -0.510170D+00
      8a 0.271907D+00  0.104629D+01 -0.439122D+00  0.105205D+01 -0.440442D+00
      8b-0.822719D-01 -0.438072D+00  0.183711D+00 -0.439397D+00  0.186801D+00
      9a 0.267776D+00  0.102859D+01 -0.432482D+00  0.103425D+01 -0.433781D+00
      9b-0.805639D-01 -0.431447D+00  0.179144D+00 -0.432751D+00  0.182177D+00
     10a-0.105817D-01 -0.435914D-01  0.160465D-01 -0.441851D-01  0.161415D-01
     10b 0.167863D-01  0.141448D-02 -0.923048D-03  0.140453D-02 -0.266481D-02
                6a            6b            7a            7b            8a
      6a 0.229558D+01
      6b-0.716186D+00  0.977011D+00
      7a 0.229079D+01 -0.714015D+00  0.228610D+01
      7b-0.713999D+00  0.976417D+00 -0.711836D+00  0.975915D+00
      8a-0.130807D+01  0.437019D+00 -0.130969D+01  0.435692D+00  0.124532D+01
      8b 0.436111D+00 -0.430717D+00  0.434799D+00 -0.435517D+00 -0.274936D+00
      9a-0.128681D+01  0.430313D+00 -0.128847D+01  0.429007D+00  0.123218D+01
      9b 0.429417D+00 -0.421982D+00  0.428126D+00 -0.426777D+00 -0.270833D+00
     10a 0.469178D-01 -0.161105D-01  0.463583D-01 -0.160179D-01 -0.473458D-01
     10b-0.179711D-02  0.109786D-01 -0.183747D-02  0.966718D-02  0.276132D-02
                8b            9a            9b           10a           10b
      8b 0.794836D+00
      9a-0.270834D+00  0.121924D+01
      9b 0.789772D+00 -0.266794D+00  0.784789D+00
     10a 0.110603D-01 -0.469494D-01  0.109153D-01  0.110838D+00
     10b-0.736775D-01  0.273922D-02 -0.737502D-01 -0.217786D-01  0.989714D+00
 jaja lower-tri density matrix (imaginary):
                1a            1b            2a            2b            3a
      1a 0.000000D+00
      1b 0.000000D+00  0.000000D+00
      2a 0.000000D+00  0.000000D+00  0.000000D+00
      2b 0.000000D+00  0.000000D+00  0.000000D+00  0.000000D+00
      3a 0.000000D+00  0.000000D+00  0.000000D+00  0.000000D+00  0.000000D+00
      3b 0.000000D+00  0.000000D+00  0.000000D+00  0.000000D+00  0.000000D+00
      4a 0.000000D+00  0.000000D+00  0.000000D+00  0.000000D+00  0.000000D+00
      4b 0.000000D+00  0.000000D+00  0.000000D+00  0.000000D+00  0.000000D+00
      5a 0.000000D+00  0.000000D+00  0.000000D+00  0.000000D+00  0.000000D+00
      5b 0.000000D+00  0.000000D+00  0.000000D+00  0.000000D+00  0.000000D+00
      6a 0.000000D+00  0.000000D+00  0.000000D+00  0.000000D+00  0.000000D+00
      6b 0.000000D+00  0.000000D+00  0.000000D+00  0.000000D+00  0.000000D+00
      7a 0.000000D+00  0.000000D+00  0.000000D+00  0.000000D+00  0.000000D+00
      7b 0.000000D+00  0.000000D+00  0.000000D+00  0.000000D+00  0.000000D+00
      8a 0.000000D+00  0.000000D+00  0.000000D+00  0.000000D+00  0.000000D+00
      8b 0.000000D+00  0.000000D+00  0.000000D+00  0.000000D+00  0.000000D+00
      9a 0.000000D+00  0.000000D+00  0.000000D+00  0.000000D+00  0.000000D+00
      9b 0.000000D+00  0.000000D+00  0.000000D+00  0.000000D+00  0.000000D+00
     10a 0.000000D+00  0.000000D+00  0.000000D+00  0.000000D+00  0.000000D+00
     10b 0.000000D+00  0.000000D+00  0.000000D+00  0.000000D+00  0.000000D+00
                3b            4a            4b            5a            5b
      3b 0.000000D+00
      4a 0.000000D+00  0.000000D+00
      4b 0.000000D+00  0.000000D+00  0.000000D+00
      5a 0.000000D+00  0.000000D+00  0.000000D+00  0.000000D+00
      5b 0.000000D+00  0.000000D+00  0.000000D+00  0.000000D+00  0.000000D+00
      6a 0.000000D+00  0.000000D+00  0.000000D+00  0.000000D+00  0.000000D+00
      6b 0.000000D+00  0.000000D+00  0.000000D+00  0.000000D+00  0.000000D+00
      7a 0.000000D+00  0.000000D+00  0.000000D+00  0.000000D+00  0.000000D+00
      7b 0.000000D+00  0.000000D+00  0.000000D+00  0.000000D+00  0.000000D+00
      8a 0.000000D+00  0.000000D+00  0.000000D+00  0.000000D+00  0.000000D+00
      8b 0.000000D+00  0.000000D+00  0.000000D+00  0.000000D+00  0.000000D+00
      9a 0.000000D+00  0.000000D+00  0.000000D+00  0.000000D+00  0.000000D+00
      9b 0.000000D+00  0.000000D+00  0.000000D+00  0.000000D+00  0.000000D+00
     10a 0.000000D+00  0.000000D+00  0.000000D+00  0.000000D+00  0.000000D+00
     10b 0.000000D+00  0.000000D+00  0.000000D+00  0.000000D+00  0.000000D+00
                6a            6b            7a            7b            8a
      6a 0.000000D+00
      6b 0.000000D+00  0.000000D+00
      7a 0.000000D+00  0.000000D+00  0.000000D+00
      7b 0.000000D+00  0.000000D+00  0.000000D+00  0.000000D+00
      8a 0.000000D+00  0.000000D+00  0.000000D+00  0.000000D+00  0.000000D+00
      8b 0.000000D+00  0.000000D+00  0.000000D+00  0.000000D+00  0.000000D+00
      9a 0.000000D+00  0.000000D+00  0.000000D+00  0.000000D+00  0.000000D+00
      9b 0.000000D+00  0.000000D+00  0.000000D+00  0.000000D+00  0.000000D+00
     10a 0.000000D+00  0.000000D+00  0.000000D+00  0.000000D+00  0.000000D+00
     10b 0.000000D+00  0.000000D+00  0.000000D+00  0.000000D+00  0.000000D+00
                8b            9a            9b           10a           10b
      8b 0.000000D+00
      9a 0.000000D+00  0.000000D+00
      9b 0.000000D+00  0.000000D+00  0.000000D+00
     10a 0.000000D+00  0.000000D+00  0.000000D+00  0.000000D+00
     10b 0.000000D+00  0.000000D+00  0.000000D+00  0.000000D+00  0.000000D+00
 jaja non-ortho density matrix               [Gau-style] (real):
                 1             2             3             4             5 
      1a  0.971850D+00 -0.861477D-02 -0.724173D-01  0.158907D-02 -0.723587D-01
      1b -0.861477D-02  0.111777D+00  0.976518D-02 -0.298711D-01  0.990456D-02
      2a -0.724173D-01  0.976518D-02  0.121884D+01 -0.266699D+00  0.123171D+01
      2b  0.158907D-02 -0.298711D-01 -0.266699D+00  0.782821D+00 -0.270739D+00
      3a -0.723587D-01  0.990456D-02  0.123171D+01 -0.270739D+00  0.124478D+01
      3b  0.160554D-02 -0.299662D-01 -0.270738D+00  0.787841D+00 -0.274841D+00
      4a  0.110506D-01 -0.152079D-01 -0.128587D+01  0.428951D+00 -0.130704D+01
      4b -0.102744D-02  0.138907D-01  0.428070D+00 -0.427184D+00  0.434743D+00
      5a  0.123466D-01 -0.152846D-01 -0.128433D+01  0.430256D+00 -0.130554D+01
      5b -0.971242D-03  0.143433D-01  0.429360D+00 -0.422275D+00  0.436053D+00
      6a -0.375375D-02  0.154052D-01  0.103179D+01 -0.433734D+00  0.104956D+01
      6b  0.668250D-03 -0.120046D-01 -0.432704D+00  0.182678D+00 -0.439349D+00
      7a -0.204137D-02  0.153319D-01  0.102605D+01 -0.432437D+00  0.104372D+01
      7b  0.699905D-03 -0.115119D-01 -0.431402D+00  0.179762D+00 -0.438026D+00
      8a  0.176593D-01 -0.103068D-01 -0.600233D+00  0.267777D+00 -0.610027D+00
      8b  0.215828D-02  0.318227D-01  0.266397D+00 -0.805807D-01  0.270509D+00
      9a  0.178342D-01 -0.101661D-01 -0.590621D+00  0.263709D+00 -0.600251D+00
      9b  0.217004D-02  0.317642D-01  0.262346D+00 -0.789142D-01  0.266396D+00
     10a -0.324002D+00  0.156784D-01  0.499023D-01 -0.104366D-01  0.502612D-01
     10b -0.465780D-01 -0.330550D+00  0.189953D-02  0.169765D-01  0.188338D-02
                 6             7             8             9            10 
      1a  0.160554D-02  0.110506D-01 -0.102744D-02  0.123466D-01 -0.971242D-03
      1b -0.299662D-01 -0.152079D-01  0.138907D-01 -0.152846D-01  0.143433D-01
      2a -0.270738D+00 -0.128587D+01  0.428070D+00 -0.128433D+01  0.429360D+00
      2b  0.787841D+00  0.428951D+00 -0.427184D+00  0.430256D+00 -0.422275D+00
      3a -0.274841D+00 -0.130704D+01  0.434743D+00 -0.130554D+01  0.436053D+00
      3b  0.792941D+00  0.435636D+00 -0.435942D+00  0.436962D+00 -0.431027D+00
      4a  0.435636D+00  0.228549D+01 -0.711824D+00  0.229025D+01 -0.713989D+00
      4b -0.435942D+00 -0.711824D+00  0.976052D+00 -0.714004D+00  0.976513D+00
      5a  0.436962D+00  0.229025D+01 -0.714004D+00  0.229511D+01 -0.716175D+00
      5b -0.431027D+00 -0.713989D+00  0.976513D+00 -0.716175D+00  0.977068D+00
      6a -0.440393D+00 -0.191247D+01  0.707240D+00 -0.192251D+01  0.709440D+00
      6b  0.187306D+00  0.707037D+00 -0.510156D+00  0.709253D+00 -0.516561D+00
      7a -0.439076D+00 -0.190245D+01  0.705048D+00 -0.191249D+01  0.707241D+00
      7b  0.184333D+00  0.704828D+00 -0.503746D+00  0.707038D+00 -0.510170D+00
      8a  0.271907D+00  0.104629D+01 -0.439122D+00  0.105205D+01 -0.440442D+00
      8b -0.822719D-01 -0.438072D+00  0.183711D+00 -0.439397D+00  0.186801D+00
      9a  0.267776D+00  0.102859D+01 -0.432482D+00  0.103425D+01 -0.433781D+00
      9b -0.805639D-01 -0.431447D+00  0.179144D+00 -0.432751D+00  0.182177D+00
     10a -0.105817D-01 -0.435914D-01  0.160465D-01 -0.441851D-01  0.161415D-01
     10b  0.167863D-01  0.141448D-02 -0.923048D-03  0.140453D-02 -0.266481D-02
                11            12            13            14            15 
      1a -0.375375D-02  0.668250D-03 -0.204137D-02  0.699905D-03  0.176593D-01
      1b  0.154052D-01 -0.120046D-01  0.153319D-01 -0.115119D-01 -0.103068D-01
      2a  0.103179D+01 -0.432704D+00  0.102605D+01 -0.431402D+00 -0.600233D+00
      2b -0.433734D+00  0.182678D+00 -0.432437D+00  0.179762D+00  0.267777D+00
      3a  0.104956D+01 -0.439349D+00  0.104372D+01 -0.438026D+00 -0.610027D+00
      3b -0.440393D+00  0.187306D+00 -0.439076D+00  0.184333D+00  0.271907D+00
      4a -0.191247D+01  0.707037D+00 -0.190245D+01  0.704828D+00  0.104629D+01
      4b  0.707240D+00 -0.510156D+00  0.705048D+00 -0.503746D+00 -0.439122D+00
      5a -0.192251D+01  0.709253D+00 -0.191249D+01  0.707038D+00  0.105205D+01
      5b  0.709440D+00 -0.516561D+00  0.707241D+00 -0.510170D+00 -0.440442D+00
      6a  0.229558D+01 -0.716186D+00  0.229079D+01 -0.713999D+00 -0.130807D+01
      6b -0.716186D+00  0.977011D+00 -0.714015D+00  0.976417D+00  0.437019D+00
      7a  0.229079D+01 -0.714015D+00  0.228610D+01 -0.711836D+00 -0.130969D+01
      7b -0.713999D+00  0.976417D+00 -0.711836D+00  0.975915D+00  0.435692D+00
      8a -0.130807D+01  0.437019D+00 -0.130969D+01  0.435692D+00  0.124532D+01
      8b  0.436111D+00 -0.430717D+00  0.434799D+00 -0.435517D+00 -0.274936D+00
      9a -0.128681D+01  0.430313D+00 -0.128847D+01  0.429007D+00  0.123218D+01
      9b  0.429417D+00 -0.421982D+00  0.428126D+00 -0.426777D+00 -0.270833D+00
     10a  0.469178D-01 -0.161105D-01  0.463583D-01 -0.160179D-01 -0.473458D-01
     10b -0.179711D-02  0.109786D-01 -0.183747D-02  0.966718D-02  0.276132D-02
                16            17            18            19            20 
      1a  0.215828D-02  0.178342D-01  0.217004D-02 -0.324002D+00 -0.465780D-01
      1b  0.318227D-01 -0.101661D-01  0.317642D-01  0.156784D-01 -0.330550D+00
      2a  0.266397D+00 -0.590621D+00  0.262346D+00  0.499023D-01  0.189953D-02
      2b -0.805807D-01  0.263709D+00 -0.789142D-01 -0.104366D-01  0.169765D-01
      3a  0.270509D+00 -0.600251D+00  0.266396D+00  0.502612D-01  0.188338D-02
      3b -0.822719D-01  0.267776D+00 -0.805639D-01 -0.105817D-01  0.167863D-01
      4a -0.438072D+00  0.102859D+01 -0.431447D+00 -0.435914D-01  0.141448D-02
      4b  0.183711D+00 -0.432482D+00  0.179144D+00  0.160465D-01 -0.923048D-03
      5a -0.439397D+00  0.103425D+01 -0.432751D+00 -0.441851D-01  0.140453D-02
      5b  0.186801D+00 -0.433781D+00  0.182177D+00  0.161415D-01 -0.266481D-02
      6a  0.436111D+00 -0.128681D+01  0.429417D+00  0.469178D-01 -0.179711D-02
      6b -0.430717D+00  0.430313D+00 -0.421982D+00 -0.161105D-01  0.109786D-01
      7a  0.434799D+00 -0.128847D+01  0.428126D+00  0.463583D-01 -0.183747D-02
      7b -0.435517D+00  0.429007D+00 -0.426777D+00 -0.160179D-01  0.966718D-02
      8a -0.274936D+00  0.123218D+01 -0.270833D+00 -0.473458D-01  0.276132D-02
      8b  0.794836D+00 -0.270834D+00  0.789772D+00  0.110603D-01 -0.736775D-01
      9a -0.270834D+00  0.121924D+01 -0.266794D+00 -0.469494D-01  0.273922D-02
      9b  0.789772D+00 -0.266794D+00  0.784789D+00  0.109153D-01 -0.737502D-01
     10a  0.110603D-01 -0.469494D-01  0.109153D-01  0.110838D+00 -0.217786D-01
     10b -0.736775D-01  0.273922D-02 -0.737502D-01 -0.217786D-01  0.989714D+00
 jaja non-ortho density matrix               [Gau-style] (imaginary):
                 1             2             3             4             5 
      1a  0.000000D+00  0.000000D+00  0.000000D+00  0.000000D+00  0.000000D+00
      1b  0.000000D+00  0.000000D+00  0.000000D+00  0.000000D+00  0.000000D+00
      2a  0.000000D+00  0.000000D+00  0.000000D+00  0.000000D+00  0.000000D+00
      2b  0.000000D+00  0.000000D+00  0.000000D+00  0.000000D+00  0.000000D+00
      3a  0.000000D+00  0.000000D+00  0.000000D+00  0.000000D+00  0.000000D+00
      3b  0.000000D+00  0.000000D+00  0.000000D+00  0.000000D+00  0.000000D+00
      4a  0.000000D+00  0.000000D+00  0.000000D+00  0.000000D+00  0.000000D+00
      4b  0.000000D+00  0.000000D+00  0.000000D+00  0.000000D+00  0.000000D+00
      5a  0.000000D+00  0.000000D+00  0.000000D+00  0.000000D+00  0.000000D+00
      5b  0.000000D+00  0.000000D+00  0.000000D+00  0.000000D+00  0.000000D+00
      6a  0.000000D+00  0.000000D+00  0.000000D+00  0.000000D+00  0.000000D+00
      6b  0.000000D+00  0.000000D+00  0.000000D+00  0.000000D+00  0.000000D+00
      7a  0.000000D+00  0.000000D+00  0.000000D+00  0.000000D+00  0.000000D+00
      7b  0.000000D+00  0.000000D+00  0.000000D+00  0.000000D+00  0.000000D+00
      8a  0.000000D+00  0.000000D+00  0.000000D+00  0.000000D+00  0.000000D+00
      8b  0.000000D+00  0.000000D+00  0.000000D+00  0.000000D+00  0.000000D+00
      9a  0.000000D+00  0.000000D+00  0.000000D+00  0.000000D+00  0.000000D+00
      9b  0.000000D+00  0.000000D+00  0.000000D+00  0.000000D+00  0.000000D+00
     10a  0.000000D+00  0.000000D+00  0.000000D+00  0.000000D+00  0.000000D+00
     10b  0.000000D+00  0.000000D+00  0.000000D+00  0.000000D+00  0.000000D+00
                 6             7             8             9            10 
      1a  0.000000D+00  0.000000D+00  0.000000D+00  0.000000D+00  0.000000D+00
      1b  0.000000D+00  0.000000D+00  0.000000D+00  0.000000D+00  0.000000D+00
      2a  0.000000D+00  0.000000D+00  0.000000D+00  0.000000D+00  0.000000D+00
      2b  0.000000D+00  0.000000D+00  0.000000D+00  0.000000D+00  0.000000D+00
      3a  0.000000D+00  0.000000D+00  0.000000D+00  0.000000D+00  0.000000D+00
      3b  0.000000D+00  0.000000D+00  0.000000D+00  0.000000D+00  0.000000D+00
      4a  0.000000D+00  0.000000D+00  0.000000D+00  0.000000D+00  0.000000D+00
      4b  0.000000D+00  0.000000D+00  0.000000D+00  0.000000D+00  0.000000D+00
      5a  0.000000D+00  0.000000D+00  0.000000D+00  0.000000D+00  0.000000D+00
      5b  0.000000D+00  0.000000D+00  0.000000D+00  0.000000D+00  0.000000D+00
      6a  0.000000D+00  0.000000D+00  0.000000D+00  0.000000D+00  0.000000D+00
      6b  0.000000D+00  0.000000D+00  0.000000D+00  0.000000D+00  0.000000D+00
      7a  0.000000D+00  0.000000D+00  0.000000D+00  0.000000D+00  0.000000D+00
      7b  0.000000D+00  0.000000D+00  0.000000D+00  0.000000D+00  0.000000D+00
      8a  0.000000D+00  0.000000D+00  0.000000D+00  0.000000D+00  0.000000D+00
      8b  0.000000D+00  0.000000D+00  0.000000D+00  0.000000D+00  0.000000D+00
      9a  0.000000D+00  0.000000D+00  0.000000D+00  0.000000D+00  0.000000D+00
      9b  0.000000D+00  0.000000D+00  0.000000D+00  0.000000D+00  0.000000D+00
     10a  0.000000D+00  0.000000D+00  0.000000D+00  0.000000D+00  0.000000D+00
     10b  0.000000D+00  0.000000D+00  0.000000D+00  0.000000D+00  0.000000D+00
                11            12            13            14            15 
      1a  0.000000D+00  0.000000D+00  0.000000D+00  0.000000D+00  0.000000D+00
      1b  0.000000D+00  0.000000D+00  0.000000D+00  0.000000D+00  0.000000D+00
      2a  0.000000D+00  0.000000D+00  0.000000D+00  0.000000D+00  0.000000D+00
      2b  0.000000D+00  0.000000D+00  0.000000D+00  0.000000D+00  0.000000D+00
      3a  0.000000D+00  0.000000D+00  0.000000D+00  0.000000D+00  0.000000D+00
      3b  0.000000D+00  0.000000D+00  0.000000D+00  0.000000D+00  0.000000D+00
      4a  0.000000D+00  0.000000D+00  0.000000D+00  0.000000D+00  0.000000D+00
      4b  0.000000D+00  0.000000D+00  0.000000D+00  0.000000D+00  0.000000D+00
      5a  0.000000D+00  0.000000D+00  0.000000D+00  0.000000D+00  0.000000D+00
      5b  0.000000D+00  0.000000D+00  0.000000D+00  0.000000D+00  0.000000D+00
      6a  0.000000D+00  0.000000D+00  0.000000D+00  0.000000D+00  0.000000D+00
      6b  0.000000D+00  0.000000D+00  0.000000D+00  0.000000D+00  0.000000D+00
      7a  0.000000D+00  0.000000D+00  0.000000D+00  0.000000D+00  0.000000D+00
      7b  0.000000D+00  0.000000D+00  0.000000D+00  0.000000D+00  0.000000D+00
      8a  0.000000D+00  0.000000D+00  0.000000D+00  0.000000D+00  0.000000D+00
      8b  0.000000D+00  0.000000D+00  0.000000D+00  0.000000D+00  0.000000D+00
      9a  0.000000D+00  0.000000D+00  0.000000D+00  0.000000D+00  0.000000D+00
      9b  0.000000D+00  0.000000D+00  0.000000D+00  0.000000D+00  0.000000D+00
     10a  0.000000D+00  0.000000D+00  0.000000D+00  0.000000D+00  0.000000D+00
     10b  0.000000D+00  0.000000D+00  0.000000D+00  0.000000D+00  0.000000D+00
                16            17            18            19            20 
      1a  0.000000D+00  0.000000D+00  0.000000D+00  0.000000D+00  0.000000D+00
      1b  0.000000D+00  0.000000D+00  0.000000D+00  0.000000D+00  0.000000D+00
      2a  0.000000D+00  0.000000D+00  0.000000D+00  0.000000D+00  0.000000D+00
      2b  0.000000D+00  0.000000D+00  0.000000D+00  0.000000D+00  0.000000D+00
      3a  0.000000D+00  0.000000D+00  0.000000D+00  0.000000D+00  0.000000D+00
      3b  0.000000D+00  0.000000D+00  0.000000D+00  0.000000D+00  0.000000D+00
      4a  0.000000D+00  0.000000D+00  0.000000D+00  0.000000D+00  0.000000D+00
      4b  0.000000D+00  0.000000D+00  0.000000D+00  0.000000D+00  0.000000D+00
      5a  0.000000D+00  0.000000D+00  0.000000D+00  0.000000D+00  0.000000D+00
      5b  0.000000D+00  0.000000D+00  0.000000D+00  0.000000D+00  0.000000D+00
      6a  0.000000D+00  0.000000D+00  0.000000D+00  0.000000D+00  0.000000D+00
      6b  0.000000D+00  0.000000D+00  0.000000D+00  0.000000D+00  0.000000D+00
      7a  0.000000D+00  0.000000D+00  0.000000D+00  0.000000D+00  0.000000D+00
      7b  0.000000D+00  0.000000D+00  0.000000D+00  0.000000D+00  0.000000D+00
      8a  0.000000D+00  0.000000D+00  0.000000D+00  0.000000D+00  0.000000D+00
      8b  0.000000D+00  0.000000D+00  0.000000D+00  0.000000D+00  0.000000D+00
      9a  0.000000D+00  0.000000D+00  0.000000D+00  0.000000D+00  0.000000D+00
      9b  0.000000D+00  0.000000D+00  0.000000D+00  0.000000D+00  0.000000D+00
     10a  0.000000D+00  0.000000D+00  0.000000D+00  0.000000D+00  0.000000D+00
     10b  0.000000D+00  0.000000D+00  0.000000D+00  0.000000D+00  0.000000D+00
FORTRAN STOP
