 Entering Gaussian System, Link 0=gdv
 AtFile(1): H.gbs
            H     0
            S   10   1.00
               1000.000000000000            0.000068713567
                316.227766000000            0.000169141320
                100.000000000000            0.000823394812
                 31.622776600000            0.003425569236
                 10.000000000000            0.013951996000
                  3.162277660000            0.056909313560
                  1.000000000000            0.198286399900
                  0.316227766000            0.496922426700
                  0.100000000000            0.369846276400
                  0.031622776600            0.003752720039
            ****
 Initial command:
 /users/lcj1/GHF_hess/exe-dir/l1.exe "/users/lcj1/GHF_hess/h10_2rows/follow25/follow45/fwd/Gau-8226.inp" -scrdir="/users/lcj1/GHF_hess/h10_2rows/follow25/follow45/fwd/"
 Entering Link 1 = /users/lcj1/GHF_hess/exe-dir/l1.exe PID=      8227.
  
 Copyright (c) 1988,1990,1992,1993,1995,1998,2003,2009,2012,
            Gaussian, Inc.  All Rights Reserved.
  
 This is the private, development version of
 the Gaussian(R) DV system of programs. It is based on
 the Gaussian(R) 09 system (copyright 2009, Gaussian, Inc.),
 the Gaussian(R) 03 system (copyright 2003, Gaussian, Inc.),
 the Gaussian(R) 98 system (copyright 1998, Gaussian, Inc.),
 the Gaussian(R) 94 system (copyright 1995, Gaussian, Inc.),
 the Gaussian 92(TM) system (copyright 1992, Gaussian, Inc.),
 the Gaussian 90(TM) system (copyright 1990, Gaussian, Inc.),
 the Gaussian 88(TM) system (copyright 1988, Gaussian, Inc.),
 the Gaussian 86(TM) system (copyright 1986, Carnegie Mellon
 University), and the Gaussian 82(TM) system (copyright 1983,
 Carnegie Mellon University). Gaussian is a federally registered
 trademark of Gaussian, Inc.
  
 This software contains proprietary and confidential information,
 including trade secrets, belonging to Gaussian, Inc.
  
 This software is provided under written license and may be
 used, copied, transmitted, or stored only in accord with that
 written license.
  
 The following legend is applicable only to US Government
 contracts under FAR:
  
                    RESTRICTED RIGHTS LEGEND
  
 Use, reproduction and disclosure by the US Government is
 subject to restrictions as set forth in subparagraphs (a)
 and (c) of the Commercial Computer Software - Restricted
 Rights clause in FAR 52.227-19.
  
 Gaussian, Inc.
 340 Quinnipiac St., Bldg. 40, Wallingford CT 06492
  
  
 ---------------------------------------------------------------
 Warning -- This program may not be used in any manner that
 competes with the business of Gaussian, Inc. or will provide
 assistance to any competitor of Gaussian, Inc.  The licensee
 of this program is prohibited from giving any competitor of
 Gaussian, Inc. access to this program.  By using this program,
 the user acknowledges that Gaussian, Inc. is engaged in the
 business of creating and licensing software in the field of
 computational chemistry and represents and warrants to the
 licensee that it is not a competitor of Gaussian, Inc. and that
 it will not use this program in any manner prohibited above.
 ---------------------------------------------------------------
  

 Cite this work as:
 Gaussian Development Version, Revision H.21,
 M. J. Frisch, G. W. Trucks, H. B. Schlegel, G. E. Scuseria, 
 M. A. Robb, J. R. Cheeseman, G. Scalmani, V. Barone, B. Mennucci, 
 G. A. Petersson, H. Nakatsuji, M. Caricato, X. Li, H. P. Hratchian, 
 A. F. Izmaylov, J. Bloino, G. Zheng, J. L. Sonnenberg, W. Liang, 
 M. Hada, M. Ehara, K. Toyota, R. Fukuda, J. Hasegawa, M. Ishida, 
 T. Nakajima, Y. Honda, O. Kitao, H. Nakai, T. Vreven, 
 J. A. Montgomery, Jr., J. E. Peralta, F. Ogliaro, M. Bearpark, 
 J. J. Heyd, E. Brothers, K. N. Kudin, V. N. Staroverov, T. Keith, 
 R. Kobayashi, J. Normand, K. Raghavachari, A. Rendell, J. C. Burant, 
 S. S. Iyengar, J. Tomasi, M. Cossi, N. Rega, J. M. Millam, M. Klene, 
 J. E. Knox, J. B. Cross, V. Bakken, C. Adamo, J. Jaramillo, 
 R. Gomperts, R. E. Stratmann, O. Yazyev, A. J. Austin, R. Cammi, 
 C. Pomelli, J. W. Ochterski, R. L. Martin, K. Morokuma, 
 V. G. Zakrzewski, G. A. Voth, P. Salvador, J. J. Dannenberg, 
 S. Dapprich, P. V. Parandekar, N. J. Mayhall, A. D. Daniels, 
 O. Farkas, J. B. Foresman, J. V. Ortiz, J. Cioslowski, 
 and D. J. Fox, Gaussian, Inc., Wallingford CT, 2010.
 
 ******************************************
 Gaussian DV:  EM64L-GDVRevH.21 13-May-2012
                28-Feb-2017 
 ******************************************
 %chk=h10.chk
 ----------------------------------------------------------------------
 #ghf/gen scf(tight,novaracc,noincfock,fulldiag) stable guess=read geom
 =nocrowd use=l802 use=l902 test
 ----------------------------------------------------------------------
 ********************************************
   THE COMPLEX ERI TRANSFORMATION WITH L802  
        COMPLEX STABILITY WITH L902          
 ********************************************
 1/38=1/1;
 2/12=1,17=6,18=5,40=1/2;
 3/5=7,16=1,25=20,28=1,116=7/1,2,3,20;
 4/5=1/1;
 5/5=100001,16=1,32=2,38=6/2;
 8/6=1,10=90,11=11/1,2;
 9/8=4,13=1/1,2;
 6/7=2,8=2,9=2,10=2,28=1/1;
 99/5=1,9=1/99;
 ----------------------------------------------------------------------
 hf stability analysis of h10 triangular lattice, y= 0.8955390333684565
 3 alpha= 54.250000000000000
 ----------------------------------------------------------------------
 Symbolic Z-Matrix:
 Charge =  0 Multiplicity = 1
 H
 H                    1     1.10346 
 H                    1     1.10346  2     71.5 
 H                    2     1.10346  1     108.5    3     0.       0
 H                    3     1.10346  1     180.     2     0.       0
 H                    4     1.10346  2     180.     1     0.       0
 H                    5     1.10346  3     180.     2     0.       0
 H                    6     1.10346  4     180.     1     0.       0
 H                    7     1.10346  5     180.     2     0.       0
 H                    8     1.10346  6     180.     1     0.       0
 
                          Input orientation:                          
 ---------------------------------------------------------------------
 Center     Atomic      Atomic             Coordinates (Angstroms)
 Number     Number       Type             X           Y           Z
 ---------------------------------------------------------------------
      1          1           0        0.000000    0.000000    0.000000
      2          1           0        0.000000    0.000000    1.103459
      3          1           0        1.046437    0.000000    0.350133
      4          1           0        1.046437    0.000000    1.453592
      5          1           0        2.092873    0.000000    0.700266
      6          1           0        2.092873    0.000000    1.803725
      7          1           0        3.139310    0.000000    1.050399
      8          1           0        3.139310    0.000000    2.153858
      9          1           0        4.185747    0.000000    1.400531
     10          1           0        4.185747    0.000000    2.503991
 ---------------------------------------------------------------------
                    Distance matrix (angstroms):
                    1          2          3          4          5
     1  H    0.000000
     2  H    1.103459   0.000000
     3  H    1.103459   1.289392   0.000000
     4  H    1.791078   1.103459   1.103459   0.000000
     5  H    2.206919   2.131357   1.103459   1.289392   0.000000
     6  H    2.762887   2.206919   1.791078   1.103459   1.103459
     7  H    3.310378   3.139759   2.206919   2.131357   1.103459
     8  H    3.807148   3.310378   2.762887   2.206919   1.791078
     9  H    4.413838   4.196276   3.310378   3.139759   2.206919
    10  H    4.877545   4.413838   3.807148   3.310378   2.762887
                    6          7          8          9         10
     6  H    0.000000
     7  H    1.289392   0.000000
     8  H    1.103459   1.103459   0.000000
     9  H    2.131357   1.103459   1.289392   0.000000
    10  H    2.206919   1.791078   1.103459   1.103459   0.000000
 Stoichiometry    H10
 Framework group  C2H[SGH(H10)]
 Deg. of freedom     9
 Full point group                 C2H     NOp   4
 Largest Abelian subgroup         C2H     NOp   4
 Largest concise Abelian subgroup C2      NOp   2
                         Standard orientation:                         
 ---------------------------------------------------------------------
 Center     Atomic      Atomic             Coordinates (Angstroms)
 Number     Number       Type             X           Y           Z
 ---------------------------------------------------------------------
      1          1           0        2.092873    1.251995    0.000000
      2          1           0        2.092873    0.148536    0.000000
      3          1           0        1.046437    0.901863    0.000000
      4          1           0        1.046437   -0.201597    0.000000
      5          1           0        0.000000    0.551730    0.000000
      6          1           0        0.000000   -0.551730    0.000000
      7          1           0       -1.046437    0.201597    0.000000
      8          1           0       -1.046437   -0.901863    0.000000
      9          1           0       -2.092873   -0.148536    0.000000
     10          1           0       -2.092873   -1.251995    0.000000
 ---------------------------------------------------------------------
 Rotational constants (GHZ):    185.7676505     20.3041713     18.3036097
 General basis read from cards:  (5D, 7F)
 There are     5 symmetry adapted cartesian basis functions of AG  symmetry.
 There are     0 symmetry adapted cartesian basis functions of BG  symmetry.
 There are     0 symmetry adapted cartesian basis functions of AU  symmetry.
 There are     5 symmetry adapted cartesian basis functions of BU  symmetry.
 There are     5 symmetry adapted basis functions of AG  symmetry.
 There are     0 symmetry adapted basis functions of BG  symmetry.
 There are     0 symmetry adapted basis functions of AU  symmetry.
 There are     5 symmetry adapted basis functions of BU  symmetry.
    10 basis functions,   100 primitive gaussians,    10 cartesian basis functions
     5 alpha electrons        5 beta electrons
       nuclear repulsion energy        13.5447381081 Hartrees.
 NAtoms=   10 NActive=   10 NUniq=    5 SFac= 4.00D+00 NAtFMM=   60 NAOKFM=F Big=F
 Integral buffers will be    131072 words long.
 Regular integral format.
 Two-electron integral symmetry is turned off.
 One-electron integrals computed using PRISM.
 NBasis=    10 RedAO= T EigKep=  1.47D-01  NBF=     5     0     0     5
 NBsUse=    10 1.00D-06 EigRej= -1.00D+00 NBFU=     5     0     0     5
 IOp(28)                       1
                        1                       0
                        2                       1
                        3                       1
                        4                      20
                        5                       0
                        6                       0
                        7                      10
                        8                       1
                        9                       4
                       10                       0
                       11              1073741824
                       12                      20
                       13                       2
                       14                  131070
                       15                       1
                       16                       1
                       17                  131073
                       18                       0
                       19                       0
                       20                       0
                       21                       2
                       22                  131070
                       23                       0
                       24                       0
                       25                       0
                       26                       0
                       27                   65535
                       28                       2
                       29                  131072
                       30                       0
 IHMeth                       1
 ib3: ISMode =                        0                       4
 Enter DskPsm, NBasis=  10 NBas6D=  10 NShell=  10 IDoSP=4.
 Out2e will use a cutoff of  1.00D-10
 FoFCou: FMM=F IPFlag=           0 FMFlag=           0 FMFlg1=           0
         NFxFlg=           0 DoJE=F BraDBF=F KetDBF=F FulRan=T
         wScrn=  0.000000 ICntrl=     600 IOpCl=  9 I1Cent=           0 NGrid=           0
         NMat0=    0 NMatS0=      0 NMatT0=    0 NMatD0=    0 NMtDS0=    0 NMtDT0=    0
 Symmetry not used in FoFCou.
 Entering PrmDigJobTyp =                      20
 LenSav and NKeep                       0                       0
 Entered Stor2E with KNTT1,2                       2                  131070
 Leave Stor2X
 Entering PrmDigJobTyp =                      20
 LenSav and NKeep                       0                       0
 Entered Stor2E with KNTT1,2                       2                  131056
 Leave Stor2X
 Entering PrmDigJobTyp =                      20
 LenSav and NKeep                       0                       0
 Entered Stor2E with KNTT1,2                       2                  131042
 Leave Stor2X
 Entering PrmDigJobTyp =                      20
 LenSav and NKeep                       0                       0
 Entered Stor2E with KNTT1,2                       2                  131028
 Leave Stor2X
 Entering PrmDigJobTyp =                      20
 LenSav and NKeep                       0                       0
 Entered Stor2E with KNTT1,2                       2                  131014
 Leave Stor2X
 Entering PrmDigJobTyp =                      20
 LenSav and NKeep                       0                       0
 Entered Stor2E with KNTT1,2                       2                  131000
 Leave Stor2X
 Entering PrmDigJobTyp =                      20
 LenSav and NKeep                       0                       0
 Entered Stor2E with KNTT1,2                       2                  130986
 Leave Stor2X
 Entering PrmDigJobTyp =                      20
 LenSav and NKeep                       0                       0
 Entered Stor2E with KNTT1,2                       2                  130972
 Leave Stor2X
 Entering PrmDigJobTyp =                      20
 LenSav and NKeep                       0                       0
 Entered Stor2E with KNTT1,2                       2                  130960
 Leave Stor2X
 Entering PrmDigJobTyp =                      20
 LenSav and NKeep                       0                       0
 Entered Stor2E with KNTT1,2                       2                  130946
 Leave Stor2X
 Entering PrmDigJobTyp =                      20
 LenSav and NKeep                       0                       0
 Entered Stor2E with KNTT1,2                       2                  130932
 Leave Stor2X
 Entering PrmDigJobTyp =                      20
 LenSav and NKeep                       0                       0
 Entered Stor2E with KNTT1,2                       2                  130918
 Leave Stor2X
 Entering PrmDigJobTyp =                      20
 LenSav and NKeep                       0                       0
 Entered Stor2E with KNTT1,2                       2                  130904
 Leave Stor2X
 Entering PrmDigJobTyp =                      20
 LenSav and NKeep                       0                       0
 Entered Stor2E with KNTT1,2                       2                  130890
 Leave Stor2X
 Entering PrmDigJobTyp =                      20
 LenSav and NKeep                       0                       0
 Entered Stor2E with KNTT1,2                       2                  130876
 Leave Stor2X
 Entering PrmDigJobTyp =                      20
 LenSav and NKeep                       0                       0
 Entered Stor2E with KNTT1,2                       2                  130862
 Leave Stor2X
 Entering PrmDigJobTyp =                      20
 LenSav and NKeep                       0                       0
 Entered Stor2E with KNTT1,2                       2                  130848
 Leave Stor2X
 Entering PrmDigJobTyp =                      20
 LenSav and NKeep                       0                       0
 Entered Stor2E with KNTT1,2                       2                  130834
 Leave Stor2X
 Entering PrmDigJobTyp =                      20
 LenSav and NKeep                       0                       0
 Entered Stor2E with KNTT1,2                       2                  130820
 Leave Stor2X
 Entering PrmDigJobTyp =                      20
 LenSav and NKeep                       0                       0
 Entered Stor2E with KNTT1,2                       2                  130806
 Leave Stor2X
 Entering PrmDigJobTyp =                      20
 LenSav and NKeep                       0                       0
 Entered Stor2E with KNTT1,2                       2                  130792
 Leave Stor2X
 Entering PrmDigJobTyp =                      20
 LenSav and NKeep                       0                       0
 Entered Stor2E with KNTT1,2                       2                  130778
 Leave Stor2X
 Entering PrmDigJobTyp =                      20
 LenSav and NKeep                       0                       0
 Entered Stor2E with KNTT1,2                       2                  130764
 Leave Stor2X
 Entering PrmDigJobTyp =                      20
 LenSav and NKeep                       0                       0
 Entered Stor2E with KNTT1,2                       2                  130750
 Leave Stor2X
 Entering PrmDigJobTyp =                      20
 LenSav and NKeep                       0                       0
 Entered Stor2E with KNTT1,2                       2                  130736
 Leave Stor2X
 Entering PrmDigJobTyp =                      20
 LenSav and NKeep                       0                       0
 Entered Stor2E with KNTT1,2                       2                  130722
 Leave Stor2X
 Entering PrmDigJobTyp =                      20
 LenSav and NKeep                       0                       0
 Entered Stor2E with KNTT1,2                       2                  130708
 Leave Stor2X
 Entering PrmDigJobTyp =                      20
 LenSav and NKeep                       0                       0
 Entered Stor2E with KNTT1,2                       2                  130700
 Leave Stor2X
 Entering PrmDigJobTyp =                      20
 LenSav and NKeep                       0                       0
 Entered Stor2E with KNTT1,2                       6                  130684
 Leave Stor2X
 Entering PrmDigJobTyp =                      20
 LenSav and NKeep                       0                       0
 Entered Stor2E with KNTT1,2                      16                  130674
 Leave Stor2X
 Entering PrmDigJobTyp =                      20
 LenSav and NKeep                       0                       0
 Entered Stor2E with KNTT1,2                      28                  130666
 Leave Stor2X
 Entering PrmDigJobTyp =                      20
 LenSav and NKeep                       0                       0
 Entered Stor2E with KNTT1,2                      42                  130660
 Leave Stor2X
 Entering PrmDigJobTyp =                      20
 LenSav and NKeep                       0                       0
 Entered Stor2E with KNTT1,2                      56                  130654
 Leave Stor2X
 Entering PrmDigJobTyp =                      20
 LenSav and NKeep                       0                       0
 Entered Stor2E with KNTT1,2                      70                  130648
 Leave Stor2X
 Entering PrmDigJobTyp =                      20
 LenSav and NKeep                       0                       0
 Entered Stor2E with KNTT1,2                      84                  130642
 Leave Stor2X
 Entering PrmDigJobTyp =                      20
 LenSav and NKeep                       0                       0
 Entered Stor2E with KNTT1,2                      98                  130636
 Leave Stor2X
 Entering PrmDigJobTyp =                      20
 LenSav and NKeep                       0                       0
 Entered Stor2E with KNTT1,2                     114                  130632
 Leave Stor2X
 Entering PrmDigJobTyp =                      20
 LenSav and NKeep                       0                       0
 Entered Stor2E with KNTT1,2                     114                  130630
 Leave Stor2X
 Entering PrmDigJobTyp =                      20
 LenSav and NKeep                       0                       0
 Entered Stor2E with KNTT1,2                     114                  130616
 Leave Stor2X
 Entering PrmDigJobTyp =                      20
 LenSav and NKeep                       0                       0
 Entered Stor2E with KNTT1,2                     114                  130602
 Leave Stor2X
 Entering PrmDigJobTyp =                      20
 LenSav and NKeep                       0                       0
 Entered Stor2E with KNTT1,2                     114                  130588
 Leave Stor2X
 Entering PrmDigJobTyp =                      20
 LenSav and NKeep                       0                       0
 Entered Stor2E with KNTT1,2                     114                  130574
 Leave Stor2X
 Entering PrmDigJobTyp =                      20
 LenSav and NKeep                       0                       0
 Entered Stor2E with KNTT1,2                     114                  130560
 Leave Stor2X
 Entering PrmDigJobTyp =                      20
 LenSav and NKeep                       0                       0
 Entered Stor2E with KNTT1,2                     114                  130550
 Leave Stor2X
 Entering PrmDigJobTyp =                      20
 LenSav and NKeep                       0                       0
 Entered Stor2E with KNTT1,2                     124                  130540
 Leave Stor2X
 Entering PrmDigJobTyp =                      20
 LenSav and NKeep                       0                       0
 Entered Stor2E with KNTT1,2                     134                  130530
 Leave Stor2X
 Entering PrmDigJobTyp =                      20
 LenSav and NKeep                       0                       0
 Entered Stor2E with KNTT1,2                     152                  130528
 Leave Stor2X
 Entering PrmDigJobTyp =                      20
 LenSav and NKeep                       0                       0
 Entered Stor2E with KNTT1,2                     160                  130516
 Leave Stor2X
 Entering PrmDigJobTyp =                      20
 LenSav and NKeep                       0                       0
 Entered Stor2E with KNTT1,2                     174                  130510
 Leave Stor2X
 Entering PrmDigJobTyp =                      20
 LenSav and NKeep                       0                       0
 Entered Stor2E with KNTT1,2                     174                  130506
 Leave Stor2X
 Entering PrmDigJobTyp =                      20
 LenSav and NKeep                       0                       0
 Entered Stor2E with KNTT1,2                     186                  130498
 Leave Stor2X
 Entering PrmDigJobTyp =                      20
 LenSav and NKeep                       0                       0
 Entered Stor2E with KNTT1,2                     186                  130482
 Leave Stor2X
 Entering PrmDigJobTyp =                      20
 LenSav and NKeep                       0                       0
 Entered Stor2E with KNTT1,2                     186                  130466
 Leave Stor2X
 Entering PrmDigJobTyp =                      20
 LenSav and NKeep                       0                       0
 Entered Stor2E with KNTT1,2                     186                  130450
 Leave Stor2X
 Entering PrmDigJobTyp =                      20
 LenSav and NKeep                       0                       0
 Entered Stor2E with KNTT1,2                     186                  130434
 Leave Stor2X
 Entering PrmDigJobTyp =                      20
 LenSav and NKeep                       0                       0
 Entered Stor2E with KNTT1,2                     186                  130418
 Leave Stor2X
 Entering PrmDigJobTyp =                      20
 LenSav and NKeep                       0                       0
 Entered Stor2E with KNTT1,2                     186                  130402
 Leave Stor2X
 Entering PrmDigJobTyp =                      20
 LenSav and NKeep                       0                       0
 Entered Stor2E with KNTT1,2                     186                  130386
 Leave Stor2X
 Entering PrmDigJobTyp =                      20
 LenSav and NKeep                       0                       0
 Entered Stor2E with KNTT1,2                     186                  130370
 Leave Stor2X
 Entering PrmDigJobTyp =                      20
 LenSav and NKeep                       0                       0
 Entered Stor2E with KNTT1,2                     186                  130358
 Leave Stor2X
 Entering PrmDigJobTyp =                      20
 LenSav and NKeep                       0                       0
 Entered Stor2E with KNTT1,2                     198                  130348
 Leave Stor2X
 Entering PrmDigJobTyp =                      20
 LenSav and NKeep                       0                       0
 Entered Stor2E with KNTT1,2                     210                  130338
 Leave Stor2X
 Entering PrmDigJobTyp =                      20
 LenSav and NKeep                       0                       0
 Entered Stor2E with KNTT1,2                     222                  130328
 Leave Stor2X
 Entering PrmDigJobTyp =                      20
 LenSav and NKeep                       0                       0
 Entered Stor2E with KNTT1,2                     238                  130322
 Leave Stor2X
 Entering PrmDigJobTyp =                      20
 LenSav and NKeep                       0                       0
 Entered Stor2E with KNTT1,2                     252                  130314
 Leave Stor2X
 Entering PrmDigJobTyp =                      20
 LenSav and NKeep                       0                       0
 Entered Stor2E with KNTT1,2                     262                  130302
 Leave Stor2X
 Entering PrmDigJobTyp =                      20
 LenSav and NKeep                       0                       0
 Entered Stor2E with KNTT1,2                     276                  130294
 Leave Stor2X
 Entering PrmDigJobTyp =                      20
 LenSav and NKeep                       0                       0
 Entered Stor2E with KNTT1,2                     292                  130288
 Leave Stor2X
 Entering PrmDigJobTyp =                      20
 LenSav and NKeep                       0                       0
 Entered Stor2E with KNTT1,2                     292                  130282
 Leave Stor2X
 Entering PrmDigJobTyp =                      20
 LenSav and NKeep                       0                       0
 Entered Stor2E with KNTT1,2                     306                  130272
 Leave Stor2X
 Entering PrmDigJobTyp =                      20
 LenSav and NKeep                       0                       0
 Entered Stor2E with KNTT1,2                     318                  130260
 Leave Stor2X
 Entering PrmDigJobTyp =                      20
 LenSav and NKeep                       0                       0
 Entered Stor2E with KNTT1,2                     324                  130258
 Leave Stor2X
 Entering PrmDigJobTyp =                      20
 LenSav and NKeep                       0                       0
 Entered Stor2E with KNTT1,2                     338                  130246
 Leave Stor2X
 Entering PrmDigJobTyp =                      20
 LenSav and NKeep                       0                       0
 Entered Stor2E with KNTT1,2                     356                  130238
 Leave Stor2X
 Entering PrmDigJobTyp =                      20
 LenSav and NKeep                       0                       0
 Entered Stor2E with KNTT1,2                     358                  130236
 Leave Stor2X
 Entering PrmDigJobTyp =                      20
 LenSav and NKeep                       0                       0
 Entered Stor2E with KNTT1,2                     358                  130218
 Leave Stor2X
 Entering PrmDigJobTyp =                      20
 LenSav and NKeep                       0                       0
 Entered Stor2E with KNTT1,2                     358                  130200
 Leave Stor2X
 Entering PrmDigJobTyp =                      20
 LenSav and NKeep                       0                       0
 Entered Stor2E with KNTT1,2                     358                  130182
 Leave Stor2X
 Entering PrmDigJobTyp =                      20
 LenSav and NKeep                       0                       0
 Entered Stor2E with KNTT1,2                     358                  130164
 Leave Stor2X
 Entering PrmDigJobTyp =                      20
 LenSav and NKeep                       0                       0
 Entered Stor2E with KNTT1,2                     358                  130146
 Leave Stor2X
 Entering PrmDigJobTyp =                      20
 LenSav and NKeep                       0                       0
 Entered Stor2E with KNTT1,2                     358                  130128
 Leave Stor2X
 Entering PrmDigJobTyp =                      20
 LenSav and NKeep                       0                       0
 Entered Stor2E with KNTT1,2                     358                  130116
 Leave Stor2X
 Entering PrmDigJobTyp =                      20
 LenSav and NKeep                       0                       0
 Entered Stor2E with KNTT1,2                     370                  130106
 Leave Stor2X
 Entering PrmDigJobTyp =                      20
 LenSav and NKeep                       0                       0
 Entered Stor2E with KNTT1,2                     382                  130096
 Leave Stor2X
 Entering PrmDigJobTyp =                      20
 LenSav and NKeep                       0                       0
 Entered Stor2E with KNTT1,2                     398                  130090
 Leave Stor2X
 Entering PrmDigJobTyp =                      20
 LenSav and NKeep                       0                       0
 Entered Stor2E with KNTT1,2                     410                  130080
 Leave Stor2X
 Entering PrmDigJobTyp =                      20
 LenSav and NKeep                       0                       0
 Entered Stor2E with KNTT1,2                     424                  130072
 Leave Stor2X
 Entering PrmDigJobTyp =                      20
 LenSav and NKeep                       0                       0
 Entered Stor2E with KNTT1,2                     436                  130062
 Leave Stor2X
 Entering PrmDigJobTyp =                      20
 LenSav and NKeep                       0                       0
 Entered Stor2E with KNTT1,2                     450                  130054
 Leave Stor2X
 Entering PrmDigJobTyp =                      20
 LenSav and NKeep                       0                       0
 Entered Stor2E with KNTT1,2                     450                  130052
 Leave Stor2X
 Entering PrmDigJobTyp =                      20
 LenSav and NKeep                       0                       0
 Entered Stor2E with KNTT1,2                     464                  130042
 Leave Stor2X
 Entering PrmDigJobTyp =                      20
 LenSav and NKeep                       0                       0
 Entered Stor2E with KNTT1,2                     478                  130032
 Leave Stor2X
 Entering PrmDigJobTyp =                      20
 LenSav and NKeep                       0                       0
 Entered Stor2E with KNTT1,2                     492                  130020
 Leave Stor2X
 Entering PrmDigJobTyp =                      20
 LenSav and NKeep                       0                       0
 Entered Stor2E with KNTT1,2                     506                  130008
 Leave Stor2X
 Entering PrmDigJobTyp =                      20
 LenSav and NKeep                       0                       0
 Entered Stor2E with KNTT1,2                     524                  130000
 Leave Stor2X
 Entering PrmDigJobTyp =                      20
 LenSav and NKeep                       0                       0
 Entered Stor2E with KNTT1,2                     526                  129996
 Leave Stor2X
 Entering PrmDigJobTyp =                      20
 LenSav and NKeep                       0                       0
 Entered Stor2E with KNTT1,2                     544                  129986
 Leave Stor2X
 Entering PrmDigJobTyp =                      20
 LenSav and NKeep                       0                       0
 Entered Stor2E with KNTT1,2                     552                  129980
 Leave Stor2X
 Entering PrmDigJobTyp =                      20
 LenSav and NKeep                       0                       0
 Entered Stor2E with KNTT1,2                     552                  129960
 Leave Stor2X
 Entering PrmDigJobTyp =                      20
 LenSav and NKeep                       0                       0
 Entered Stor2E with KNTT1,2                     552                  129940
 Leave Stor2X
 Entering PrmDigJobTyp =                      20
 LenSav and NKeep                       0                       0
 Entered Stor2E with KNTT1,2                     552                  129920
 Leave Stor2X
 Entering PrmDigJobTyp =                      20
 LenSav and NKeep                       0                       0
 Entered Stor2E with KNTT1,2                     568                  129910
 Leave Stor2X
 Entering PrmDigJobTyp =                      20
 LenSav and NKeep                       0                       0
 Entered Stor2E with KNTT1,2                     582                  129898
 Leave Stor2X
 Entering PrmDigJobTyp =                      20
 LenSav and NKeep                       0                       0
 Entered Stor2E with KNTT1,2                     598                  129888
 Leave Stor2X
 Entering PrmDigJobTyp =                      20
 LenSav and NKeep                       0                       0
 Entered Stor2E with KNTT1,2                     614                  129880
 Leave Stor2X
 Entering PrmDigJobTyp =                      20
 LenSav and NKeep                       0                       0
 Entered Stor2E with KNTT1,2                     634                  129870
 Leave Stor2X
 Entering PrmDigJobTyp =                      20
 LenSav and NKeep                       0                       0
 Entered Stor2E with KNTT1,2                     640                  129864
 Leave Stor2X
 Entering PrmDigJobTyp =                      20
 LenSav and NKeep                       0                       0
 Entered Stor2E with KNTT1,2                     660                  129852
 Leave Stor2X
 Entering PrmDigJobTyp =                      20
 LenSav and NKeep                       0                       0
 Entered Stor2E with KNTT1,2                     660                  129848
 Leave Stor2X
 Entering PrmDigJobTyp =                      20
 LenSav and NKeep                       0                       0
 Entered Stor2E with KNTT1,2                     666                  129842
 Leave Stor2X
 Entering PrmDigJobTyp =                      20
 LenSav and NKeep                       0                       0
 Entered Stor2E with KNTT1,2                     666                  129820
 Leave Stor2X
 Entering PrmDigJobTyp =                      20
 LenSav and NKeep                       0                       0
 Entered Stor2E with KNTT1,2                     666                  129798
 Leave Stor2X
 Entering PrmDigJobTyp =                      20
 LenSav and NKeep                       0                       0
 Entered Stor2E with KNTT1,2                     666                  129776
 Leave Stor2X
 Entering PrmDigJobTyp =                      20
 LenSav and NKeep                       0                       0
 Entered Stor2E with KNTT1,2                     666                  129754
 Leave Stor2X
 Entering PrmDigJobTyp =                      20
 LenSav and NKeep                       0                       0
 Entered Stor2E with KNTT1,2                     666                  129732
 Leave Stor2X
 Entering PrmDigJobTyp =                      20
 LenSav and NKeep                       0                       0
 Entered Stor2E with KNTT1,2                     666                  129710
 Leave Stor2X
 Entering PrmDigJobTyp =                      20
 LenSav and NKeep                       0                       0
 Entered Stor2E with KNTT1,2                     666                  129688
 Leave Stor2X
 Entering PrmDigJobTyp =                      20
 LenSav and NKeep                       0                       0
 Entered Stor2E with KNTT1,2                     666                  129682
 Leave Stor2X
 Entering PrmDigJobTyp =                      20
 LenSav and NKeep                       0                       0
 Entered Stor2E with KNTT1,2                     682                  129670
 Leave Stor2X
 Entering PrmDigJobTyp =                      20
 LenSav and NKeep                       0                       0
 Entered Stor2E with KNTT1,2                     698                  129658
 Leave Stor2X
 Entering PrmDigJobTyp =                      20
 LenSav and NKeep                       0                       0
 Entered Stor2E with KNTT1,2                     716                  129648
 Leave Stor2X
 Entering PrmDigJobTyp =                      20
 LenSav and NKeep                       0                       0
 Entered Stor2E with KNTT1,2                     734                  129638
 Leave Stor2X
 Entering PrmDigJobTyp =                      20
 LenSav and NKeep                       0                       0
 Entered Stor2E with KNTT1,2                     752                  129628
 Leave Stor2X
 Entering PrmDigJobTyp =                      20
 LenSav and NKeep                       0                       0
 Entered Stor2E with KNTT1,2                     768                  129616
 Leave Stor2X
 Entering PrmDigJobTyp =                      20
 LenSav and NKeep                       0                       0
 Entered Stor2E with KNTT1,2                     786                  129606
 Leave Stor2X
 Entering PrmDigJobTyp =                      20
 LenSav and NKeep                       0                       0
 Entered Stor2E with KNTT1,2                     794                  129602
 Leave Stor2X
 Entering PrmDigJobTyp =                      20
 LenSav and NKeep                       0                       0
 Entered Stor2E with KNTT1,2                     814                  129592
 Leave Stor2X
 Entering PrmDigJobTyp =                      20
 LenSav and NKeep                       0                       0
 Entered Stor2E with KNTT1,2                     830                  129578
 Leave Stor2X
 Entering PrmDigJobTyp =                      20
 LenSav and NKeep                       0                       0
 Entered Stor2E with KNTT1,2                     834                  129578
 Leave Stor2X
 Entering PrmDigJobTyp =                      20
 LenSav and NKeep                       0                       0
 Entered Stor2E with KNTT1,2                     854                  129564
 Leave Stor2X
 Entering PrmDigJobTyp =                      20
 LenSav and NKeep                       0                       0
 Entered Stor2E with KNTT1,2                     878                  129554
 Leave Stor2X
 Entering PrmDigJobTyp =                      20
 LenSav and NKeep                       0                       0
 Entered Stor2E with KNTT1,2                     900                  129542
 Leave Stor2X
 Entering PrmDigJobTyp =                      20
 LenSav and NKeep                       0                       0
 Entered Stor2E with KNTT1,2                     906                  129538
 Leave Stor2X
 Entering PrmDigJobTyp =                      20
 LenSav and NKeep                       0                       0
 Entered Stor2E with KNTT1,2                     928                  129526
 Leave Stor2X
 Entering PrmDigJobTyp =                      20
 LenSav and NKeep                       0                       0
 Entered Stor2E with KNTT1,2                     952                  129516
 Leave Stor2X
 Entering PrmDigJobTyp =                      20
 LenSav and NKeep                       0                       0
 Entered Stor2E with KNTT1,2                     970                  129506
 Leave Stor2X
 Entering PrmDigJobTyp =                      20
 LenSav and NKeep                       0                       0
 Entered Stor2E with KNTT1,2                     998                  129496
 Leave Stor2X
 Entering PrmDigJobTyp =                      20
 LenSav and NKeep                       0                       0
 Entered Stor2E with KNTT1,2                    1002                  129490
 Leave Stor2X
 Entering PrmDigJobTyp =                      20
 LenSav and NKeep                       0                       0
 Entered Stor2E with KNTT1,2                    1022                  129468
 Leave Stor2X
 Entering PrmDigJobTyp =                      20
 LenSav and NKeep                       0                       0
 Entered Stor2E with KNTT1,2                    1042                  129458
 Leave Stor2X
 Entering PrmDigJobTyp =                      20
 LenSav and NKeep                       0                       0
 Entered Stor2E with KNTT1,2                    1042                  129434
 Leave Stor2X
 Entering PrmDigJobTyp =                      20
 LenSav and NKeep                       0                       0
 Entered Stor2E with KNTT1,2                    1042                  129418
 Leave Stor2X
 Entering PrmDigJobTyp =                      20
 LenSav and NKeep                       0                       0
 Entered Stor2E with KNTT1,2                    1064                  129406
 Leave Stor2X
 Entering PrmDigJobTyp =                      20
 LenSav and NKeep                       0                       0
 Entered Stor2E with KNTT1,2                    1078                  129402
 Leave Stor2X
 Entering PrmDigJobTyp =                      20
 LenSav and NKeep                       0                       0
 Entered Stor2E with KNTT1,2                    1090                  129398
 Leave Stor2X
 Entering PrmDigJobTyp =                      20
 LenSav and NKeep                       0                       0
 Entered Stor2E with KNTT1,2                    1110                  129390
 Leave Stor2X
 Entering PrmDigJobTyp =                      20
 LenSav and NKeep                       0                       0
 Entered Stor2E with KNTT1,2                    1126                  129382
 Leave Stor2X
 Entering PrmDigJobTyp =                      20
 LenSav and NKeep                       0                       0
 Entered Stor2E with KNTT1,2                    1134                  129378
 Leave Stor2X
 Entering PrmDigJobTyp =                      20
 LenSav and NKeep                       0                       0
 Entered Stor2E with KNTT1,2                    1150                  129362
 Leave Stor2X
 Entering PrmDigJobTyp =                      20
 LenSav and NKeep                       0                       0
 Entered Stor2E with KNTT1,2                    1152                  129358
 Leave Stor2X
 Entering PrmDigJobTyp =                      20
 LenSav and NKeep                       0                       0
 Entered Stor2E with KNTT1,2                    1152                  129338
 Leave Stor2X
 Entering PrmDigJobTyp =                      20
 LenSav and NKeep                       0                       0
 Entered Stor2E with KNTT1,2                    1170                  129330
 Leave Stor2X
 Entering PrmDigJobTyp =                      20
 LenSav and NKeep                       0                       0
 Entered Stor2E with KNTT1,2                    1174                  129326
 Leave Stor2X
 Entering PrmDigJobTyp =                      20
 LenSav and NKeep                       0                       0
 Entered Stor2E with KNTT1,2                    1184                  129322
 Leave Stor2X
 Entering PrmDigJobTyp =                      20
 LenSav and NKeep                       0                       0
 Entered Stor2E with KNTT1,2                    1192                  129318
 Leave Stor2X
 Entering PrmDigJobTyp =                      20
 LenSav and NKeep                       0                       0
 Entered Stor2E with KNTT1,2                    1198                  129318
 Leave Stor2X
 Entering PrmDigJobTyp =                      20
 LenSav and NKeep                       0                       0
 Entered Stor2E with KNTT1,2                    1206                  129310
 Leave Stor2X
 Entering PrmDigJobTyp =                      20
 LenSav and NKeep                       0                       0
 Entered Stor2E with KNTT1,2                    1206                  129306
 Leave Stor2X
 Entering PrmDigJobTyp =                      20
 LenSav and NKeep                       0                       0
 Entered Stor2E with KNTT1,2                    1206                  129304
 Leave Stor2X
 Entering PrmDigJobTyp =                      20
 LenSav and NKeep                       0                       0
 Entered Stor2E with KNTT1,2                    1206                  129284
 Leave Stor2X
 Entering PrmDigJobTyp =                      20
 LenSav and NKeep                       0                       0
 Entered Stor2E with KNTT1,2                    1224                  129276
 Leave Stor2X
 Entering PrmDigJobTyp =                      20
 LenSav and NKeep                       0                       0
 Entered Stor2E with KNTT1,2                    1232                  129276
 Leave Stor2X
 Entering PrmDigJobTyp =                      20
 LenSav and NKeep                       0                       0
 Entered Stor2E with KNTT1,2                    1242                  129272
 Leave Stor2X
 Entering PrmDigJobTyp =                      20
 LenSav and NKeep                       0                       0
 Entered Stor2E with KNTT1,2                    1250                  129268
 Leave Stor2X
 Entering PrmDigJobTyp =                      20
 LenSav and NKeep                       0                       0
 Entered Stor2E with KNTT1,2                    1252                  129264
 Leave Stor2X
 Entering PrmDigJobTyp =                      20
 LenSav and NKeep                       0                       0
 Entered Stor2E with KNTT1,2                    1260                  129256
 Leave Stor2X
 Entering PrmDigJobTyp =                      20
 LenSav and NKeep                       0                       0
 Entered Stor2E with KNTT1,2                    1260                  129252
 Leave Stor2X
 Entering PrmDigJobTyp =                      20
 LenSav and NKeep                       0                       0
 Entered Stor2E with KNTT1,2                    1262                  129252
 Leave Stor2X
 In PrSumR
 Called IWRITE
         1540 integrals produced for a total of         1540.
 Initial guess from the checkpoint file:  "h10.chk"
 B after Tr=     0.000000    0.000000    0.000000
         Rot=    0.967469    0.000000    0.000000    0.252990 Ang=  29.31 deg.
 Initial guess <Sx>= 0.0000 <Sy>= 0.0000 <Sz>= 0.0000 <S**2>= 0.0000 S= 0.0000
 Two-electron integrals will be kept in memory, NGetB=      152788.
 Requested convergence on RMS density matrix=1.00D-08 within 128 cycles.
 Requested convergence on MAX density matrix=1.00D-06.
 Requested convergence on             energy=1.00D-06.
 No special actions if energy rises.
 Density File Not Found. Continue as usual
 SCF Done:  E(GHF) =  -4.85891117309     A.U. after   11 cycles
            NFock= 11  Conv=0.47D-08     -V/T= 1.9407
 <Sx>= 0.0000 <Sy>= 0.0000 <Sz>= 0.0000 <S**2>= 0.0000 S= 0.0000
 <L.S>= 0.000000000000E+00
 Range of M.O.s used for correlation:     1    10
 NBasis=    10 NAE=    10 NBE=     0 NFC=     0 NFV=     0
 NROrb=     20 NOA=    10 NOB=     0 NVA=    10 NVB=     0
 jaja DoHack is true or false? T
 jaja in hckghf.F, NBasis=                      10
 jaja in hckGHF/FixOG, LC =                      800
 jaja in hckGHF/FixOG, IRwC=                      548
 bfr conversion (real):
                 1             2             3             4             5 
      1a  0.451189D-01  0.352457D-01  0.174883D+00  0.159439D-02  0.334854D-01
      1b -0.352457D-01  0.451189D-01 -0.159439D-02  0.174883D+00  0.387773D+00
      2a  0.758275D-01  0.592346D-01  0.228679D+00  0.208485D-02  0.313481D-01
      2b -0.592346D-01  0.758275D-01 -0.208485D-02  0.228679D+00  0.363023D+00
      3a  0.156019D+00  0.121878D+00  0.287257D+00  0.261890D-02  0.656394D-02
      3b -0.121878D+00  0.156019D+00 -0.261890D-02  0.287257D+00  0.760129D-01
      4a  0.168438D+00  0.131580D+00  0.236257D+00  0.215394D-02 -0.106689D-01
      4b -0.131580D+00  0.168438D+00 -0.215394D-02  0.236257D+00 -0.123550D+00
      5a  0.167447D+00  0.130805D+00  0.599436D-01  0.546501D-03 -0.287714D-01
      5b -0.130805D+00  0.167447D+00 -0.546501D-03  0.599436D-01 -0.333183D+00
      6a  0.167447D+00  0.130805D+00 -0.599436D-01 -0.546501D-03 -0.287714D-01
      6b -0.130805D+00  0.167447D+00  0.546501D-03 -0.599436D-01 -0.333183D+00
      7a  0.168438D+00  0.131580D+00 -0.236257D+00 -0.215394D-02 -0.106689D-01
      7b -0.131580D+00  0.168438D+00  0.215394D-02 -0.236257D+00 -0.123550D+00
      8a  0.156019D+00  0.121878D+00 -0.287257D+00 -0.261890D-02  0.656394D-02
      8b -0.121878D+00  0.156019D+00  0.261890D-02 -0.287257D+00  0.760129D-01
      9a  0.758275D-01  0.592346D-01 -0.228679D+00 -0.208485D-02  0.313481D-01
      9b -0.592346D-01  0.758275D-01  0.208485D-02 -0.228679D+00  0.363023D+00
     10a  0.451189D-01  0.352457D-01 -0.174883D+00 -0.159439D-02  0.334854D-01
     10b -0.352457D-01  0.451189D-01  0.159439D-02 -0.174883D+00  0.387773D+00
                 6             7             8             9            10 
      1a  0.387773D+00  0.127775D+00  0.625578D-03  0.553012D+00  0.178625D-01
      1b -0.334854D-01 -0.625578D-03  0.127775D+00 -0.178625D-01  0.553012D+00
      2a  0.363023D+00 -0.193264D+00 -0.946205D-03  0.335562D+00  0.108387D-01
      2b -0.313481D-01  0.946205D-03 -0.193264D+00 -0.108387D-01  0.335562D+00
      3a  0.760129D-01  0.354700D+00  0.173658D-02 -0.384705D+00 -0.124261D-01
      3b -0.656394D-02 -0.173658D-02  0.354700D+00  0.124261D-01 -0.384705D+00
      4a -0.123550D+00 -0.459415D+00 -0.224926D-02 -0.512961D+00 -0.165688D-01
      4b  0.106689D-01  0.224926D-02 -0.459415D+00  0.165688D-01 -0.512961D+00
      5a -0.333183D+00  0.504378D+00  0.246939D-02 -0.241359D+00 -0.779598D-02
      5b  0.287714D-01 -0.246939D-02  0.504378D+00  0.779598D-02 -0.241359D+00
      6a -0.333183D+00 -0.504378D+00 -0.246939D-02  0.241359D+00  0.779598D-02
      6b  0.287714D-01  0.246939D-02 -0.504378D+00 -0.779598D-02  0.241359D+00
      7a -0.123550D+00  0.459415D+00  0.224926D-02  0.512961D+00  0.165688D-01
      7b  0.106689D-01 -0.224926D-02  0.459415D+00 -0.165688D-01  0.512961D+00
      8a  0.760129D-01 -0.354700D+00 -0.173658D-02  0.384705D+00  0.124261D-01
      8b -0.656394D-02  0.173658D-02 -0.354700D+00 -0.124261D-01  0.384705D+00
      9a  0.363023D+00  0.193264D+00  0.946205D-03 -0.335562D+00 -0.108387D-01
      9b -0.313481D-01 -0.946205D-03  0.193264D+00  0.108387D-01 -0.335562D+00
     10a  0.387773D+00 -0.127775D+00 -0.625578D-03 -0.553012D+00 -0.178625D-01
     10b -0.334854D-01  0.625578D-03 -0.127775D+00  0.178625D-01 -0.553012D+00
                11            12            13            14            15 
      1a -0.357705D+00  0.111468D-01 -0.545607D+00  0.220948D-01  0.417171D-01
      1b -0.111468D-01 -0.357705D+00 -0.220948D-01 -0.545607D+00 -0.665609D+00
      2a  0.535383D+00 -0.166836D-01  0.832961D+00 -0.337315D-01 -0.157449D-02
      2b  0.166836D-01  0.535383D+00  0.337315D-01  0.832961D+00  0.251214D-01
      3a -0.490911D+00  0.152977D-01 -0.228431D+00  0.925049D-02 -0.603792D-01
      3b -0.152977D-01 -0.490911D+00 -0.925049D-02 -0.228431D+00  0.963368D+00
      4a  0.461007D+00 -0.143659D-01 -0.266941D+00  0.108100D-01 -0.946791D-02
      4b  0.143659D-01  0.461007D+00 -0.108100D-01 -0.266941D+00  0.151063D+00
      5a -0.156062D+00  0.486318D-02  0.570457D+00 -0.231011D-01  0.401950D-01
      5b -0.486318D-02 -0.156062D+00  0.231011D-01  0.570457D+00 -0.641324D+00
      6a -0.156062D+00  0.486318D-02 -0.570457D+00  0.231011D-01  0.401950D-01
      6b -0.486318D-02 -0.156062D+00 -0.231011D-01 -0.570457D+00 -0.641324D+00
      7a  0.461007D+00 -0.143659D-01  0.266941D+00 -0.108100D-01 -0.946791D-02
      7b  0.143659D-01  0.461007D+00  0.108100D-01  0.266941D+00  0.151063D+00
      8a -0.490911D+00  0.152977D-01  0.228431D+00 -0.925049D-02 -0.603792D-01
      8b -0.152977D-01 -0.490911D+00  0.925049D-02  0.228431D+00  0.963368D+00
      9a  0.535383D+00 -0.166836D-01 -0.832961D+00  0.337315D-01 -0.157449D-02
      9b  0.166836D-01  0.535383D+00 -0.337315D-01 -0.832961D+00  0.251214D-01
     10a -0.357705D+00  0.111468D-01  0.545607D+00 -0.220948D-01  0.417171D-01
     10b -0.111468D-01 -0.357705D+00  0.220948D-01  0.545607D+00 -0.665609D+00
                16            17            18            19            20 
      1a -0.665609D+00  0.477471D+00  0.721722D-01  0.571574D+00 -0.346761D-03
      1b -0.417171D-01 -0.721722D-01  0.477471D+00  0.346761D-03  0.571574D+00
      2a  0.251214D-01 -0.787945D+00 -0.119102D+00 -0.363786D+00  0.220700D-03
      2b  0.157449D-02  0.119102D+00 -0.787945D+00 -0.220700D-03 -0.363786D+00
      3a  0.963368D+00 -0.184547D+00 -0.278952D-01 -0.102421D+01  0.621365D-03
      3b  0.603792D-01  0.278952D-01 -0.184547D+00 -0.621365D-03 -0.102421D+01
      4a  0.151063D+00  0.109136D+01  0.164965D+00  0.816962D+00 -0.495631D-03
      4b  0.946791D-02 -0.164965D+00  0.109136D+01  0.495631D-03  0.816962D+00
      5a -0.641324D+00 -0.604035D+00 -0.913029D-01  0.110794D+01 -0.672163D-03
      5b -0.401950D-01  0.913029D-01 -0.604035D+00  0.672163D-03  0.110794D+01
      6a -0.641324D+00 -0.604035D+00 -0.913029D-01 -0.110794D+01  0.672163D-03
      6b -0.401950D-01  0.913029D-01 -0.604035D+00 -0.672163D-03 -0.110794D+01
      7a  0.151063D+00  0.109136D+01  0.164965D+00 -0.816962D+00  0.495631D-03
      7b  0.946791D-02 -0.164965D+00  0.109136D+01 -0.495631D-03 -0.816962D+00
      8a  0.963368D+00 -0.184547D+00 -0.278952D-01  0.102421D+01 -0.621365D-03
      8b  0.603792D-01  0.278952D-01 -0.184547D+00  0.621365D-03  0.102421D+01
      9a  0.251214D-01 -0.787945D+00 -0.119102D+00  0.363786D+00 -0.220700D-03
      9b  0.157449D-02  0.119102D+00 -0.787945D+00  0.220700D-03  0.363786D+00
     10a -0.665609D+00  0.477471D+00  0.721722D-01 -0.571574D+00  0.346761D-03
     10b -0.417171D-01 -0.721722D-01  0.477471D+00 -0.346761D-03 -0.571574D+00
 bfr conversion (imaginary):
                 1             2             3             4             5 
      1a  0.000000D+00  0.000000D+00  0.000000D+00  0.000000D+00  0.000000D+00
      1b  0.000000D+00  0.000000D+00  0.000000D+00  0.000000D+00  0.000000D+00
      2a  0.000000D+00  0.000000D+00  0.000000D+00  0.000000D+00  0.000000D+00
      2b  0.000000D+00  0.000000D+00  0.000000D+00  0.000000D+00  0.000000D+00
      3a  0.000000D+00  0.000000D+00  0.000000D+00  0.000000D+00  0.000000D+00
      3b  0.000000D+00  0.000000D+00  0.000000D+00  0.000000D+00  0.000000D+00
      4a  0.000000D+00  0.000000D+00  0.000000D+00  0.000000D+00  0.000000D+00
      4b  0.000000D+00  0.000000D+00  0.000000D+00  0.000000D+00  0.000000D+00
      5a  0.000000D+00  0.000000D+00  0.000000D+00  0.000000D+00  0.000000D+00
      5b  0.000000D+00  0.000000D+00  0.000000D+00  0.000000D+00  0.000000D+00
      6a  0.000000D+00  0.000000D+00  0.000000D+00  0.000000D+00  0.000000D+00
      6b  0.000000D+00  0.000000D+00  0.000000D+00  0.000000D+00  0.000000D+00
      7a  0.000000D+00  0.000000D+00  0.000000D+00  0.000000D+00  0.000000D+00
      7b  0.000000D+00  0.000000D+00  0.000000D+00  0.000000D+00  0.000000D+00
      8a  0.000000D+00  0.000000D+00  0.000000D+00  0.000000D+00  0.000000D+00
      8b  0.000000D+00  0.000000D+00  0.000000D+00  0.000000D+00  0.000000D+00
      9a  0.000000D+00  0.000000D+00  0.000000D+00  0.000000D+00  0.000000D+00
      9b  0.000000D+00  0.000000D+00  0.000000D+00  0.000000D+00  0.000000D+00
     10a  0.000000D+00  0.000000D+00  0.000000D+00  0.000000D+00  0.000000D+00
     10b  0.000000D+00  0.000000D+00  0.000000D+00  0.000000D+00  0.000000D+00
                 6             7             8             9            10 
      1a  0.000000D+00  0.000000D+00  0.000000D+00  0.000000D+00  0.000000D+00
      1b  0.000000D+00  0.000000D+00  0.000000D+00  0.000000D+00  0.000000D+00
      2a  0.000000D+00  0.000000D+00  0.000000D+00  0.000000D+00  0.000000D+00
      2b  0.000000D+00  0.000000D+00  0.000000D+00  0.000000D+00  0.000000D+00
      3a  0.000000D+00  0.000000D+00  0.000000D+00  0.000000D+00  0.000000D+00
      3b  0.000000D+00  0.000000D+00  0.000000D+00  0.000000D+00  0.000000D+00
      4a  0.000000D+00  0.000000D+00  0.000000D+00  0.000000D+00  0.000000D+00
      4b  0.000000D+00  0.000000D+00  0.000000D+00  0.000000D+00  0.000000D+00
      5a  0.000000D+00  0.000000D+00  0.000000D+00  0.000000D+00  0.000000D+00
      5b  0.000000D+00  0.000000D+00  0.000000D+00  0.000000D+00  0.000000D+00
      6a  0.000000D+00  0.000000D+00  0.000000D+00  0.000000D+00  0.000000D+00
      6b  0.000000D+00  0.000000D+00  0.000000D+00  0.000000D+00  0.000000D+00
      7a  0.000000D+00  0.000000D+00  0.000000D+00  0.000000D+00  0.000000D+00
      7b  0.000000D+00  0.000000D+00  0.000000D+00  0.000000D+00  0.000000D+00
      8a  0.000000D+00  0.000000D+00  0.000000D+00  0.000000D+00  0.000000D+00
      8b  0.000000D+00  0.000000D+00  0.000000D+00  0.000000D+00  0.000000D+00
      9a  0.000000D+00  0.000000D+00  0.000000D+00  0.000000D+00  0.000000D+00
      9b  0.000000D+00  0.000000D+00  0.000000D+00  0.000000D+00  0.000000D+00
     10a  0.000000D+00  0.000000D+00  0.000000D+00  0.000000D+00  0.000000D+00
     10b  0.000000D+00  0.000000D+00  0.000000D+00  0.000000D+00  0.000000D+00
                11            12            13            14            15 
      1a  0.000000D+00  0.000000D+00  0.000000D+00  0.000000D+00  0.000000D+00
      1b  0.000000D+00  0.000000D+00  0.000000D+00  0.000000D+00  0.000000D+00
      2a  0.000000D+00  0.000000D+00  0.000000D+00  0.000000D+00  0.000000D+00
      2b  0.000000D+00  0.000000D+00  0.000000D+00  0.000000D+00  0.000000D+00
      3a  0.000000D+00  0.000000D+00  0.000000D+00  0.000000D+00  0.000000D+00
      3b  0.000000D+00  0.000000D+00  0.000000D+00  0.000000D+00  0.000000D+00
      4a  0.000000D+00  0.000000D+00  0.000000D+00  0.000000D+00  0.000000D+00
      4b  0.000000D+00  0.000000D+00  0.000000D+00  0.000000D+00  0.000000D+00
      5a  0.000000D+00  0.000000D+00  0.000000D+00  0.000000D+00  0.000000D+00
      5b  0.000000D+00  0.000000D+00  0.000000D+00  0.000000D+00  0.000000D+00
      6a  0.000000D+00  0.000000D+00  0.000000D+00  0.000000D+00  0.000000D+00
      6b  0.000000D+00  0.000000D+00  0.000000D+00  0.000000D+00  0.000000D+00
      7a  0.000000D+00  0.000000D+00  0.000000D+00  0.000000D+00  0.000000D+00
      7b  0.000000D+00  0.000000D+00  0.000000D+00  0.000000D+00  0.000000D+00
      8a  0.000000D+00  0.000000D+00  0.000000D+00  0.000000D+00  0.000000D+00
      8b  0.000000D+00  0.000000D+00  0.000000D+00  0.000000D+00  0.000000D+00
      9a  0.000000D+00  0.000000D+00  0.000000D+00  0.000000D+00  0.000000D+00
      9b  0.000000D+00  0.000000D+00  0.000000D+00  0.000000D+00  0.000000D+00
     10a  0.000000D+00  0.000000D+00  0.000000D+00  0.000000D+00  0.000000D+00
     10b  0.000000D+00  0.000000D+00  0.000000D+00  0.000000D+00  0.000000D+00
                16            17            18            19            20 
      1a  0.000000D+00  0.000000D+00  0.000000D+00  0.000000D+00  0.000000D+00
      1b  0.000000D+00  0.000000D+00  0.000000D+00  0.000000D+00  0.000000D+00
      2a  0.000000D+00  0.000000D+00  0.000000D+00  0.000000D+00  0.000000D+00
      2b  0.000000D+00  0.000000D+00  0.000000D+00  0.000000D+00  0.000000D+00
      3a  0.000000D+00  0.000000D+00  0.000000D+00  0.000000D+00  0.000000D+00
      3b  0.000000D+00  0.000000D+00  0.000000D+00  0.000000D+00  0.000000D+00
      4a  0.000000D+00  0.000000D+00  0.000000D+00  0.000000D+00  0.000000D+00
      4b  0.000000D+00  0.000000D+00  0.000000D+00  0.000000D+00  0.000000D+00
      5a  0.000000D+00  0.000000D+00  0.000000D+00  0.000000D+00  0.000000D+00
      5b  0.000000D+00  0.000000D+00  0.000000D+00  0.000000D+00  0.000000D+00
      6a  0.000000D+00  0.000000D+00  0.000000D+00  0.000000D+00  0.000000D+00
      6b  0.000000D+00  0.000000D+00  0.000000D+00  0.000000D+00  0.000000D+00
      7a  0.000000D+00  0.000000D+00  0.000000D+00  0.000000D+00  0.000000D+00
      7b  0.000000D+00  0.000000D+00  0.000000D+00  0.000000D+00  0.000000D+00
      8a  0.000000D+00  0.000000D+00  0.000000D+00  0.000000D+00  0.000000D+00
      8b  0.000000D+00  0.000000D+00  0.000000D+00  0.000000D+00  0.000000D+00
      9a  0.000000D+00  0.000000D+00  0.000000D+00  0.000000D+00  0.000000D+00
      9b  0.000000D+00  0.000000D+00  0.000000D+00  0.000000D+00  0.000000D+00
     10a  0.000000D+00  0.000000D+00  0.000000D+00  0.000000D+00  0.000000D+00
     10b  0.000000D+00  0.000000D+00  0.000000D+00  0.000000D+00  0.000000D+00
 afr conversion (alpha, real):
                 1             2             3             4             5 
      1   0.451189D-01  0.352457D-01  0.174883D+00  0.159439D-02  0.334854D-01
      2   0.758275D-01  0.592346D-01  0.228679D+00  0.208485D-02  0.313481D-01
      3   0.156019D+00  0.121878D+00  0.287257D+00  0.261890D-02  0.656394D-02
      4   0.168438D+00  0.131580D+00  0.236257D+00  0.215394D-02 -0.106689D-01
      5   0.167447D+00  0.130805D+00  0.599436D-01  0.546501D-03 -0.287714D-01
      6   0.167447D+00  0.130805D+00 -0.599436D-01 -0.546501D-03 -0.287714D-01
      7   0.168438D+00  0.131580D+00 -0.236257D+00 -0.215394D-02 -0.106689D-01
      8   0.156019D+00  0.121878D+00 -0.287257D+00 -0.261890D-02  0.656394D-02
      9   0.758275D-01  0.592346D-01 -0.228679D+00 -0.208485D-02  0.313481D-01
     10   0.451189D-01  0.352457D-01 -0.174883D+00 -0.159439D-02  0.334854D-01
                 6             7             8             9            10 
      1   0.387773D+00  0.127775D+00  0.625578D-03  0.553012D+00  0.178625D-01
      2   0.363023D+00 -0.193264D+00 -0.946205D-03  0.335562D+00  0.108387D-01
      3   0.760129D-01  0.354700D+00  0.173658D-02 -0.384705D+00 -0.124261D-01
      4  -0.123550D+00 -0.459415D+00 -0.224926D-02 -0.512961D+00 -0.165688D-01
      5  -0.333183D+00  0.504378D+00  0.246939D-02 -0.241359D+00 -0.779598D-02
      6  -0.333183D+00 -0.504378D+00 -0.246939D-02  0.241359D+00  0.779598D-02
      7  -0.123550D+00  0.459415D+00  0.224926D-02  0.512961D+00  0.165688D-01
      8   0.760129D-01 -0.354700D+00 -0.173658D-02  0.384705D+00  0.124261D-01
      9   0.363023D+00  0.193264D+00  0.946205D-03 -0.335562D+00 -0.108387D-01
     10   0.387773D+00 -0.127775D+00 -0.625578D-03 -0.553012D+00 -0.178625D-01
                11            12            13            14            15 
      1  -0.357705D+00  0.111468D-01 -0.545607D+00  0.220948D-01  0.417171D-01
      2   0.535383D+00 -0.166836D-01  0.832961D+00 -0.337315D-01 -0.157449D-02
      3  -0.490911D+00  0.152977D-01 -0.228431D+00  0.925049D-02 -0.603792D-01
      4   0.461007D+00 -0.143659D-01 -0.266941D+00  0.108100D-01 -0.946791D-02
      5  -0.156062D+00  0.486318D-02  0.570457D+00 -0.231011D-01  0.401950D-01
      6  -0.156062D+00  0.486318D-02 -0.570457D+00  0.231011D-01  0.401950D-01
      7   0.461007D+00 -0.143659D-01  0.266941D+00 -0.108100D-01 -0.946791D-02
      8  -0.490911D+00  0.152977D-01  0.228431D+00 -0.925049D-02 -0.603792D-01
      9   0.535383D+00 -0.166836D-01 -0.832961D+00  0.337315D-01 -0.157449D-02
     10  -0.357705D+00  0.111468D-01  0.545607D+00 -0.220948D-01  0.417171D-01
                16            17            18            19            20 
      1  -0.665609D+00  0.477471D+00  0.721722D-01  0.571574D+00 -0.346761D-03
      2   0.251214D-01 -0.787945D+00 -0.119102D+00 -0.363786D+00  0.220700D-03
      3   0.963368D+00 -0.184547D+00 -0.278952D-01 -0.102421D+01  0.621365D-03
      4   0.151063D+00  0.109136D+01  0.164965D+00  0.816962D+00 -0.495631D-03
      5  -0.641324D+00 -0.604035D+00 -0.913029D-01  0.110794D+01 -0.672163D-03
      6  -0.641324D+00 -0.604035D+00 -0.913029D-01 -0.110794D+01  0.672163D-03
      7   0.151063D+00  0.109136D+01  0.164965D+00 -0.816962D+00  0.495631D-03
      8   0.963368D+00 -0.184547D+00 -0.278952D-01  0.102421D+01 -0.621365D-03
      9   0.251214D-01 -0.787945D+00 -0.119102D+00  0.363786D+00 -0.220700D-03
     10  -0.665609D+00  0.477471D+00  0.721722D-01 -0.571574D+00  0.346761D-03
 afr conversion (alpha, imaginary):
                 1             2             3             4             5 
      1   0.000000D+00  0.000000D+00  0.000000D+00  0.000000D+00  0.000000D+00
      2   0.000000D+00  0.000000D+00  0.000000D+00  0.000000D+00  0.000000D+00
      3   0.000000D+00  0.000000D+00  0.000000D+00  0.000000D+00  0.000000D+00
      4   0.000000D+00  0.000000D+00  0.000000D+00  0.000000D+00  0.000000D+00
      5   0.000000D+00  0.000000D+00  0.000000D+00  0.000000D+00  0.000000D+00
      6   0.000000D+00  0.000000D+00  0.000000D+00  0.000000D+00  0.000000D+00
      7   0.000000D+00  0.000000D+00  0.000000D+00  0.000000D+00  0.000000D+00
      8   0.000000D+00  0.000000D+00  0.000000D+00  0.000000D+00  0.000000D+00
      9   0.000000D+00  0.000000D+00  0.000000D+00  0.000000D+00  0.000000D+00
     10   0.000000D+00  0.000000D+00  0.000000D+00  0.000000D+00  0.000000D+00
                 6             7             8             9            10 
      1   0.000000D+00  0.000000D+00  0.000000D+00  0.000000D+00  0.000000D+00
      2   0.000000D+00  0.000000D+00  0.000000D+00  0.000000D+00  0.000000D+00
      3   0.000000D+00  0.000000D+00  0.000000D+00  0.000000D+00  0.000000D+00
      4   0.000000D+00  0.000000D+00  0.000000D+00  0.000000D+00  0.000000D+00
      5   0.000000D+00  0.000000D+00  0.000000D+00  0.000000D+00  0.000000D+00
      6   0.000000D+00  0.000000D+00  0.000000D+00  0.000000D+00  0.000000D+00
      7   0.000000D+00  0.000000D+00  0.000000D+00  0.000000D+00  0.000000D+00
      8   0.000000D+00  0.000000D+00  0.000000D+00  0.000000D+00  0.000000D+00
      9   0.000000D+00  0.000000D+00  0.000000D+00  0.000000D+00  0.000000D+00
     10   0.000000D+00  0.000000D+00  0.000000D+00  0.000000D+00  0.000000D+00
                11            12            13            14            15 
      1   0.000000D+00  0.000000D+00  0.000000D+00  0.000000D+00  0.000000D+00
      2   0.000000D+00  0.000000D+00  0.000000D+00  0.000000D+00  0.000000D+00
      3   0.000000D+00  0.000000D+00  0.000000D+00  0.000000D+00  0.000000D+00
      4   0.000000D+00  0.000000D+00  0.000000D+00  0.000000D+00  0.000000D+00
      5   0.000000D+00  0.000000D+00  0.000000D+00  0.000000D+00  0.000000D+00
      6   0.000000D+00  0.000000D+00  0.000000D+00  0.000000D+00  0.000000D+00
      7   0.000000D+00  0.000000D+00  0.000000D+00  0.000000D+00  0.000000D+00
      8   0.000000D+00  0.000000D+00  0.000000D+00  0.000000D+00  0.000000D+00
      9   0.000000D+00  0.000000D+00  0.000000D+00  0.000000D+00  0.000000D+00
     10   0.000000D+00  0.000000D+00  0.000000D+00  0.000000D+00  0.000000D+00
                16            17            18            19            20 
      1   0.000000D+00  0.000000D+00  0.000000D+00  0.000000D+00  0.000000D+00
      2   0.000000D+00  0.000000D+00  0.000000D+00  0.000000D+00  0.000000D+00
      3   0.000000D+00  0.000000D+00  0.000000D+00  0.000000D+00  0.000000D+00
      4   0.000000D+00  0.000000D+00  0.000000D+00  0.000000D+00  0.000000D+00
      5   0.000000D+00  0.000000D+00  0.000000D+00  0.000000D+00  0.000000D+00
      6   0.000000D+00  0.000000D+00  0.000000D+00  0.000000D+00  0.000000D+00
      7   0.000000D+00  0.000000D+00  0.000000D+00  0.000000D+00  0.000000D+00
      8   0.000000D+00  0.000000D+00  0.000000D+00  0.000000D+00  0.000000D+00
      9   0.000000D+00  0.000000D+00  0.000000D+00  0.000000D+00  0.000000D+00
     10   0.000000D+00  0.000000D+00  0.000000D+00  0.000000D+00  0.000000D+00
 afr conversion (beta, real):
                 1             2             3             4             5 
      1  -0.352457D-01  0.451189D-01 -0.159439D-02  0.174883D+00  0.387773D+00
      2  -0.592346D-01  0.758275D-01 -0.208485D-02  0.228679D+00  0.363023D+00
      3  -0.121878D+00  0.156019D+00 -0.261890D-02  0.287257D+00  0.760129D-01
      4  -0.131580D+00  0.168438D+00 -0.215394D-02  0.236257D+00 -0.123550D+00
      5  -0.130805D+00  0.167447D+00 -0.546501D-03  0.599436D-01 -0.333183D+00
      6  -0.130805D+00  0.167447D+00  0.546501D-03 -0.599436D-01 -0.333183D+00
      7  -0.131580D+00  0.168438D+00  0.215394D-02 -0.236257D+00 -0.123550D+00
      8  -0.121878D+00  0.156019D+00  0.261890D-02 -0.287257D+00  0.760129D-01
      9  -0.592346D-01  0.758275D-01  0.208485D-02 -0.228679D+00  0.363023D+00
     10  -0.352457D-01  0.451189D-01  0.159439D-02 -0.174883D+00  0.387773D+00
                 6             7             8             9            10 
      1  -0.334854D-01 -0.625578D-03  0.127775D+00 -0.178625D-01  0.553012D+00
      2  -0.313481D-01  0.946205D-03 -0.193264D+00 -0.108387D-01  0.335562D+00
      3  -0.656394D-02 -0.173658D-02  0.354700D+00  0.124261D-01 -0.384705D+00
      4   0.106689D-01  0.224926D-02 -0.459415D+00  0.165688D-01 -0.512961D+00
      5   0.287714D-01 -0.246939D-02  0.504378D+00  0.779598D-02 -0.241359D+00
      6   0.287714D-01  0.246939D-02 -0.504378D+00 -0.779598D-02  0.241359D+00
      7   0.106689D-01 -0.224926D-02  0.459415D+00 -0.165688D-01  0.512961D+00
      8  -0.656394D-02  0.173658D-02 -0.354700D+00 -0.124261D-01  0.384705D+00
      9  -0.313481D-01 -0.946205D-03  0.193264D+00  0.108387D-01 -0.335562D+00
     10  -0.334854D-01  0.625578D-03 -0.127775D+00  0.178625D-01 -0.553012D+00
                11            12            13            14            15 
      1  -0.111468D-01 -0.357705D+00 -0.220948D-01 -0.545607D+00 -0.665609D+00
      2   0.166836D-01  0.535383D+00  0.337315D-01  0.832961D+00  0.251214D-01
      3  -0.152977D-01 -0.490911D+00 -0.925049D-02 -0.228431D+00  0.963368D+00
      4   0.143659D-01  0.461007D+00 -0.108100D-01 -0.266941D+00  0.151063D+00
      5  -0.486318D-02 -0.156062D+00  0.231011D-01  0.570457D+00 -0.641324D+00
      6  -0.486318D-02 -0.156062D+00 -0.231011D-01 -0.570457D+00 -0.641324D+00
      7   0.143659D-01  0.461007D+00  0.108100D-01  0.266941D+00  0.151063D+00
      8  -0.152977D-01 -0.490911D+00  0.925049D-02  0.228431D+00  0.963368D+00
      9   0.166836D-01  0.535383D+00 -0.337315D-01 -0.832961D+00  0.251214D-01
     10  -0.111468D-01 -0.357705D+00  0.220948D-01  0.545607D+00 -0.665609D+00
                16            17            18            19            20 
      1  -0.417171D-01 -0.721722D-01  0.477471D+00  0.346761D-03  0.571574D+00
      2   0.157449D-02  0.119102D+00 -0.787945D+00 -0.220700D-03 -0.363786D+00
      3   0.603792D-01  0.278952D-01 -0.184547D+00 -0.621365D-03 -0.102421D+01
      4   0.946791D-02 -0.164965D+00  0.109136D+01  0.495631D-03  0.816962D+00
      5  -0.401950D-01  0.913029D-01 -0.604035D+00  0.672163D-03  0.110794D+01
      6  -0.401950D-01  0.913029D-01 -0.604035D+00 -0.672163D-03 -0.110794D+01
      7   0.946791D-02 -0.164965D+00  0.109136D+01 -0.495631D-03 -0.816962D+00
      8   0.603792D-01  0.278952D-01 -0.184547D+00  0.621365D-03  0.102421D+01
      9   0.157449D-02  0.119102D+00 -0.787945D+00  0.220700D-03  0.363786D+00
     10  -0.417171D-01 -0.721722D-01  0.477471D+00 -0.346761D-03 -0.571574D+00
 afr conversion (beta, imaginary):
                 1             2             3             4             5 
      1   0.000000D+00  0.000000D+00  0.000000D+00  0.000000D+00  0.000000D+00
      2   0.000000D+00  0.000000D+00  0.000000D+00  0.000000D+00  0.000000D+00
      3   0.000000D+00  0.000000D+00  0.000000D+00  0.000000D+00  0.000000D+00
      4   0.000000D+00  0.000000D+00  0.000000D+00  0.000000D+00  0.000000D+00
      5   0.000000D+00  0.000000D+00  0.000000D+00  0.000000D+00  0.000000D+00
      6   0.000000D+00  0.000000D+00  0.000000D+00  0.000000D+00  0.000000D+00
      7   0.000000D+00  0.000000D+00  0.000000D+00  0.000000D+00  0.000000D+00
      8   0.000000D+00  0.000000D+00  0.000000D+00  0.000000D+00  0.000000D+00
      9   0.000000D+00  0.000000D+00  0.000000D+00  0.000000D+00  0.000000D+00
     10   0.000000D+00  0.000000D+00  0.000000D+00  0.000000D+00  0.000000D+00
                 6             7             8             9            10 
      1   0.000000D+00  0.000000D+00  0.000000D+00  0.000000D+00  0.000000D+00
      2   0.000000D+00  0.000000D+00  0.000000D+00  0.000000D+00  0.000000D+00
      3   0.000000D+00  0.000000D+00  0.000000D+00  0.000000D+00  0.000000D+00
      4   0.000000D+00  0.000000D+00  0.000000D+00  0.000000D+00  0.000000D+00
      5   0.000000D+00  0.000000D+00  0.000000D+00  0.000000D+00  0.000000D+00
      6   0.000000D+00  0.000000D+00  0.000000D+00  0.000000D+00  0.000000D+00
      7   0.000000D+00  0.000000D+00  0.000000D+00  0.000000D+00  0.000000D+00
      8   0.000000D+00  0.000000D+00  0.000000D+00  0.000000D+00  0.000000D+00
      9   0.000000D+00  0.000000D+00  0.000000D+00  0.000000D+00  0.000000D+00
     10   0.000000D+00  0.000000D+00  0.000000D+00  0.000000D+00  0.000000D+00
                11            12            13            14            15 
      1   0.000000D+00  0.000000D+00  0.000000D+00  0.000000D+00  0.000000D+00
      2   0.000000D+00  0.000000D+00  0.000000D+00  0.000000D+00  0.000000D+00
      3   0.000000D+00  0.000000D+00  0.000000D+00  0.000000D+00  0.000000D+00
      4   0.000000D+00  0.000000D+00  0.000000D+00  0.000000D+00  0.000000D+00
      5   0.000000D+00  0.000000D+00  0.000000D+00  0.000000D+00  0.000000D+00
      6   0.000000D+00  0.000000D+00  0.000000D+00  0.000000D+00  0.000000D+00
      7   0.000000D+00  0.000000D+00  0.000000D+00  0.000000D+00  0.000000D+00
      8   0.000000D+00  0.000000D+00  0.000000D+00  0.000000D+00  0.000000D+00
      9   0.000000D+00  0.000000D+00  0.000000D+00  0.000000D+00  0.000000D+00
     10   0.000000D+00  0.000000D+00  0.000000D+00  0.000000D+00  0.000000D+00
                16            17            18            19            20 
      1   0.000000D+00  0.000000D+00  0.000000D+00  0.000000D+00  0.000000D+00
      2   0.000000D+00  0.000000D+00  0.000000D+00  0.000000D+00  0.000000D+00
      3   0.000000D+00  0.000000D+00  0.000000D+00  0.000000D+00  0.000000D+00
      4   0.000000D+00  0.000000D+00  0.000000D+00  0.000000D+00  0.000000D+00
      5   0.000000D+00  0.000000D+00  0.000000D+00  0.000000D+00  0.000000D+00
      6   0.000000D+00  0.000000D+00  0.000000D+00  0.000000D+00  0.000000D+00
      7   0.000000D+00  0.000000D+00  0.000000D+00  0.000000D+00  0.000000D+00
      8   0.000000D+00  0.000000D+00  0.000000D+00  0.000000D+00  0.000000D+00
      9   0.000000D+00  0.000000D+00  0.000000D+00  0.000000D+00  0.000000D+00
     10   0.000000D+00  0.000000D+00  0.000000D+00  0.000000D+00  0.000000D+00
 jaja in hckghf.F, ISPECT =                     548
Spin block MO for GHF transformation
NOA =   10   NOB =   10
NVA =   10   NVB =   10
 NOAvA in Hack                     100
 jaja in tranN3.F, ISPECT =                     548
 in l802/tranN3.F, LSPECT =                      800
 NMat, NBtSiz,MDV                    8372                   16000
                133954722
 TranN3:  NGot= 134217728 NBasic=    263006 NTTT=       550 NMat=      8372.
 Defined bucket =                      51                   10000
 Defined bucket =                      52                   10000
 Defined bucket =                      53                   10000
 Defined bucket =                      55                   10000
 Defined bucket =                      57                   10000
 Defined bucket =                      58                   10000
 Defined bucket =                      60                   10000
 Defined bucket =                      72                   10000
 Defined bucket =                      73                   10000
 Defined bucket =                      74                   10000
 Defined bucket =                      75                   10000
 Defined bucket =                      76                   10000
 (IK/LS) integrals will be saved in memory.
 TrCghf made   2 passes through the AO integrals.
 jaja DoHack is true or false? F
 jaja in hckghf.F, NBasis=                      10
 jaja in hckGHF/FixOG, LC =                      800
 jaja in hckGHF/FixOG, IRwC=                      548
 bfr conversion (alpha, real):
                 1             2             3             4             5 
      1   0.451189D-01  0.352457D-01  0.174883D+00  0.159439D-02  0.334854D-01
      2   0.758275D-01  0.592346D-01  0.228679D+00  0.208485D-02  0.313481D-01
      3   0.156019D+00  0.121878D+00  0.287257D+00  0.261890D-02  0.656394D-02
      4   0.168438D+00  0.131580D+00  0.236257D+00  0.215394D-02 -0.106689D-01
      5   0.167447D+00  0.130805D+00  0.599436D-01  0.546501D-03 -0.287714D-01
      6   0.167447D+00  0.130805D+00 -0.599436D-01 -0.546501D-03 -0.287714D-01
      7   0.168438D+00  0.131580D+00 -0.236257D+00 -0.215394D-02 -0.106689D-01
      8   0.156019D+00  0.121878D+00 -0.287257D+00 -0.261890D-02  0.656394D-02
      9   0.758275D-01  0.592346D-01 -0.228679D+00 -0.208485D-02  0.313481D-01
     10   0.451189D-01  0.352457D-01 -0.174883D+00 -0.159439D-02  0.334854D-01
                 6             7             8             9            10 
      1   0.387773D+00  0.127775D+00  0.625578D-03  0.553012D+00  0.178625D-01
      2   0.363023D+00 -0.193264D+00 -0.946205D-03  0.335562D+00  0.108387D-01
      3   0.760129D-01  0.354700D+00  0.173658D-02 -0.384705D+00 -0.124261D-01
      4  -0.123550D+00 -0.459415D+00 -0.224926D-02 -0.512961D+00 -0.165688D-01
      5  -0.333183D+00  0.504378D+00  0.246939D-02 -0.241359D+00 -0.779598D-02
      6  -0.333183D+00 -0.504378D+00 -0.246939D-02  0.241359D+00  0.779598D-02
      7  -0.123550D+00  0.459415D+00  0.224926D-02  0.512961D+00  0.165688D-01
      8   0.760129D-01 -0.354700D+00 -0.173658D-02  0.384705D+00  0.124261D-01
      9   0.363023D+00  0.193264D+00  0.946205D-03 -0.335562D+00 -0.108387D-01
     10   0.387773D+00 -0.127775D+00 -0.625578D-03 -0.553012D+00 -0.178625D-01
                11            12            13            14            15 
      1  -0.357705D+00  0.111468D-01 -0.545607D+00  0.220948D-01  0.417171D-01
      2   0.535383D+00 -0.166836D-01  0.832961D+00 -0.337315D-01 -0.157449D-02
      3  -0.490911D+00  0.152977D-01 -0.228431D+00  0.925049D-02 -0.603792D-01
      4   0.461007D+00 -0.143659D-01 -0.266941D+00  0.108100D-01 -0.946791D-02
      5  -0.156062D+00  0.486318D-02  0.570457D+00 -0.231011D-01  0.401950D-01
      6  -0.156062D+00  0.486318D-02 -0.570457D+00  0.231011D-01  0.401950D-01
      7   0.461007D+00 -0.143659D-01  0.266941D+00 -0.108100D-01 -0.946791D-02
[...]
      6b-0.216421D+00  0.498176D-01 -0.281554D+00 -0.155717D+00 -0.358499D+00
      7a 0.184365D+00 -0.359300D+00  0.230850D+00 -0.923647D-01  0.465681D+00
      7b 0.548095D-01  0.313698D+00 -0.100221D+00  0.110275D+00 -0.546385D+00
      8a 0.274236D+00 -0.315866D+00  0.392955D+00 -0.408785D-01  0.360322D+00
      8b-0.232100D+00  0.655708D+00 -0.383164D+00  0.206245D+00 -0.586360D+00
      9a 0.309914D+00 -0.175798D+00  0.371640D+00 -0.170707D-01  0.359980D+00
      9b-0.129683D+00  0.125028D+00 -0.248602D+00  0.146727D+00 -0.491213D+00
     10a 0.245117D+00 -0.101623D+00  0.350621D+00 -0.424171D-01  0.357364D+00
     10b-0.194497D-01 -0.115057D+00  0.369805D-02  0.711165D-03  0.402837D-01
                3b            4a            4b            5a            5b
      3b 0.697578D+00
      4a-0.189019D+00  0.115916D+01
      4b 0.706014D+00 -0.938309D+00  0.171070D+01
      5a-0.218841D+00  0.954280D+00 -0.780527D+00  0.121724D+01
      5b 0.553136D+00 -0.753114D+00  0.107993D+01 -0.868555D+00  0.140904D+01
      6a-0.411914D+00  0.920424D+00 -0.738189D+00  0.104091D+01 -0.940511D+00
      6b-0.539384D-01 -0.277537D+00  0.328220D+00 -0.298584D+00  0.567100D+00
      7a-0.513110D+00  0.465174D+00 -0.621110D+00  0.849442D+00 -0.970771D+00
      7b-0.254260D+00 -0.602433D+00 -0.102630D-01 -0.510119D+00  0.436212D+00
      8a-0.461000D+00  0.437195D+00 -0.606453D+00  0.450985D+00 -0.743737D+00
      8b 0.895502D-02 -0.639728D+00  0.231753D+00 -0.690322D+00  0.560590D+00
      9a-0.148927D+00  0.136411D+00 -0.401809D+00  0.162327D-01 -0.255718D+00
      9b 0.280438D+00 -0.409665D+00  0.542710D+00 -0.298381D+00  0.155456D+00
     10a-0.434826D-01  0.174764D+00 -0.390760D+00 -0.133701D+00 -0.869303D-01
     10b 0.259638D+00  0.233495D-01  0.189803D+00 -0.670166D-01 -0.153405D+00
                6a            6b            7a            7b            8a
      6a 0.138404D+01
      6b-0.322024D+00  0.724775D+00
      7a 0.105163D+01 -0.461538D+00  0.137685D+01
      7b-0.434126D+00  0.458722D+00 -0.225020D+00  0.924941D+00
      8a 0.804298D+00 -0.397106D+00  0.987956D+00 -0.205851D+00  0.977067D+00
      8b-0.909178D+00  0.650714D+00 -0.971800D+00  0.754238D+00 -0.831741D+00
      9a-0.761902D-01 -0.247139D+00  0.280141D+00 -0.112762D+00  0.462251D+00
      9b-0.213767D+00 -0.233841D+00 -0.283432D+00  0.148437D-01 -0.365828D+00
     10a-0.257425D+00 -0.168537D+00 -0.477868D-01 -0.141526D+00  0.316685D+00
     10b-0.115045D+00 -0.469330D+00 -0.101782D+00 -0.435969D+00  0.216923D-01
                8b            9a            9b           10a           10b
      8b 0.144702D+01
      9a-0.290489D+00  0.727334D+00
      9b 0.338909D+00 -0.442849D+00  0.114976D+01
     10a-0.124718D+00  0.776261D+00 -0.481842D+00  0.955188D+00
     10b-0.764297D-01  0.189412D+00  0.666535D+00  0.266176D+00  0.937598D+00
 jaja lower-tri density matrix (imaginary):
                1a            1b            2a            2b            3a
      1a 0.000000D+00
      1b 0.000000D+00  0.000000D+00
      2a 0.000000D+00  0.000000D+00  0.000000D+00
      2b 0.000000D+00  0.000000D+00  0.000000D+00  0.000000D+00
      3a 0.000000D+00  0.000000D+00  0.000000D+00  0.000000D+00  0.000000D+00
      3b 0.000000D+00  0.000000D+00  0.000000D+00  0.000000D+00  0.000000D+00
      4a 0.000000D+00  0.000000D+00  0.000000D+00  0.000000D+00  0.000000D+00
      4b 0.000000D+00  0.000000D+00  0.000000D+00  0.000000D+00  0.000000D+00
      5a 0.000000D+00  0.000000D+00  0.000000D+00  0.000000D+00  0.000000D+00
      5b 0.000000D+00  0.000000D+00  0.000000D+00  0.000000D+00  0.000000D+00
      6a 0.000000D+00  0.000000D+00  0.000000D+00  0.000000D+00  0.000000D+00
      6b 0.000000D+00  0.000000D+00  0.000000D+00  0.000000D+00  0.000000D+00
      7a 0.000000D+00  0.000000D+00  0.000000D+00  0.000000D+00  0.000000D+00
      7b 0.000000D+00  0.000000D+00  0.000000D+00  0.000000D+00  0.000000D+00
      8a 0.000000D+00  0.000000D+00  0.000000D+00  0.000000D+00  0.000000D+00
      8b 0.000000D+00  0.000000D+00  0.000000D+00  0.000000D+00  0.000000D+00
      9a 0.000000D+00  0.000000D+00  0.000000D+00  0.000000D+00  0.000000D+00
      9b 0.000000D+00  0.000000D+00  0.000000D+00  0.000000D+00  0.000000D+00
     10a 0.000000D+00  0.000000D+00  0.000000D+00  0.000000D+00  0.000000D+00
     10b 0.000000D+00  0.000000D+00  0.000000D+00  0.000000D+00  0.000000D+00
                3b            4a            4b            5a            5b
      3b 0.000000D+00
      4a 0.000000D+00  0.000000D+00
      4b 0.000000D+00  0.000000D+00  0.000000D+00
      5a 0.000000D+00  0.000000D+00  0.000000D+00  0.000000D+00
      5b 0.000000D+00  0.000000D+00  0.000000D+00  0.000000D+00  0.000000D+00
      6a 0.000000D+00  0.000000D+00  0.000000D+00  0.000000D+00  0.000000D+00
      6b 0.000000D+00  0.000000D+00  0.000000D+00  0.000000D+00  0.000000D+00
      7a 0.000000D+00  0.000000D+00  0.000000D+00  0.000000D+00  0.000000D+00
      7b 0.000000D+00  0.000000D+00  0.000000D+00  0.000000D+00  0.000000D+00
      8a 0.000000D+00  0.000000D+00  0.000000D+00  0.000000D+00  0.000000D+00
      8b 0.000000D+00  0.000000D+00  0.000000D+00  0.000000D+00  0.000000D+00
      9a 0.000000D+00  0.000000D+00  0.000000D+00  0.000000D+00  0.000000D+00
      9b 0.000000D+00  0.000000D+00  0.000000D+00  0.000000D+00  0.000000D+00
     10a 0.000000D+00  0.000000D+00  0.000000D+00  0.000000D+00  0.000000D+00
     10b 0.000000D+00  0.000000D+00  0.000000D+00  0.000000D+00  0.000000D+00
                6a            6b            7a            7b            8a
      6a 0.000000D+00
      6b 0.000000D+00  0.000000D+00
      7a 0.000000D+00  0.000000D+00  0.000000D+00
      7b 0.000000D+00  0.000000D+00  0.000000D+00  0.000000D+00
      8a 0.000000D+00  0.000000D+00  0.000000D+00  0.000000D+00  0.000000D+00
      8b 0.000000D+00  0.000000D+00  0.000000D+00  0.000000D+00  0.000000D+00
      9a 0.000000D+00  0.000000D+00  0.000000D+00  0.000000D+00  0.000000D+00
      9b 0.000000D+00  0.000000D+00  0.000000D+00  0.000000D+00  0.000000D+00
     10a 0.000000D+00  0.000000D+00  0.000000D+00  0.000000D+00  0.000000D+00
     10b 0.000000D+00  0.000000D+00  0.000000D+00  0.000000D+00  0.000000D+00
                8b            9a            9b           10a           10b
      8b 0.000000D+00
      9a 0.000000D+00  0.000000D+00
      9b 0.000000D+00  0.000000D+00  0.000000D+00
     10a 0.000000D+00  0.000000D+00  0.000000D+00  0.000000D+00
     10b 0.000000D+00  0.000000D+00  0.000000D+00  0.000000D+00  0.000000D+00
 jaja non-ortho density matrix               [Gau-style] (real):
                 1             2             3             4             5 
      1a  0.776366D+00 -0.319761D+00  0.805796D+00  0.286187D+00  0.251347D+00
      1b -0.319761D+00  0.126983D+01 -0.385067D+00  0.666246D+00 -0.338807D+00
      2a  0.805796D+00 -0.385067D+00  0.935671D+00  0.239797D+00  0.500546D+00
      2b  0.286187D+00  0.666246D+00  0.239797D+00  0.752826D+00 -0.165010D+00
      3a  0.251347D+00 -0.338807D+00  0.500546D+00 -0.165010D+00  0.117972D+01
      3b -0.192397D+00  0.120823D+00 -0.240349D+00  0.608160D-01 -0.167706D+00
      4a -0.745454D-01 -0.229206D+00  0.232186D+00 -0.269892D+00  0.993092D+00
      4b -0.189462D+00 -0.187868D+00 -0.440562D+00  0.143734D-01 -0.954969D+00
      5a -0.264594D+00 -0.192029D+00 -0.101639D+00 -0.330525D+00  0.858703D+00
      5b -0.138538D+00 -0.177330D+00 -0.297153D+00 -0.238911D+00 -0.730913D+00
      6a -0.179297D+00 -0.236335D+00  0.213673D-01 -0.238891D+00  0.552253D+00
      6b -0.216421D+00  0.498176D-01 -0.281554D+00 -0.155717D+00 -0.358499D+00
      7a  0.184365D+00 -0.359300D+00  0.230850D+00 -0.923647D-01  0.465681D+00
      7b  0.548095D-01  0.313698D+00 -0.100221D+00  0.110275D+00 -0.546385D+00
      8a  0.274236D+00 -0.315866D+00  0.392955D+00 -0.408785D-01  0.360322D+00
      8b -0.232100D+00  0.655708D+00 -0.383164D+00  0.206245D+00 -0.586360D+00
      9a  0.309914D+00 -0.175798D+00  0.371640D+00 -0.170707D-01  0.359980D+00
      9b -0.129683D+00  0.125028D+00 -0.248602D+00  0.146727D+00 -0.491213D+00
     10a  0.245117D+00 -0.101623D+00  0.350621D+00 -0.424171D-01  0.357364D+00
     10b -0.194497D-01 -0.115057D+00  0.369805D-02  0.711165D-03  0.402837D-01
                 6             7             8             9            10 
      1a -0.192397D+00 -0.745454D-01 -0.189462D+00 -0.264594D+00 -0.138538D+00
      1b  0.120823D+00 -0.229206D+00 -0.187868D+00 -0.192029D+00 -0.177330D+00
      2a -0.240349D+00  0.232186D+00 -0.440562D+00 -0.101639D+00 -0.297153D+00
      2b  0.608160D-01 -0.269892D+00  0.143734D-01 -0.330525D+00 -0.238911D+00
      3a -0.167706D+00  0.993092D+00 -0.954969D+00  0.858703D+00 -0.730913D+00
      3b  0.697578D+00 -0.189019D+00  0.706014D+00 -0.218841D+00  0.553136D+00
      4a -0.189019D+00  0.115916D+01 -0.938309D+00  0.954280D+00 -0.753114D+00
      4b  0.706014D+00 -0.938309D+00  0.171070D+01 -0.780527D+00  0.107993D+01
      5a -0.218841D+00  0.954280D+00 -0.780527D+00  0.121724D+01 -0.868555D+00
      5b  0.553136D+00 -0.753114D+00  0.107993D+01 -0.868555D+00  0.140904D+01
      6a -0.411914D+00  0.920424D+00 -0.738189D+00  0.104091D+01 -0.940511D+00
      6b -0.539384D-01 -0.277537D+00  0.328220D+00 -0.298584D+00  0.567100D+00
      7a -0.513110D+00  0.465174D+00 -0.621110D+00  0.849442D+00 -0.970771D+00
      7b -0.254260D+00 -0.602433D+00 -0.102630D-01 -0.510119D+00  0.436212D+00
      8a -0.461000D+00  0.437195D+00 -0.606453D+00  0.450985D+00 -0.743737D+00
      8b  0.895502D-02 -0.639728D+00  0.231753D+00 -0.690322D+00  0.560590D+00
      9a -0.148927D+00  0.136411D+00 -0.401809D+00  0.162327D-01 -0.255718D+00
      9b  0.280438D+00 -0.409665D+00  0.542710D+00 -0.298381D+00  0.155456D+00
     10a -0.434826D-01  0.174764D+00 -0.390760D+00 -0.133701D+00 -0.869303D-01
     10b  0.259638D+00  0.233495D-01  0.189803D+00 -0.670166D-01 -0.153405D+00
                11            12            13            14            15 
      1a -0.179297D+00 -0.216421D+00  0.184365D+00  0.548095D-01  0.274236D+00
      1b -0.236335D+00  0.498176D-01 -0.359300D+00  0.313698D+00 -0.315866D+00
      2a  0.213673D-01 -0.281554D+00  0.230850D+00 -0.100221D+00  0.392955D+00
      2b -0.238891D+00 -0.155717D+00 -0.923647D-01  0.110275D+00 -0.408785D-01
      3a  0.552253D+00 -0.358499D+00  0.465681D+00 -0.546385D+00  0.360322D+00
      3b -0.411914D+00 -0.539384D-01 -0.513110D+00 -0.254260D+00 -0.461000D+00
      4a  0.920424D+00 -0.277537D+00  0.465174D+00 -0.602433D+00  0.437195D+00
      4b -0.738189D+00  0.328220D+00 -0.621110D+00 -0.102630D-01 -0.606453D+00
      5a  0.104091D+01 -0.298584D+00  0.849442D+00 -0.510119D+00  0.450985D+00
      5b -0.940511D+00  0.567100D+00 -0.970771D+00  0.436212D+00 -0.743737D+00
      6a  0.138404D+01 -0.322024D+00  0.105163D+01 -0.434126D+00  0.804298D+00
      6b -0.322024D+00  0.724775D+00 -0.461538D+00  0.458722D+00 -0.397106D+00
      7a  0.105163D+01 -0.461538D+00  0.137685D+01 -0.225020D+00  0.987956D+00
      7b -0.434126D+00  0.458722D+00 -0.225020D+00  0.924941D+00 -0.205851D+00
      8a  0.804298D+00 -0.397106D+00  0.987956D+00 -0.205851D+00  0.977067D+00
      8b -0.909178D+00  0.650714D+00 -0.971800D+00  0.754238D+00 -0.831741D+00
      9a -0.761902D-01 -0.247139D+00  0.280141D+00 -0.112762D+00  0.462251D+00
      9b -0.213767D+00 -0.233841D+00 -0.283432D+00  0.148437D-01 -0.365828D+00
     10a -0.257425D+00 -0.168537D+00 -0.477868D-01 -0.141526D+00  0.316685D+00
     10b -0.115045D+00 -0.469330D+00 -0.101782D+00 -0.435969D+00  0.216923D-01
                16            17            18            19            20 
      1a -0.232100D+00  0.309914D+00 -0.129683D+00  0.245117D+00 -0.194497D-01
      1b  0.655708D+00 -0.175798D+00  0.125028D+00 -0.101623D+00 -0.115057D+00
      2a -0.383164D+00  0.371640D+00 -0.248602D+00  0.350621D+00  0.369805D-02
      2b  0.206245D+00 -0.170707D-01  0.146727D+00 -0.424171D-01  0.711165D-03
      3a -0.586360D+00  0.359980D+00 -0.491213D+00  0.357364D+00  0.402837D-01
      3b  0.895502D-02 -0.148927D+00  0.280438D+00 -0.434826D-01  0.259638D+00
      4a -0.639728D+00  0.136411D+00 -0.409665D+00  0.174764D+00  0.233495D-01
      4b  0.231753D+00 -0.401809D+00  0.542710D+00 -0.390760D+00  0.189803D+00
      5a -0.690322D+00  0.162327D-01 -0.298381D+00 -0.133701D+00 -0.670166D-01
      5b  0.560590D+00 -0.255718D+00  0.155456D+00 -0.869303D-01 -0.153405D+00
      6a -0.909178D+00 -0.761902D-01 -0.213767D+00 -0.257425D+00 -0.115045D+00
      6b  0.650714D+00 -0.247139D+00 -0.233841D+00 -0.168537D+00 -0.469330D+00
      7a -0.971800D+00  0.280141D+00 -0.283432D+00 -0.477868D-01 -0.101782D+00
      7b  0.754238D+00 -0.112762D+00  0.148437D-01 -0.141526D+00 -0.435969D+00
      8a -0.831741D+00  0.462251D+00 -0.365828D+00  0.316685D+00  0.216923D-01
      8b  0.144702D+01 -0.290489D+00  0.338909D+00 -0.124718D+00 -0.764297D-01
      9a -0.290489D+00  0.727334D+00 -0.442849D+00  0.776261D+00  0.189412D+00
      9b  0.338909D+00 -0.442849D+00  0.114976D+01 -0.481842D+00  0.666535D+00
     10a -0.124718D+00  0.776261D+00 -0.481842D+00  0.955188D+00  0.266176D+00
     10b -0.764297D-01  0.189412D+00  0.666535D+00  0.266176D+00  0.937598D+00
 jaja non-ortho density matrix               [Gau-style] (imaginary):
                 1             2             3             4             5 
      1a  0.000000D+00  0.000000D+00  0.000000D+00  0.000000D+00  0.000000D+00
      1b  0.000000D+00  0.000000D+00  0.000000D+00  0.000000D+00  0.000000D+00
      2a  0.000000D+00  0.000000D+00  0.000000D+00  0.000000D+00  0.000000D+00
      2b  0.000000D+00  0.000000D+00  0.000000D+00  0.000000D+00  0.000000D+00
      3a  0.000000D+00  0.000000D+00  0.000000D+00  0.000000D+00  0.000000D+00
      3b  0.000000D+00  0.000000D+00  0.000000D+00  0.000000D+00  0.000000D+00
      4a  0.000000D+00  0.000000D+00  0.000000D+00  0.000000D+00  0.000000D+00
      4b  0.000000D+00  0.000000D+00  0.000000D+00  0.000000D+00  0.000000D+00
      5a  0.000000D+00  0.000000D+00  0.000000D+00  0.000000D+00  0.000000D+00
      5b  0.000000D+00  0.000000D+00  0.000000D+00  0.000000D+00  0.000000D+00
      6a  0.000000D+00  0.000000D+00  0.000000D+00  0.000000D+00  0.000000D+00
      6b  0.000000D+00  0.000000D+00  0.000000D+00  0.000000D+00  0.000000D+00
      7a  0.000000D+00  0.000000D+00  0.000000D+00  0.000000D+00  0.000000D+00
      7b  0.000000D+00  0.000000D+00  0.000000D+00  0.000000D+00  0.000000D+00
      8a  0.000000D+00  0.000000D+00  0.000000D+00  0.000000D+00  0.000000D+00
      8b  0.000000D+00  0.000000D+00  0.000000D+00  0.000000D+00  0.000000D+00
      9a  0.000000D+00  0.000000D+00  0.000000D+00  0.000000D+00  0.000000D+00
      9b  0.000000D+00  0.000000D+00  0.000000D+00  0.000000D+00  0.000000D+00
     10a  0.000000D+00  0.000000D+00  0.000000D+00  0.000000D+00  0.000000D+00
     10b  0.000000D+00  0.000000D+00  0.000000D+00  0.000000D+00  0.000000D+00
                 6             7             8             9            10 
      1a  0.000000D+00  0.000000D+00  0.000000D+00  0.000000D+00  0.000000D+00
      1b  0.000000D+00  0.000000D+00  0.000000D+00  0.000000D+00  0.000000D+00
      2a  0.000000D+00  0.000000D+00  0.000000D+00  0.000000D+00  0.000000D+00
      2b  0.000000D+00  0.000000D+00  0.000000D+00  0.000000D+00  0.000000D+00
      3a  0.000000D+00  0.000000D+00  0.000000D+00  0.000000D+00  0.000000D+00
      3b  0.000000D+00  0.000000D+00  0.000000D+00  0.000000D+00  0.000000D+00
      4a  0.000000D+00  0.000000D+00  0.000000D+00  0.000000D+00  0.000000D+00
      4b  0.000000D+00  0.000000D+00  0.000000D+00  0.000000D+00  0.000000D+00
      5a  0.000000D+00  0.000000D+00  0.000000D+00  0.000000D+00  0.000000D+00
      5b  0.000000D+00  0.000000D+00  0.000000D+00  0.000000D+00  0.000000D+00
      6a  0.000000D+00  0.000000D+00  0.000000D+00  0.000000D+00  0.000000D+00
      6b  0.000000D+00  0.000000D+00  0.000000D+00  0.000000D+00  0.000000D+00
      7a  0.000000D+00  0.000000D+00  0.000000D+00  0.000000D+00  0.000000D+00
      7b  0.000000D+00  0.000000D+00  0.000000D+00  0.000000D+00  0.000000D+00
      8a  0.000000D+00  0.000000D+00  0.000000D+00  0.000000D+00  0.000000D+00
      8b  0.000000D+00  0.000000D+00  0.000000D+00  0.000000D+00  0.000000D+00
      9a  0.000000D+00  0.000000D+00  0.000000D+00  0.000000D+00  0.000000D+00
      9b  0.000000D+00  0.000000D+00  0.000000D+00  0.000000D+00  0.000000D+00
     10a  0.000000D+00  0.000000D+00  0.000000D+00  0.000000D+00  0.000000D+00
     10b  0.000000D+00  0.000000D+00  0.000000D+00  0.000000D+00  0.000000D+00
                11            12            13            14            15 
      1a  0.000000D+00  0.000000D+00  0.000000D+00  0.000000D+00  0.000000D+00
      1b  0.000000D+00  0.000000D+00  0.000000D+00  0.000000D+00  0.000000D+00
      2a  0.000000D+00  0.000000D+00  0.000000D+00  0.000000D+00  0.000000D+00
      2b  0.000000D+00  0.000000D+00  0.000000D+00  0.000000D+00  0.000000D+00
      3a  0.000000D+00  0.000000D+00  0.000000D+00  0.000000D+00  0.000000D+00
      3b  0.000000D+00  0.000000D+00  0.000000D+00  0.000000D+00  0.000000D+00
      4a  0.000000D+00  0.000000D+00  0.000000D+00  0.000000D+00  0.000000D+00
      4b  0.000000D+00  0.000000D+00  0.000000D+00  0.000000D+00  0.000000D+00
      5a  0.000000D+00  0.000000D+00  0.000000D+00  0.000000D+00  0.000000D+00
      5b  0.000000D+00  0.000000D+00  0.000000D+00  0.000000D+00  0.000000D+00
      6a  0.000000D+00  0.000000D+00  0.000000D+00  0.000000D+00  0.000000D+00
      6b  0.000000D+00  0.000000D+00  0.000000D+00  0.000000D+00  0.000000D+00
      7a  0.000000D+00  0.000000D+00  0.000000D+00  0.000000D+00  0.000000D+00
      7b  0.000000D+00  0.000000D+00  0.000000D+00  0.000000D+00  0.000000D+00
      8a  0.000000D+00  0.000000D+00  0.000000D+00  0.000000D+00  0.000000D+00
      8b  0.000000D+00  0.000000D+00  0.000000D+00  0.000000D+00  0.000000D+00
      9a  0.000000D+00  0.000000D+00  0.000000D+00  0.000000D+00  0.000000D+00
      9b  0.000000D+00  0.000000D+00  0.000000D+00  0.000000D+00  0.000000D+00
     10a  0.000000D+00  0.000000D+00  0.000000D+00  0.000000D+00  0.000000D+00
     10b  0.000000D+00  0.000000D+00  0.000000D+00  0.000000D+00  0.000000D+00
                16            17            18            19            20 
      1a  0.000000D+00  0.000000D+00  0.000000D+00  0.000000D+00  0.000000D+00
      1b  0.000000D+00  0.000000D+00  0.000000D+00  0.000000D+00  0.000000D+00
      2a  0.000000D+00  0.000000D+00  0.000000D+00  0.000000D+00  0.000000D+00
      2b  0.000000D+00  0.000000D+00  0.000000D+00  0.000000D+00  0.000000D+00
      3a  0.000000D+00  0.000000D+00  0.000000D+00  0.000000D+00  0.000000D+00
      3b  0.000000D+00  0.000000D+00  0.000000D+00  0.000000D+00  0.000000D+00
      4a  0.000000D+00  0.000000D+00  0.000000D+00  0.000000D+00  0.000000D+00
      4b  0.000000D+00  0.000000D+00  0.000000D+00  0.000000D+00  0.000000D+00
      5a  0.000000D+00  0.000000D+00  0.000000D+00  0.000000D+00  0.000000D+00
      5b  0.000000D+00  0.000000D+00  0.000000D+00  0.000000D+00  0.000000D+00
      6a  0.000000D+00  0.000000D+00  0.000000D+00  0.000000D+00  0.000000D+00
      6b  0.000000D+00  0.000000D+00  0.000000D+00  0.000000D+00  0.000000D+00
      7a  0.000000D+00  0.000000D+00  0.000000D+00  0.000000D+00  0.000000D+00
      7b  0.000000D+00  0.000000D+00  0.000000D+00  0.000000D+00  0.000000D+00
      8a  0.000000D+00  0.000000D+00  0.000000D+00  0.000000D+00  0.000000D+00
      8b  0.000000D+00  0.000000D+00  0.000000D+00  0.000000D+00  0.000000D+00
      9a  0.000000D+00  0.000000D+00  0.000000D+00  0.000000D+00  0.000000D+00
      9b  0.000000D+00  0.000000D+00  0.000000D+00  0.000000D+00  0.000000D+00
     10a  0.000000D+00  0.000000D+00  0.000000D+00  0.000000D+00  0.000000D+00
     10b  0.000000D+00  0.000000D+00  0.000000D+00  0.000000D+00  0.000000D+00
FORTRAN STOP
