 Entering Gaussian System, Link 0=g09
 AtFile(1): H.gbs
            H     0
            S   10   1.00
               1000.000000000000            0.000068713567
                316.227766000000            0.000169141320
                100.000000000000            0.000823394812
                 31.622776600000            0.003425569236
                 10.000000000000            0.013951996000
                  3.162277660000            0.056909313560
                  1.000000000000            0.198286399900
                  0.316227766000            0.496922426700
                  0.100000000000            0.369846276400
                  0.031622776600            0.003752720039
            ****
 Initial command:
 /projects/guscus/apps/gau/g09-e1/g09/l1.exe "/users/lcj1/gaussian/h10/rhfstability/2rows/zmat/guessfrommix/alpha45/bck/Gau-31283.inp" -scrdir="/users/lcj1/gaussian/h10/rhfstability/2rows/zmat/guessfrommix/alpha45/bck/"
 Entering Link 1 = /projects/guscus/apps/gau/g09-e1/g09/l1.exe PID=     31284.
  
 Copyright (c) 1988,1990,1992,1993,1995,1998,2003,2009,2015,
            Gaussian, Inc.  All Rights Reserved.
  
 This is part of the Gaussian(R) 09 program.  It is based on
 the Gaussian(R) 03 system (copyright 2003, Gaussian, Inc.),
 the Gaussian(R) 98 system (copyright 1998, Gaussian, Inc.),
 the Gaussian(R) 94 system (copyright 1995, Gaussian, Inc.),
 the Gaussian 92(TM) system (copyright 1992, Gaussian, Inc.),
 the Gaussian 90(TM) system (copyright 1990, Gaussian, Inc.),
 the Gaussian 88(TM) system (copyright 1988, Gaussian, Inc.),
 the Gaussian 86(TM) system (copyright 1986, Carnegie Mellon
 University), and the Gaussian 82(TM) system (copyright 1983,
 Carnegie Mellon University). Gaussian is a federally registered
 trademark of Gaussian, Inc.
  
 This software contains proprietary and confidential information,
 including trade secrets, belonging to Gaussian, Inc.
  
 This software is provided under written license and may be
 used, copied, transmitted, or stored only in accord with that
 written license.
  
 The following legend is applicable only to US Government
 contracts under FAR:
  
                    RESTRICTED RIGHTS LEGEND
  
 Use, reproduction and disclosure by the US Government is
 subject to restrictions as set forth in subparagraphs (a)
 and (c) of the Commercial Computer Software - Restricted
 Rights clause in FAR 52.227-19.
  
 Gaussian, Inc.
 340 Quinnipiac St., Bldg. 40, Wallingford CT 06492
  
  
 ---------------------------------------------------------------
 Warning -- This program may not be used in any manner that
 competes with the business of Gaussian, Inc. or will provide
 assistance to any competitor of Gaussian, Inc.  The licensee
 of this program is prohibited from giving any competitor of
 Gaussian, Inc. access to this program.  By using this program,
 the user acknowledges that Gaussian, Inc. is engaged in the
 business of creating and licensing software in the field of
 computational chemistry and represents and warrants to the
 licensee that it is not a competitor of Gaussian, Inc. and that
 it will not use this program in any manner prohibited above.
 ---------------------------------------------------------------
  

 Cite this work as:
 Gaussian 09, Revision E.01,
 M. J. Frisch, G. W. Trucks, H. B. Schlegel, G. E. Scuseria, 
 M. A. Robb, J. R. Cheeseman, G. Scalmani, V. Barone, B. Mennucci, 
 G. A. Petersson, H. Nakatsuji, M. Caricato, X. Li, H. P. Hratchian, 
 A. F. Izmaylov, J. Bloino, G. Zheng, J. L. Sonnenberg, M. Hada, 
 M. Ehara, K. Toyota, R. Fukuda, J. Hasegawa, M. Ishida, T. Nakajima, 
 Y. Honda, O. Kitao, H. Nakai, T. Vreven, J. A. Montgomery, Jr., 
 J. E. Peralta, F. Ogliaro, M. Bearpark, J. J. Heyd, E. Brothers, 
 K. N. Kudin, V. N. Staroverov, T. Keith, R. Kobayashi, J. Normand, 
 K. Raghavachari, A. Rendell, J. C. Burant, S. S. Iyengar, J. Tomasi, 
 M. Cossi, N. Rega, J. M. Millam, M. Klene, J. E. Knox, J. B. Cross, 
 V. Bakken, C. Adamo, J. Jaramillo, R. Gomperts, R. E. Stratmann, 
 O. Yazyev, A. J. Austin, R. Cammi, C. Pomelli, J. W. Ochterski, 
 R. L. Martin, K. Morokuma, V. G. Zakrzewski, G. A. Voth, 
 P. Salvador, J. J. Dannenberg, S. Dapprich, A. D. Daniels, 
 O. Farkas, J. B. Foresman, J. V. Ortiz, J. Cioslowski, 
 and D. J. Fox, Gaussian, Inc., Wallingford CT, 2013.
 
 ******************************************
 Gaussian 09:  ES64L-G09RevE.01 30-Nov-2015
                13-Feb-2017 
 ******************************************
 %chk=h10.chk
 ----------------------------------------------------------------------
 #rhf/gen scf(symm,tight,novaracc,noincfock,fulldiag) stable(crhf) gues
 s=read geom=nocrowd test
 ----------------------------------------------------------------------
 1/38=1/1;
 2/12=1,17=6,18=5,40=1/2;
 3/5=7,16=1,25=1,30=1,116=1/1,2,3;
 4/5=1,9=4/1;
 5/5=100002,15=2,16=1,32=2,38=6/2;
 8/6=1,10=90,11=11/1,4;
 9/8=4,13=1/2;
 6/7=2,8=2,9=2,10=2,28=1/1;
 99/5=1,9=1/99;
 ----------------------------------------------------------------------
 hf stability analysis of h10 triangular lattice, y= 0.7210052279144877
 3
 ----------------------------------------------------------------------
 Symbolic Z-matrix:
 Charge =  0 Multiplicity = 1
 H
 H                    1     1.07753 
 H                    1     1.07753  2     96. 
 H                    2     1.07753  1     84.      3     0.       0
 H                    3     1.07753  1     180.     2     0.       0
 H                    4     1.07753  2     180.     1     0.       0
 H                    5     1.07753  3     180.     2     0.       0
 H                    6     1.07753  4     180.     1     0.       0
 H                    7     1.07753  5     180.     2     0.       0
 H                    8     1.07753  6     180.     1     0.       0
 
                          Input orientation:                          
 ---------------------------------------------------------------------
 Center     Atomic      Atomic             Coordinates (Angstroms)
 Number     Number       Type             X           Y           Z
 ---------------------------------------------------------------------
      1          1           0        0.000000    0.000000    0.000000
      2          1           0        0.000000    0.000000    1.077525
      3          1           0        1.071623    0.000000   -0.112632
      4          1           0        1.071623    0.000000    0.964893
      5          1           0        2.143245    0.000000   -0.225264
      6          1           0        2.143245    0.000000    0.852261
      7          1           0        3.214868    0.000000   -0.337896
      8          1           0        3.214868    0.000000    0.739629
      9          1           0        4.286490    0.000000   -0.450528
     10          1           0        4.286490    0.000000    0.626997
 ---------------------------------------------------------------------
                    Distance matrix (angstroms):
                    1          2          3          4          5
     1  H    0.000000
     2  H    1.077525   0.000000
     3  H    1.077525   1.601515   0.000000
     4  H    1.442010   1.077525   1.077525   0.000000
     5  H    2.155051   2.508139   1.077525   1.601515   0.000000
     6  H    2.306480   2.155051   1.442010   1.077525   1.077525
     7  H    3.232576   3.512662   2.155051   2.508139   1.077525
     8  H    3.298852   3.232576   2.306480   2.155051   1.442010
     9  H    4.310102   4.550708   3.232576   3.512662   2.155051
    10  H    4.332104   4.310102   3.298852   3.232576   2.306480
                    6          7          8          9         10
     6  H    0.000000
     7  H    1.601515   0.000000
     8  H    1.077525   1.077525   0.000000
     9  H    2.508139   1.077525   1.601515   0.000000
    10  H    2.155051   1.442010   1.077525   1.077525   0.000000
 Stoichiometry    H10
 Framework group  C2H[SGH(H10)]
 Deg. of freedom     9
 Full point group                 C2H     NOp   4
 Largest Abelian subgroup         C2H     NOp   4
 Largest concise Abelian subgroup C2      NOp   2
                         Standard orientation:                         
 ---------------------------------------------------------------------
 Center     Atomic      Atomic             Coordinates (Angstroms)
 Number     Number       Type             X           Y           Z
 ---------------------------------------------------------------------
      1          1           0        2.143245    0.313499   -0.000000
      2          1           0        2.143245   -0.764027   -0.000000
      3          1           0        1.071623    0.426131   -0.000000
      4          1           0        1.071623   -0.651395   -0.000000
      5          1           0       -0.000000    0.538763   -0.000000
      6          1           0       -0.000000   -0.538763   -0.000000
      7          1           0       -1.071623    0.651395    0.000000
      8          1           0       -1.071623   -0.426131    0.000000
      9          1           0       -2.143245    0.764027    0.000000
     10          1           0       -2.143245   -0.313499    0.000000
 ---------------------------------------------------------------------
 Rotational constants (GHZ):    174.9381306     21.5610987     19.1952829
 General basis read from cards:  (5D, 7F)
 There are     5 symmetry adapted cartesian basis functions of AG  symmetry.
 There are     0 symmetry adapted cartesian basis functions of BG  symmetry.
 There are     0 symmetry adapted cartesian basis functions of AU  symmetry.
 There are     5 symmetry adapted cartesian basis functions of BU  symmetry.
 There are     5 symmetry adapted basis functions of AG  symmetry.
 There are     0 symmetry adapted basis functions of BG  symmetry.
 There are     0 symmetry adapted basis functions of AU  symmetry.
 There are     5 symmetry adapted basis functions of BU  symmetry.
    10 basis functions,   100 primitive gaussians,    10 cartesian basis functions
     5 alpha electrons        5 beta electrons
       nuclear repulsion energy        13.7294065509 Hartrees.
 NAtoms=   10 NActive=   10 NUniq=    5 SFac= 4.00D+00 NAtFMM=   60 NAOKFM=F Big=F
 Integral buffers will be    131072 words long.
 Regular integral format.
 Two-electron integral symmetry is turned on.
 One-electron integrals computed using PRISM.
 NBasis=    10 RedAO= T EigKep=  1.24D-01  NBF=     5     0     0     5
 NBsUse=    10 1.00D-06 EigRej= -1.00D+00 NBFU=     5     0     0     5
 Initial guess from the checkpoint file:  "h10.chk"
 B after Tr=     0.000000   -0.000000    0.000000
         Rot=    0.999880   -0.000000    0.000000    0.015514 Ang=   1.78 deg.
 Initial guess orbital symmetries:
       Occupied  (AG) (BU) (AG) (BU) (AG)
       Virtual   (BU) (BU) (AG) (AG) (BU)
 Keep R1 ints in memory in symmetry-blocked form, NReq=879315.
 Requested convergence on RMS density matrix=1.00D-08 within 128 cycles.
 Requested convergence on MAX density matrix=1.00D-06.
 Requested convergence on             energy=1.00D-06.
 No special actions if energy rises.
 SCF Done:  E(RHF) =  -4.88165414279     A.U. after    9 cycles
            NFock=  9  Conv=0.33D-08     -V/T= 1.9571
 Range of M.O.s used for correlation:     1    10
 NBasis=    10 NAE=     5 NBE=     5 NFC=     0 NFV=     0
 NROrb=     10 NOA=     5 NOB=     5 NVA=     5 NVB=     5
 Semi-Direct transformation.
 ModeAB=           4 MOrb=             5 LenV=     134107232
 LASXX=         1030 LTotXX=        1030 LenRXX=        2480
 LTotAB=        1450 MaxLAS=        1500 LenRXY=           0
 NonZer=        3510 LenScr=      655360 LnRSAI=        1500
 LnScr1=      655360 LExtra=           0 Total=      1314700
 MaxDsk=          -1 SrtSym=           T ITran=            3
 JobTyp=0 Pass  1:  I=   1 to   5.
 (rs|ai) integrals will be sorted in core.
 Spin components of T(2) and E(2):
     alpha-alpha T2 =       0.6924102508D-02 E2=     -0.9087441720D-02
     alpha-beta  T2 =       0.6189008641D-01 E2=     -0.8711400736D-01
     beta-beta   T2 =       0.6924102508D-02 E2=     -0.9087441720D-02
 ANorm=    0.1037178042D+01
 E2 =    -0.1052888908D+00 EUMP2 =    -0.49869430335872D+01
 Second order stability test of a single determinant RHF wave function:
 Stabil:  MDV=134217728
 ***********************************************************************
 Matrix         Lowest Root    Major Pairs
 ***********************************************************************
 Internal RHF     0.0668892    Stable
 RRHF --> CRHF    0.0062554    Stable
 RRHF --> RUHF   -0.1361676    5A=6B
 Not stable.
 ***********************************************************************

 **********************************************************************

            Population analysis using the SCF density.

 **********************************************************************

 Orbital symmetries:
       Occupied  (AG) (BU) (AG) (BU) (AG)
       Virtual   (BU) (BU) (AG) (AG) (BU)
 The electronic state is 1-AG.
 Alpha  occ. eigenvalues --   -0.87641  -0.74455  -0.52690  -0.46582  -0.30930
 Alpha virt. eigenvalues --   -0.01624   0.15717   0.36070   0.51656   0.88635
          Condensed to atoms (all electrons):
               1          2          3          4          5          6
     1  H    0.860299  -0.054034   0.459524  -0.173679  -0.021830  -0.075091
     2  H   -0.054034   0.750098  -0.148808   0.440781  -0.048012  -0.008019
     3  H    0.459524  -0.148808   1.048709  -0.373312   0.211156  -0.131348
     4  H   -0.173679   0.440781  -0.373312   1.032454  -0.088883   0.227576
     5  H   -0.021830  -0.048012   0.211156  -0.088883   0.851498   0.096316
     6  H   -0.075091  -0.008019  -0.131348   0.227576   0.096316   0.851498
     7  H   -0.012730   0.005686  -0.043722   0.018072   0.227576  -0.088883
     8  H    0.007399  -0.011623   0.016517  -0.043722  -0.131348   0.211156
     9  H   -0.000638   0.001935  -0.011623   0.005686  -0.008019  -0.048012
    10  H    0.003314  -0.000638   0.007399  -0.012730  -0.075091  -0.021830
               7          8          9         10
     1  H   -0.012730   0.007399  -0.000638   0.003314
     2  H    0.005686  -0.011623   0.001935  -0.000638
     3  H   -0.043722   0.016517  -0.011623   0.007399
     4  H    0.018072  -0.043722   0.005686  -0.012730
     5  H    0.227576  -0.131348  -0.008019  -0.075091
     6  H   -0.088883   0.211156  -0.048012  -0.021830
     7  H    1.032454  -0.373312   0.440781  -0.173679
     8  H   -0.373312   1.048709  -0.148808   0.459524
     9  H    0.440781  -0.148808   0.750098  -0.054034
    10  H   -0.173679   0.459524  -0.054034   0.860299
 Mulliken charges:
               1
     1  H    0.007467
     2  H    0.072634
     3  H   -0.034492
     4  H   -0.032245
     5  H   -0.013364
     6  H   -0.013364
     7  H   -0.032245
     8  H   -0.034492
     9  H    0.072634
    10  H    0.007467
 Sum of Mulliken charges =  -0.00000
 Mulliken charges with hydrogens summed into heavy atoms:
               1
 Electronic spatial extent (au):  <R**2>=            123.2397
 Charge=             -0.0000 electrons
 Dipole moment (field-independent basis, Debye):
    X=             -0.0000    Y=             -0.0000    Z=              0.0000  Tot=              0.0000
 Quadrupole moment (field-independent basis, Debye-Ang):
   XX=            -10.1486   YY=            -17.1786   ZZ=            -12.9561
   XY=             -1.5397   XZ=             -0.0000   YZ=              0.0000
 Traceless Quadrupole moment (field-independent basis, Debye-Ang):
   XX=              3.2792   YY=             -3.7508   ZZ=              0.4716
   XY=             -1.5397   XZ=             -0.0000   YZ=              0.0000
 Octapole moment (field-independent basis, Debye-Ang**2):
  XXX=             -0.0000  YYY=             -0.0000  ZZZ=             -0.0000  XYY=             -0.0000
  XXY=              0.0000  XXZ=             -0.0000  XZZ=             -0.0000  YZZ=             -0.0000
  YYZ=             -0.0000  XYZ=             -0.0000
 Hexadecapole moment (field-independent basis, Debye-Ang**3):
 XXXX=           -161.3348 YYYY=            -52.1727 ZZZZ=            -15.6476 XXXY=             -0.8847
 XXXZ=              0.0000 YYYX=              9.9676 YYYZ=             -0.0000 ZZZX=              0.0000
 ZZZY=             -0.0000 XXYY=            -46.2487 XXZZ=            -35.0581 YYZZ=            -11.0085
 XXYZ=              0.0000 YYXZ=              0.0000 ZZXY=              2.7933
 N-N= 1.372940655090D+01 E-N=-3.647657837461D+01  KE= 5.100407545575D+00
 Symmetry AG   KE= 3.159227948622D+00
 Symmetry BG   KE= 0.000000000000D+00
 Symmetry AU   KE= 0.000000000000D+00
 Symmetry BU   KE= 1.941179596953D+00

 Test job not archived.
 1\1\GINC-SULU\Stability\RHF\Gen\H10\LCJ1\13-Feb-2017\0\\#rhf/gen scf(s
 ymm,tight,novaracc,noincfock,fulldiag) stable(crhf) guess=read geom=no
 crowd test\\hf stability analysis of h10 triangular lattice, y= 0.7210
 0522791448773\\0,1\H\H,1,1.077525381\H,1,1.077525381,2,96.\H,2,1.07752
 5381,1,84.,3,0.,0\H,3,1.077525381,1,180.,2,0.,0\H,4,1.077525381,2,180.
 ,1,0.,0\H,5,1.077525381,3,180.,2,0.,0\H,6,1.077525381,4,180.,1,0.,0\H,
 7,1.077525381,5,180.,2,0.,0\H,8,1.077525381,6,180.,1,0.,0\\Version=ES6
 4L-G09RevE.01\State=1-AG\HF=-4.8816541\MP2=-4.986943\RMSD=3.317e-09\Di
 pole=0.,0.,0.\Quadrupole=2.4380038,0.3506322,-2.7886359,0.,-1.1447297,
 0.\PG=C02H [SGH(H10)]\\@


 MARY HAD A LITTLE LAMB
      HIS FEET WERE BLACK AS SOOT,
           AND EVERYWHERE THAT MARY WENT
                HIS SOOTY FOOT HE PUT.

                    -- NONAME
 Job cpu time:       0 days  0 hours  0 minutes  0.7 seconds.
 File lengths (MBytes):  RWF=     84 Int=      0 D2E=      0 Chk=      2 Scr=      2
 Normal termination of Gaussian 09 at Mon Feb 13 14:57:31 2017.
