 Entering Gaussian System, Link 0=g09
 AtFile(1): H.gbs
            H     0
            S   10   1.00
               1000.000000000000            0.000068713567
                316.227766000000            0.000169141320
                100.000000000000            0.000823394812
                 31.622776600000            0.003425569236
                 10.000000000000            0.013951996000
                  3.162277660000            0.056909313560
                  1.000000000000            0.198286399900
                  0.316227766000            0.496922426700
                  0.100000000000            0.369846276400
                  0.031622776600            0.003752720039
            ****
 Initial command:
 /projects/guscus/apps/gau/g09-e1/g09/l1.exe "/users/lcj1/gaussian/h10/rhfstability/2rows/zmat/guessfrommix/alpha45/bck/Gau-31888.inp" -scrdir="/users/lcj1/gaussian/h10/rhfstability/2rows/zmat/guessfrommix/alpha45/bck/"
 Entering Link 1 = /projects/guscus/apps/gau/g09-e1/g09/l1.exe PID=     31889.
  
 Copyright (c) 1988,1990,1992,1993,1995,1998,2003,2009,2015,
            Gaussian, Inc.  All Rights Reserved.
  
 This is part of the Gaussian(R) 09 program.  It is based on
 the Gaussian(R) 03 system (copyright 2003, Gaussian, Inc.),
 the Gaussian(R) 98 system (copyright 1998, Gaussian, Inc.),
 the Gaussian(R) 94 system (copyright 1995, Gaussian, Inc.),
 the Gaussian 92(TM) system (copyright 1992, Gaussian, Inc.),
 the Gaussian 90(TM) system (copyright 1990, Gaussian, Inc.),
 the Gaussian 88(TM) system (copyright 1988, Gaussian, Inc.),
 the Gaussian 86(TM) system (copyright 1986, Carnegie Mellon
 University), and the Gaussian 82(TM) system (copyright 1983,
 Carnegie Mellon University). Gaussian is a federally registered
 trademark of Gaussian, Inc.
  
 This software contains proprietary and confidential information,
 including trade secrets, belonging to Gaussian, Inc.
  
 This software is provided under written license and may be
 used, copied, transmitted, or stored only in accord with that
 written license.
  
 The following legend is applicable only to US Government
 contracts under FAR:
  
                    RESTRICTED RIGHTS LEGEND
  
 Use, reproduction and disclosure by the US Government is
 subject to restrictions as set forth in subparagraphs (a)
 and (c) of the Commercial Computer Software - Restricted
 Rights clause in FAR 52.227-19.
  
 Gaussian, Inc.
 340 Quinnipiac St., Bldg. 40, Wallingford CT 06492
  
  
 ---------------------------------------------------------------
 Warning -- This program may not be used in any manner that
 competes with the business of Gaussian, Inc. or will provide
 assistance to any competitor of Gaussian, Inc.  The licensee
 of this program is prohibited from giving any competitor of
 Gaussian, Inc. access to this program.  By using this program,
 the user acknowledges that Gaussian, Inc. is engaged in the
 business of creating and licensing software in the field of
 computational chemistry and represents and warrants to the
 licensee that it is not a competitor of Gaussian, Inc. and that
 it will not use this program in any manner prohibited above.
 ---------------------------------------------------------------
  

 Cite this work as:
 Gaussian 09, Revision E.01,
 M. J. Frisch, G. W. Trucks, H. B. Schlegel, G. E. Scuseria, 
 M. A. Robb, J. R. Cheeseman, G. Scalmani, V. Barone, B. Mennucci, 
 G. A. Petersson, H. Nakatsuji, M. Caricato, X. Li, H. P. Hratchian, 
 A. F. Izmaylov, J. Bloino, G. Zheng, J. L. Sonnenberg, M. Hada, 
 M. Ehara, K. Toyota, R. Fukuda, J. Hasegawa, M. Ishida, T. Nakajima, 
 Y. Honda, O. Kitao, H. Nakai, T. Vreven, J. A. Montgomery, Jr., 
 J. E. Peralta, F. Ogliaro, M. Bearpark, J. J. Heyd, E. Brothers, 
 K. N. Kudin, V. N. Staroverov, T. Keith, R. Kobayashi, J. Normand, 
 K. Raghavachari, A. Rendell, J. C. Burant, S. S. Iyengar, J. Tomasi, 
 M. Cossi, N. Rega, J. M. Millam, M. Klene, J. E. Knox, J. B. Cross, 
 V. Bakken, C. Adamo, J. Jaramillo, R. Gomperts, R. E. Stratmann, 
 O. Yazyev, A. J. Austin, R. Cammi, C. Pomelli, J. W. Ochterski, 
 R. L. Martin, K. Morokuma, V. G. Zakrzewski, G. A. Voth, 
 P. Salvador, J. J. Dannenberg, S. Dapprich, A. D. Daniels, 
 O. Farkas, J. B. Foresman, J. V. Ortiz, J. Cioslowski, 
 and D. J. Fox, Gaussian, Inc., Wallingford CT, 2013.
 
 ******************************************
 Gaussian 09:  ES64L-G09RevE.01 30-Nov-2015
                13-Feb-2017 
 ******************************************
 %chk=h10.chk
 ----------------------------------------------------------------------
 #rhf/gen scf(symm,tight,novaracc,noincfock,fulldiag) stable(crhf) gues
 s=read geom=nocrowd test
 ----------------------------------------------------------------------
 1/38=1/1;
 2/12=1,17=6,18=5,40=1/2;
 3/5=7,16=1,25=1,30=1,116=1/1,2,3;
 4/5=1,9=4/1;
 5/5=100002,15=2,16=1,32=2,38=6/2;
 8/6=1,10=90,11=11/1,4;
 9/8=4,13=1/2;
 6/7=2,8=2,9=2,10=2,28=1/1;
 99/5=1,9=1/99;
 ----------------------------------------------------------------------
 hf stability analysis of h10 triangular lattice, y= 0.5423787099077283
 0
 ----------------------------------------------------------------------
 Symbolic Z-matrix:
 Charge =  0 Multiplicity = 1
 H
 H                    1     1.19469 
 H                    1     1.19469  2     126. 
 H                    2     1.19469  1     54.      3     0.       0
 H                    3     1.19469  1     180.     2     0.       0
 H                    4     1.19469  2     180.     1     0.       0
 H                    5     1.19469  3     180.     2     0.       0
 H                    6     1.19469  4     180.     1     0.       0
 H                    7     1.19469  5     180.     2     0.       0
 H                    8     1.19469  6     180.     1     0.       0
 
                          Input orientation:                          
 ---------------------------------------------------------------------
 Center     Atomic      Atomic             Coordinates (Angstroms)
 Number     Number       Type             X           Y           Z
 ---------------------------------------------------------------------
      1          1           0        0.000000    0.000000    0.000000
      2          1           0        0.000000    0.000000    1.194692
      3          1           0        0.966526    0.000000   -0.702222
      4          1           0        0.966526    0.000000    0.492470
      5          1           0        1.933052    0.000000   -1.404444
      6          1           0        1.933052    0.000000   -0.209753
      7          1           0        2.899578    0.000000   -2.106667
      8          1           0        2.899578    0.000000   -0.911975
      9          1           0        3.866104    0.000000   -2.808889
     10          1           0        3.866104    0.000000   -1.614197
 ---------------------------------------------------------------------
                    Distance matrix (angstroms):
                    1          2          3          4          5
     1  H    0.000000
     2  H    1.194692   0.000000
     3  H    1.194692   2.128956   0.000000
     4  H    1.084757   1.194692   1.194692   0.000000
     5  H    2.389383   3.239166   1.194692   2.128956   0.000000
     6  H    1.944399   2.389383   1.084757   1.194692   1.194692
     7  H    3.584075   4.393918   2.389383   3.239166   1.194692
     8  H    3.039613   3.584075   1.944399   2.389383   1.084757
     9  H    4.778767   5.565556   3.584075   4.393918   2.389383
    10  H    4.189557   4.778767   3.039613   3.584075   1.944399
                    6          7          8          9         10
     6  H    0.000000
     7  H    2.128956   0.000000
     8  H    1.194692   1.194692   0.000000
     9  H    3.239166   1.194692   2.128956   0.000000
    10  H    2.389383   1.084757   1.194692   1.194692   0.000000
 Stoichiometry    H10
 Framework group  C2H[SGH(H10)]
 Deg. of freedom     9
 Full point group                 C2H     NOp   4
 Largest Abelian subgroup         C2H     NOp   4
 Largest concise Abelian subgroup C2      NOp   2
                         Standard orientation:                         
 ---------------------------------------------------------------------
 Center     Atomic      Atomic             Coordinates (Angstroms)
 Number     Number       Type             X           Y           Z
 ---------------------------------------------------------------------
      1          1           0        1.933052   -0.807098    0.000000
      2          1           0        1.933052   -2.001790    0.000000
      3          1           0        0.966526   -0.104876   -0.000000
      4          1           0        0.966526   -1.299568    0.000000
      5          1           0        0.000000    0.597346   -0.000000
      6          1           0       -0.000000   -0.597346   -0.000000
      7          1           0       -0.966526    1.299568    0.000000
      8          1           0       -0.966526    0.104876   -0.000000
      9          1           0       -1.933052    2.001790    0.000000
     10          1           0       -1.933052    0.807098    0.000000
 ---------------------------------------------------------------------
 Rotational constants (GHZ):    224.7752762     16.7805751     15.6148501
 General basis read from cards:  (5D, 7F)
 There are     5 symmetry adapted cartesian basis functions of AG  symmetry.
 There are     0 symmetry adapted cartesian basis functions of BG  symmetry.
 There are     0 symmetry adapted cartesian basis functions of AU  symmetry.
 There are     5 symmetry adapted cartesian basis functions of BU  symmetry.
 There are     5 symmetry adapted basis functions of AG  symmetry.
 There are     0 symmetry adapted basis functions of BG  symmetry.
 There are     0 symmetry adapted basis functions of AU  symmetry.
 There are     5 symmetry adapted basis functions of BU  symmetry.
    10 basis functions,   100 primitive gaussians,    10 cartesian basis functions
     5 alpha electrons        5 beta electrons
       nuclear repulsion energy        12.9616844231 Hartrees.
 NAtoms=   10 NActive=   10 NUniq=    5 SFac= 4.00D+00 NAtFMM=   60 NAOKFM=F Big=F
 Integral buffers will be    131072 words long.
 Regular integral format.
 Two-electron integral symmetry is turned on.
 One-electron integrals computed using PRISM.
 NBasis=    10 RedAO= T EigKep=  1.94D-01  NBF=     5     0     0     5
 NBsUse=    10 1.00D-06 EigRej= -1.00D+00 NBFU=     5     0     0     5
 Initial guess from the checkpoint file:  "h10.chk"
 B after Tr=    -0.000000   -0.000000   -0.000000
         Rot=    0.999880   -0.000000    0.000000    0.015514 Ang=   1.78 deg.
 Initial guess orbital symmetries:
       Occupied  (AG) (BU) (AG) (BU) (AG)
       Virtual   (BU) (AG) (BU) (BU) (AG)
 Keep R1 ints in memory in symmetry-blocked form, NReq=878699.
 Requested convergence on RMS density matrix=1.00D-08 within 128 cycles.
 Requested convergence on MAX density matrix=1.00D-06.
 Requested convergence on             energy=1.00D-06.
 No special actions if energy rises.
 SCF Done:  E(RHF) =  -4.67719612725     A.U. after   12 cycles
            NFock= 12  Conv=0.13D-08     -V/T= 1.8950
 Range of M.O.s used for correlation:     1    10
 NBasis=    10 NAE=     5 NBE=     5 NFC=     0 NFV=     0
 NROrb=     10 NOA=     5 NOB=     5 NVA=     5 NVB=     5
 Semi-Direct transformation.
 ModeAB=           4 MOrb=             5 LenV=     134107862
 LASXX=         1030 LTotXX=        1030 LenRXX=        2480
 LTotAB=        1450 MaxLAS=        1500 LenRXY=           0
 NonZer=        3510 LenScr=      655360 LnRSAI=        1500
 LnScr1=      655360 LExtra=           0 Total=      1314700
 MaxDsk=          -1 SrtSym=           T ITran=            3
 JobTyp=0 Pass  1:  I=   1 to   5.
 (rs|ai) integrals will be sorted in core.
 Spin components of T(2) and E(2):
     alpha-alpha T2 =       0.5073869429D-02 E2=     -0.6612706307D-02
     alpha-beta  T2 =       0.9863384710D-01 E2=     -0.1108486944D+00
     beta-beta   T2 =       0.5073869429D-02 E2=     -0.6612706307D-02
 ANorm=    0.1052986983D+01
 E2 =    -0.1240741070D+00 EUMP2 =    -0.48012702342553D+01
 Second order stability test of a single determinant RHF wave function:
 Stabil:  MDV=134217728
 ***********************************************************************
 Matrix         Lowest Root    Major Pairs
 ***********************************************************************
 Internal RHF    -0.0598195    5A=6A
 RRHF --> CRHF   -0.1148756    5A=6A
 RRHF --> RUHF   -0.2189157    5A=6B
 Not stable.
 ***********************************************************************

 **********************************************************************

            Population analysis using the SCF density.

 **********************************************************************

 Orbital symmetries:
       Occupied  (AG) (BU) (AG) (BU) (AG)
       Virtual   (BU) (AG) (BU) (BU) (AG)
 The electronic state is 1-AG.
 Alpha  occ. eigenvalues --   -0.84703  -0.72686  -0.54563  -0.36560  -0.21645
 Alpha virt. eigenvalues --   -0.07578   0.19627   0.23661   0.46108   0.55776
          Condensed to atoms (all electrons):
               1          2          3          4          5          6
     1  H    1.156842  -0.236115   0.479649  -0.115046  -0.069286  -0.162268
     2  H   -0.236115   0.894921  -0.157283   0.405908  -0.005343   0.042716
     3  H    0.479649  -0.157283   1.333965  -0.254623   0.074044  -0.233955
     4  H   -0.115046   0.405908  -0.254623   0.796975  -0.013516   0.144840
     5  H   -0.069286  -0.005343   0.074044  -0.013516   0.820853   0.284827
     6  H   -0.162268   0.042716  -0.233955   0.144840   0.284827   0.820853
     7  H   -0.005874   0.001153  -0.016380   0.005066   0.144840  -0.013516
     8  H    0.007885  -0.000245  -0.071389  -0.016380  -0.233955   0.074044
     9  H   -0.000717   0.000147  -0.000245   0.001153   0.042716  -0.005343
    10  H    0.006708  -0.000717   0.007885  -0.005874  -0.162268  -0.069286
               7          8          9         10
     1  H   -0.005874   0.007885  -0.000717   0.006708
     2  H    0.001153  -0.000245   0.000147  -0.000717
     3  H   -0.016380  -0.071389  -0.000245   0.007885
     4  H    0.005066  -0.016380   0.001153  -0.005874
     5  H    0.144840  -0.233955   0.042716  -0.162268
     6  H   -0.013516   0.074044  -0.005343  -0.069286
     7  H    0.796975  -0.254623   0.405908  -0.115046
     8  H   -0.254623   1.333965  -0.157283   0.479649
     9  H    0.405908  -0.157283   0.894921  -0.236115
    10  H   -0.115046   0.479649  -0.236115   1.156842
 Mulliken charges:
               1
     1  H   -0.061777
     2  H    0.054858
     3  H   -0.161667
     4  H    0.051499
     5  H    0.117088
     6  H    0.117088
     7  H    0.051499
     8  H   -0.161667
     9  H    0.054858
    10  H   -0.061777
 Sum of Mulliken charges =   0.00000
 Mulliken charges with hydrogens summed into heavy atoms:
               1
 Electronic spatial extent (au):  <R**2>=            145.3677
 Charge=              0.0000 electrons
 Dipole moment (field-independent basis, Debye):
    X=             -0.0000    Y=             -0.0000    Z=              0.0000  Tot=              0.0000
 Quadrupole moment (field-independent basis, Debye-Ang):
   XX=            -15.3455   YY=            -12.9767   ZZ=            -12.9523
   XY=             -3.1030   XZ=             -0.0000   YZ=             -0.0000
 Traceless Quadrupole moment (field-independent basis, Debye-Ang):
   XX=             -1.5873   YY=              0.7814   ZZ=              0.8059
   XY=             -3.1030   XZ=             -0.0000   YZ=             -0.0000
 Octapole moment (field-independent basis, Debye-Ang**2):
  XXX=             -0.0000  YYY=              0.0000  ZZZ=             -0.0000  XYY=             -0.0000
  XXY=              0.0000  XXZ=              0.0000  XZZ=              0.0000  YZZ=             -0.0000
  YYZ=             -0.0000  XYZ=             -0.0000
 Hexadecapole moment (field-independent basis, Debye-Ang**3):
 XXXX=           -158.4379 YYYY=           -136.8105 ZZZZ=            -15.6820 XXXY=             31.9600
 XXXZ=              0.0000 YYYX=             50.1492 YYYZ=             -0.0000 ZZZX=              0.0000
 ZZZY=             -0.0000 XXYY=            -36.6759 XXZZ=            -30.3324 YYZZ=            -23.6122
 XXYZ=             -0.0000 YYXZ=              0.0000 ZZXY=             17.0147
 N-N= 1.296168442307D+01 E-N=-3.510064015195D+01  KE= 5.226022090144D+00
 Symmetry AG   KE= 3.200570578862D+00
 Symmetry BG   KE= 0.000000000000D+00
 Symmetry AU   KE= 0.000000000000D+00
 Symmetry BU   KE= 2.025451511282D+00

 Test job not archived.
 1\1\GINC-SULU\Stability\RHF\Gen\H10\LCJ1\13-Feb-2017\0\\#rhf/gen scf(s
 ymm,tight,novaracc,noincfock,fulldiag) stable(crhf) guess=read geom=no
 crowd test\\hf stability analysis of h10 triangular lattice, y= 0.5423
 7870990772830\\0,1\H\H,1,1.1946917309\H,1,1.1946917309,2,126.\H,2,1.19
 46917309,1,54.,3,0.,0\H,3,1.1946917309,1,180.,2,0.,0\H,4,1.1946917309,
 2,180.,1,0.,0\H,5,1.1946917309,3,180.,2,0.,0\H,6,1.1946917309,4,180.,1
 ,0.,0\H,7,1.1946917309,5,180.,2,0.,0\H,8,1.1946917309,6,180.,1,0.,0\\V
 ersion=ES64L-G09RevE.01\State=1-AG\HF=-4.6771961\MP2=-4.8012702\RMSD=1
 .326e-09\Dipole=0.,0.,0.\Quadrupole=-1.1801304,0.5991418,0.5809886,0.,
 -2.3069972,0.\PG=C02H [SGH(H10)]\\@


 ADAM SMITH SAID, "THE REAL PRICE OF ANYTHING IS THE TOIL AND TROUBLE
 OF ACQUIRING IT."  BUT IN ALL UNDERTAKINGS WITH NATURE WE SHOULD FIRST
 READ CAREFULLY THE SMALL PRINT IN THE CONTRACT. THIS MIGHT DISCLOSE
 THAT THE REAL PRICE IS TO BE PAID BY THOSE WHO INHERIT THE DEPLETION
 AND DESPOILATION THAT FOLLOWS.
                               -- E. R. HARRISON IN "COSMOLOGY" (1980)
 Job cpu time:       0 days  0 hours  0 minutes  0.7 seconds.
 File lengths (MBytes):  RWF=     84 Int=      0 D2E=      0 Chk=      2 Scr=      2
 Normal termination of Gaussian 09 at Mon Feb 13 14:57:52 2017.
