 Entering Gaussian System, Link 0=g09
 AtFile(1): H.gbs
            H     0
            S   10   1.00
               1000.000000000000            0.000068713567
                316.227766000000            0.000169141320
                100.000000000000            0.000823394812
                 31.622776600000            0.003425569236
                 10.000000000000            0.013951996000
                  3.162277660000            0.056909313560
                  1.000000000000            0.198286399900
                  0.316227766000            0.496922426700
                  0.100000000000            0.369846276400
                  0.031622776600            0.003752720039
            ****
 Initial command:
 /projects/guscus/apps/gau/g09-e1/g09/l1.exe "/users/lcj1/gaussian/h10/2rows_uhf/singlet/tripguessmix/followguesses/alpha20/Gau-9190.inp" -scrdir="/users/lcj1/gaussian/h10/2rows_uhf/singlet/tripguessmix/followguesses/alpha20/"
 Entering Link 1 = /projects/guscus/apps/gau/g09-e1/g09/l1.exe PID=      9191.
  
 Copyright (c) 1988,1990,1992,1993,1995,1998,2003,2009,2015,
            Gaussian, Inc.  All Rights Reserved.
  
 This is part of the Gaussian(R) 09 program.  It is based on
 the Gaussian(R) 03 system (copyright 2003, Gaussian, Inc.),
 the Gaussian(R) 98 system (copyright 1998, Gaussian, Inc.),
 the Gaussian(R) 94 system (copyright 1995, Gaussian, Inc.),
 the Gaussian 92(TM) system (copyright 1992, Gaussian, Inc.),
 the Gaussian 90(TM) system (copyright 1990, Gaussian, Inc.),
 the Gaussian 88(TM) system (copyright 1988, Gaussian, Inc.),
 the Gaussian 86(TM) system (copyright 1986, Carnegie Mellon
 University), and the Gaussian 82(TM) system (copyright 1983,
 Carnegie Mellon University). Gaussian is a federally registered
 trademark of Gaussian, Inc.
  
 This software contains proprietary and confidential information,
 including trade secrets, belonging to Gaussian, Inc.
  
 This software is provided under written license and may be
 used, copied, transmitted, or stored only in accord with that
 written license.
  
 The following legend is applicable only to US Government
 contracts under FAR:
  
                    RESTRICTED RIGHTS LEGEND
  
 Use, reproduction and disclosure by the US Government is
 subject to restrictions as set forth in subparagraphs (a)
 and (c) of the Commercial Computer Software - Restricted
 Rights clause in FAR 52.227-19.
  
 Gaussian, Inc.
 340 Quinnipiac St., Bldg. 40, Wallingford CT 06492
  
  
 ---------------------------------------------------------------
 Warning -- This program may not be used in any manner that
 competes with the business of Gaussian, Inc. or will provide
 assistance to any competitor of Gaussian, Inc.  The licensee
 of this program is prohibited from giving any competitor of
 Gaussian, Inc. access to this program.  By using this program,
 the user acknowledges that Gaussian, Inc. is engaged in the
 business of creating and licensing software in the field of
 computational chemistry and represents and warrants to the
 licensee that it is not a competitor of Gaussian, Inc. and that
 it will not use this program in any manner prohibited above.
 ---------------------------------------------------------------
  

 Cite this work as:
 Gaussian 09, Revision E.01,
 M. J. Frisch, G. W. Trucks, H. B. Schlegel, G. E. Scuseria, 
 M. A. Robb, J. R. Cheeseman, G. Scalmani, V. Barone, B. Mennucci, 
 G. A. Petersson, H. Nakatsuji, M. Caricato, X. Li, H. P. Hratchian, 
 A. F. Izmaylov, J. Bloino, G. Zheng, J. L. Sonnenberg, M. Hada, 
 M. Ehara, K. Toyota, R. Fukuda, J. Hasegawa, M. Ishida, T. Nakajima, 
 Y. Honda, O. Kitao, H. Nakai, T. Vreven, J. A. Montgomery, Jr., 
 J. E. Peralta, F. Ogliaro, M. Bearpark, J. J. Heyd, E. Brothers, 
 K. N. Kudin, V. N. Staroverov, T. Keith, R. Kobayashi, J. Normand, 
 K. Raghavachari, A. Rendell, J. C. Burant, S. S. Iyengar, J. Tomasi, 
 M. Cossi, N. Rega, J. M. Millam, M. Klene, J. E. Knox, J. B. Cross, 
 V. Bakken, C. Adamo, J. Jaramillo, R. Gomperts, R. E. Stratmann, 
 O. Yazyev, A. J. Austin, R. Cammi, C. Pomelli, J. W. Ochterski, 
 R. L. Martin, K. Morokuma, V. G. Zakrzewski, G. A. Voth, 
 P. Salvador, J. J. Dannenberg, S. Dapprich, A. D. Daniels, 
 O. Farkas, J. B. Foresman, J. V. Ortiz, J. Cioslowski, 
 and D. J. Fox, Gaussian, Inc., Wallingford CT, 2013.
 
 ******************************************
 Gaussian 09:  ES64L-G09RevE.01 30-Nov-2015
                28-Feb-2017 
 ******************************************
 %chk=h10.chk
 ----------------------------------------------------------------------
 #uhf/gen scf(tight,novaracc,noincfock,fulldiag, ) stable(crhf) guess=r
 ead geom=nocrowd test
 ----------------------------------------------------------------------
 1/38=1/1;
 2/12=1,17=6,18=5,40=1/2;
 3/5=7,16=1,25=1,30=1,116=2/1,2,3;
 4/5=1/1;
 5/5=100002,16=1,32=2,38=6/2;
 8/6=1,10=90,11=11/1,4;
 9/8=4,13=1/2;
 6/7=2,8=2,9=2,10=2,28=1/1;
 99/5=1,9=1/99;
 ----------------------------------------------------------------------
 hf stability analysis of h10 triangular lattice, y= 1.2029713290986654
  alpha= 68.250000000000000
 ----------------------------------------------------------------------
 Symbolic Z-matrix:
 Charge =  0 Multiplicity = 1
 H
 H                    1     1.29518 
 H                    1     1.29518  2     43.5 
 H                    2     1.29518  1     136.5    3     0.       0
 H                    3     1.29518  1     180.     2     0.       0
 H                    4     1.29518  2     180.     1     0.       0
 H                    5     1.29518  3     180.     2     0.       0
 H                    6     1.29518  4     180.     1     0.       0
 H                    7     1.29518  5     180.     2     0.       0
 H                    8     1.29518  6     180.     1     0.       0
 
                          Input orientation:                          
 ---------------------------------------------------------------------
 Center     Atomic      Atomic             Coordinates (Angstroms)
 Number     Number       Type             X           Y           Z
 ---------------------------------------------------------------------
      1          1           0        0.000000    0.000000    0.000000
      2          1           0        0.000000    0.000000    1.295175
      3          1           0        0.891540    0.000000    0.939487
      4          1           0        0.891540    0.000000    2.234662
      5          1           0        1.783080    0.000000    1.878974
      6          1           0        1.783080    0.000000    3.174150
      7          1           0        2.674620    0.000000    2.818461
      8          1           0        2.674620    0.000000    4.113637
      9          1           0        3.566160    0.000000    3.757948
     10          1           0        3.566160    0.000000    5.053124
 ---------------------------------------------------------------------
                    Distance matrix (angstroms):
                    1          2          3          4          5
     1  H    0.000000
     2  H    1.295175   0.000000
     3  H    1.295175   0.959874   0.000000
     4  H    2.405943   1.295175   1.295175   0.000000
     5  H    2.590351   1.876218   1.295175   0.959874   0.000000
     6  H    3.640687   2.590351   2.405943   1.295175   1.295175
     7  H    3.885526   3.077985   2.590351   1.876218   1.295175
     8  H    4.906689   3.885526   3.640687   2.590351   2.405943
     9  H    5.180702   4.333906   3.885526   3.077985   2.590351
    10  H    6.184784   5.180702   4.906689   3.885526   3.640687
                    6          7          8          9         10
     6  H    0.000000
     7  H    0.959874   0.000000
     8  H    1.295175   1.295175   0.000000
     9  H    1.876218   1.295175   0.959874   0.000000
    10  H    2.590351   2.405943   1.295175   1.295175   0.000000
 Stoichiometry    H10
 Framework group  C2H[SGH(H10)]
 Deg. of freedom     9
 Full point group                 C2H     NOp   4
 Largest Abelian subgroup         C2H     NOp   4
 Largest concise Abelian subgroup C2      NOp   2
                         Standard orientation:                         
 ---------------------------------------------------------------------
 Center     Atomic      Atomic             Coordinates (Angstroms)
 Number     Number       Type             X           Y           Z
 ---------------------------------------------------------------------
      1          1           0        1.783080    2.526562    0.000000
      2          1           0        1.783080    1.231386    0.000000
      3          1           0        0.891540    1.587075    0.000000
      4          1           0        0.891540    0.291899    0.000000
      5          1           0        0.000000    0.647588    0.000000
      6          1           0       -0.000000   -0.647588    0.000000
      7          1           0       -0.891540   -0.291899    0.000000
      8          1           0       -0.891540   -1.587075    0.000000
      9          1           0       -1.783080   -1.231386    0.000000
     10          1           0       -1.783080   -2.526562    0.000000
 ---------------------------------------------------------------------
 Rotational constants (GHZ):    269.9246706     13.9737421     13.2859416
 General basis read from cards:  (5D, 7F)
 There are     5 symmetry adapted cartesian basis functions of AG  symmetry.
 There are     0 symmetry adapted cartesian basis functions of BG  symmetry.
 There are     0 symmetry adapted cartesian basis functions of AU  symmetry.
 There are     5 symmetry adapted cartesian basis functions of BU  symmetry.
 There are     5 symmetry adapted basis functions of AG  symmetry.
 There are     0 symmetry adapted basis functions of BG  symmetry.
 There are     0 symmetry adapted basis functions of AU  symmetry.
 There are     5 symmetry adapted basis functions of BU  symmetry.
    10 basis functions,   100 primitive gaussians,    10 cartesian basis functions
     5 alpha electrons        5 beta electrons
       nuclear repulsion energy        12.4206374134 Hartrees.
 NAtoms=   10 NActive=   10 NUniq=    5 SFac= 4.00D+00 NAtFMM=   60 NAOKFM=F Big=F
 Integral buffers will be    131072 words long.
 Regular integral format.
 Two-electron integral symmetry is turned on.
 One-electron integrals computed using PRISM.
 NBasis=    10 RedAO= T EigKep=  1.88D-01  NBF=     5     0     0     5
 NBsUse=    10 1.00D-06 EigRej= -1.00D+00 NBFU=     5     0     0     5
 Initial guess from the checkpoint file:  "h10.chk"
 B after Tr=     0.000000    0.000000    0.000000
         Rot=    0.999992   -0.000000    0.000000   -0.003879 Ang=  -0.44 deg.
 Initial guess orbital symmetries:
 Alpha Orbitals:
       Occupied  (BG) (BG) (BG) (BG) (BG)
       Virtual   (BG) (BG) (BG) (BG) (BG)
 Beta  Orbitals:
       Occupied  (BG) (BG) (BG) (BG) (BG)
       Virtual   (BG) (BG) (BG) (BG) (BG)
 Initial guess <Sx>= 0.0000 <Sy>= 0.0000 <Sz>= 0.0000 <S**2>= 1.2429 S= 0.7219
 Keep R1 and R2 ints in memory in symmetry-blocked form, NReq=877591.
 Requested convergence on RMS density matrix=1.00D-08 within 128 cycles.
 Requested convergence on MAX density matrix=1.00D-06.
 Requested convergence on             energy=1.00D-06.
 No special actions if energy rises.
 An orbital has undefined symmetry, so N**3 symmetry is turned off.
 Density matrix breaks symmetry, PCut= 1.00D-04
 Density matrix has no symmetry -- integrals replicated.
 Density matrix breaks symmetry, PCut= 1.00D-07
 Density matrix has no symmetry -- integrals replicated.
 Density matrix breaks symmetry, PCut= 1.00D-07
 Density matrix has no symmetry -- integrals replicated.
 Density matrix breaks symmetry, PCut= 1.00D-07
 Density matrix has no symmetry -- integrals replicated.
 Density matrix breaks symmetry, PCut= 1.00D-07
 Density matrix has no symmetry -- integrals replicated.
 Density matrix breaks symmetry, PCut= 1.00D-07
 Density matrix has no symmetry -- integrals replicated.
 Density matrix breaks symmetry, PCut= 1.00D-07
 Density matrix has no symmetry -- integrals replicated.
 Density matrix breaks symmetry, PCut= 1.00D-07
 Density matrix has no symmetry -- integrals replicated.
 Density matrix breaks symmetry, PCut= 1.00D-07
 Density matrix has no symmetry -- integrals replicated.
 Density matrix breaks symmetry, PCut= 1.00D-07
 Density matrix has no symmetry -- integrals replicated.
 Density matrix breaks symmetry, PCut= 1.00D-07
 Density matrix has no symmetry -- integrals replicated.
 Density matrix breaks symmetry, PCut= 1.00D-07
 Density matrix has no symmetry -- integrals replicated.
 Density matrix breaks symmetry, PCut= 1.00D-07
 Density matrix has no symmetry -- integrals replicated.
 Density matrix breaks symmetry, PCut= 1.00D-07
 Density matrix has no symmetry -- integrals replicated.
 Density matrix breaks symmetry, PCut= 1.00D-07
 Density matrix has no symmetry -- integrals replicated.
 Density matrix breaks symmetry, PCut= 1.00D-07
 Density matrix has no symmetry -- integrals replicated.
 SCF Done:  E(UHF) =  -4.83071038642     A.U. after   15 cycles
            NFock= 15  Conv=0.53D-08     -V/T= 1.9336
 <Sx>= 0.0000 <Sy>= 0.0000 <Sz>= 0.0000 <S**2>= 1.2564 S= 0.7274
 <L.S>= 0.000000000000E+00
 Annihilation of the first spin contaminant:
 S**2 before annihilation     1.2564,   after     2.3652
 Range of M.O.s used for correlation:     1    10
 NBasis=    10 NAE=     5 NBE=     5 NFC=     0 NFV=     0
 NROrb=     10 NOA=     5 NOB=     5 NVA=     5 NVB=     5
 Semi-Direct transformation.
 ModeAB=           2 MOrb=             5 LenV=     134109069
 LASXX=         1030 LTotXX=        1030 LenRXX=        1030
 LTotAB=        1825 MaxLAS=        2750 LenRXY=        2750
 NonZer=        2750 LenScr=      655360 LnRSAI=           0
 LnScr1=           0 LExtra=           0 Total=       659140
 MaxDsk=          -1 SrtSym=           F ITran=            3
 JobTyp=1 Pass  1:  I=   1 to   5.
 (rs|ai) integrals will be sorted in core.
 ModeAB=           2 MOrb=             5 LenV=     134109069
 LASXX=         1030 LTotXX=        1030 LenRXX=        2750
 LTotAB=         225 MaxLAS=        2750 LenRXY=         225
 NonZer=        2750 LenScr=      655360 LnRSAI=           0
 LnScr1=           0 LExtra=           0 Total=       658335
 MaxDsk=          -1 SrtSym=           F ITran=            3
 JobTyp=2 Pass  1:  I=   1 to   5.
 (rs|ai) integrals will be sorted in core.
 SymMOI:  orbitals are not symmetric.
 Spin components of T(2) and E(2):
     alpha-alpha T2 =       0.2775518497D-02 E2=     -0.3695973265D-02
     alpha-beta  T2 =       0.4764432832D-01 E2=     -0.6532983021D-01
     beta-beta   T2 =       0.2775518497D-02 E2=     -0.3695973265D-02
 ANorm=    0.1026253071D+01
 E2 =    -0.7272177674D-01 EUMP2 =    -0.49034321631624D+01
 (S**2,0)=  0.12564D+01           (S**2,1)=  0.11575D+01
 E(PUHF)=      -0.49144349627D+01        E(PMP2)=      -0.49859018694D+01
 Second order stability test of a single determinant UHF wave function:
 Stabil:  MDV=134217728
 ***********************************************************************
 Matrix         Lowest Root    Major Pairs
 ***********************************************************************
 Internal UHF     0.0407102    Stable
 RUHF --> CUHF (A)0.1284161    Stable
 RUHF --> CUHF (B)0.1284161    Stable



 RUHF --> GHF    -0.0518799    5A=6B 5B=6A 5A=8B 5B=8A 4A=7B 4B=7A 5A=7B 5B=7A 4B
 =6A 4A=6B 5A=9B 5B=9A 3B=8A 3A=8B 4B=8A 4A=8B 2B=9A 2A=9B 3B=7A 3A=7B 1A=10B 1B=
 10A 4B=9A 4A=9B
 Not stable.
 ***********************************************************************

 **********************************************************************

            Population analysis using the SCF density.

 **********************************************************************

 Orbital symmetries:
 Alpha Orbitals:
       Occupied  (BG) (BG) (BG) (BG) (BG)
       Virtual   (BG) (BG) (BG) (BG) (BG)
 Beta  Orbitals:
       Occupied  (BG) (BG) (BG) (BG) (BG)
       Virtual   (BG) (BG) (BG) (BG) (BG)
 Unable to determine electronic state:  partially filled degenerate orbitals.
 Alpha  occ. eigenvalues --   -0.82386  -0.70455  -0.56955  -0.36782  -0.27507
 Alpha virt. eigenvalues --    0.08429   0.16707   0.22075   0.38560   0.61482
  Beta  occ. eigenvalues --   -0.82386  -0.70455  -0.56955  -0.36782  -0.27507
  Beta virt. eigenvalues --    0.08429   0.16707   0.22075   0.38560   0.61482
          Condensed to atoms (all electrons):
               1          2          3          4          5          6
     1  H    0.913317   0.053895   0.130689  -0.085328  -0.026843   0.003195
     2  H    0.053895   0.921032  -0.059242   0.178606  -0.157983   0.010617
     3  H    0.130689  -0.059242   0.884832  -0.167874   0.225512  -0.054311
     4  H   -0.085328   0.178606  -0.167874   1.189208   0.074289   0.050047
     5  H   -0.026843  -0.157983   0.225512   0.074289   1.037214  -0.155084
     6  H    0.003195   0.010617  -0.054311   0.050047  -0.155084   1.037214
     7  H    0.004626  -0.008028  -0.000048  -0.137710   0.050047   0.074289
     8  H    0.000235   0.002623  -0.002092  -0.000048  -0.054311   0.225512
     9  H   -0.000127   0.000244   0.002623  -0.008028   0.010617  -0.157983
    10  H   -0.000056  -0.000127   0.000235   0.004626   0.003195  -0.026843
               7          8          9         10
     1  H    0.004626   0.000235  -0.000127  -0.000056
     2  H   -0.008028   0.002623   0.000244  -0.000127
     3  H   -0.000048  -0.002092   0.002623   0.000235
     4  H   -0.137710  -0.000048  -0.008028   0.004626
     5  H    0.050047  -0.054311   0.010617   0.003195
     6  H    0.074289   0.225512  -0.157983  -0.026843
     7  H    1.189208  -0.167874   0.178606  -0.085328
     8  H   -0.167874   0.884832  -0.059242   0.130689
     9  H    0.178606  -0.059242   0.921032   0.053895
    10  H   -0.085328   0.130689   0.053895   0.913317
          Atomic-Atomic Spin Densities.
               1          2          3          4          5          6
     1  H   -0.608661  -0.053302   0.114517   0.002802   0.025239  -0.005051
     2  H   -0.053302   0.741146  -0.204650   0.125205  -0.160982   0.021105
     3  H    0.114517  -0.204650   0.504592  -0.304480   0.126878  -0.005688
     4  H    0.002802   0.125205  -0.304480   0.498216  -0.154348   0.072239
     5  H    0.025239  -0.160982   0.126878  -0.154348   0.574914  -0.000000
     6  H   -0.005051   0.021105  -0.005688   0.072239  -0.000000  -0.574914
     7  H   -0.001005   0.001918   0.016018   0.000000  -0.072239   0.154348
     8  H   -0.000005   0.001298   0.000000  -0.016018   0.005688  -0.126878
     9  H    0.000258  -0.000000  -0.001298  -0.001918  -0.021105   0.160982
    10  H   -0.000000  -0.000258   0.000005   0.001005   0.005051  -0.025239
               7          8          9         10
     1  H   -0.001005  -0.000005   0.000258  -0.000000
     2  H    0.001918   0.001298  -0.000000  -0.000258
     3  H    0.016018   0.000000  -0.001298   0.000005
     4  H    0.000000  -0.016018  -0.001918   0.001005
     5  H   -0.072239   0.005688  -0.021105   0.005051
     6  H    0.154348  -0.126878   0.160982  -0.025239
     7  H   -0.498216   0.304480  -0.125205  -0.002802
     8  H    0.304480  -0.504592   0.204650  -0.114517
     9  H   -0.125205   0.204650  -0.741146   0.053302
    10  H   -0.002802  -0.114517   0.053302   0.608661
 Mulliken charges and spin densities:
               1          2
     1  H    0.006398  -0.525209
     2  H    0.058365   0.471481
     3  H    0.039677   0.245893
     4  H   -0.097788   0.222703
     5  H   -0.006652   0.329095
     6  H   -0.006652  -0.329095
     7  H   -0.097788  -0.222703
     8  H    0.039677  -0.245893
     9  H    0.058365  -0.471481
    10  H    0.006398   0.525209
 Sum of Mulliken charges =  -0.00000  -0.00000
 Mulliken charges and spin densities with hydrogens summed into heavy atoms:
               1          2
 Electronic spatial extent (au):  <R**2>=            163.9179
 Charge=             -0.0000 electrons
 Dipole moment (field-independent basis, Debye):
    X=              0.0000    Y=              0.0000    Z=              0.0000  Tot=              0.0000
 Quadrupole moment (field-independent basis, Debye-Ang):
   XX=            -13.0394   YY=            -13.1316   ZZ=            -13.0155
   XY=              1.6160   XZ=             -0.0000   YZ=              0.0000
 Traceless Quadrupole moment (field-independent basis, Debye-Ang):
   XX=              0.0227   YY=             -0.0694   ZZ=              0.0467
   XY=              1.6160   XZ=             -0.0000   YZ=              0.0000
 Octapole moment (field-independent basis, Debye-Ang**2):
  XXX=              0.0000  YYY=              0.0000  ZZZ=             -0.0000  XYY=              0.0000
  XXY=              0.0000  XXZ=             -0.0000  XZZ=              0.0000  YZZ=              0.0000
  YYZ=             -0.0000  XYZ=              0.0000
 Hexadecapole moment (field-independent basis, Debye-Ang**3):
 XXXX=           -144.1928 YYYY=           -196.4512 ZZZZ=            -15.8208 XXXY=            -63.5344
 XXXZ=             -0.0000 YYYX=            -64.5408 YYYZ=             -0.0000 ZZZX=             -0.0000
 ZZZY=             -0.0000 XXYY=            -53.4312 XXZZ=            -26.6674 YYZZ=            -34.9151
 XXYZ=             -0.0000 YYXZ=             -0.0000 ZZXY=            -22.0146
 N-N= 1.242063741342D+01 E-N=-3.419504732373D+01  KE= 5.174038067823D+00
 Symmetry AG   KE= 2.113213778044D+00
 Symmetry BG   KE= 0.000000000000D+00
 Symmetry AU   KE= 0.000000000000D+00
 Symmetry BU   KE= 3.060824289780D+00
                          Isotropic Fermi Contact Couplings
        Atom                 a.u.       MegaHertz       Gauss      10(-4) cm-1
     1  H(1)              -0.18063    -403.70490    -144.05194    -134.66146
     2  H(1)               0.19760     441.62948     157.58437     147.31174
     3  H(1)               0.12092     270.25220      96.43270      90.14643
     4  H(1)               0.12035     268.98006      95.97877      89.72209
     5  H(1)               0.15104     337.56055     120.44999     112.59808
     6  H(1)              -0.15104    -337.56055    -120.44999    -112.59808
     7  H(1)              -0.12035    -268.98006     -95.97877     -89.72209
     8  H(1)              -0.12092    -270.25220     -96.43270     -90.14643
     9  H(1)              -0.19760    -441.62948    -157.58437    -147.31174
    10  H(1)               0.18063     403.70490     144.05194     134.66146
 --------------------------------------------------------
       Center         ----  Spin Dipole Couplings  ----
                      3XX-RR        3YY-RR        3ZZ-RR
 --------------------------------------------------------
     1   Atom       -0.004570      0.048187     -0.043617
     2   Atom        0.031072     -0.033697      0.002625
     3   Atom        0.068635     -0.040133     -0.028502
     4   Atom        0.057637     -0.032445     -0.025191
     5   Atom        0.013554     -0.021246      0.007691
     6   Atom       -0.013554      0.021246     -0.007691
     7   Atom       -0.057637      0.032445      0.025191
     8   Atom       -0.068635      0.040133      0.028502
     9   Atom       -0.031072      0.033697     -0.002625
    10   Atom        0.004570     -0.048187      0.043617
 --------------------------------------------------------
                        XY            XZ            YZ
 --------------------------------------------------------
     1   Atom        0.027411      0.000000      0.000000
     2   Atom       -0.016233     -0.000000     -0.000000
     3   Atom       -0.048855      0.000000      0.000000
     4   Atom       -0.027023      0.000000     -0.000000
     5   Atom       -0.039123     -0.000000      0.000000
     6   Atom        0.039123     -0.000000      0.000000
     7   Atom        0.027023      0.000000      0.000000
     8   Atom        0.048855     -0.000000     -0.000000
     9   Atom        0.016233      0.000000     -0.000000
    10   Atom       -0.027411      0.000000      0.000000
 --------------------------------------------------------


 ---------------------------------------------------------------------------------
              Anisotropic Spin Dipole Couplings in Principal Axis System
 ---------------------------------------------------------------------------------

       Atom             a.u.   MegaHertz   Gauss  10(-4) cm-1        Axes

              Baa    -0.0436   -23.272    -8.304    -7.763  0.0000  0.0000  1.0000
     1 H(1)   Bbb    -0.0162    -8.662    -3.091    -2.889  0.9202 -0.3915  0.0000
              Bcc     0.0599    31.934    11.395    10.652  0.3915  0.9202  0.0000
 
              Baa    -0.0375   -20.028    -7.147    -6.681  0.2302  0.9731  0.0000
     2 H(1)   Bbb     0.0026     1.401     0.500     0.467  0.0000  0.0000  1.0000
              Bcc     0.0349    18.628     6.647     6.214  0.9731 -0.2302  0.0000
 
              Baa    -0.0589   -31.402   -11.205   -10.475  0.3578  0.9338  0.0000
     3 H(1)   Bbb    -0.0285   -15.207    -5.426    -5.073  0.0000  0.0000  1.0000
              Bcc     0.0874    46.609    16.631    15.547  0.9338 -0.3578  0.0000
 
              Baa    -0.0399   -21.305    -7.602    -7.106  0.2669  0.9637  0.0000
     4 H(1)   Bbb    -0.0252   -13.441    -4.796    -4.483  0.0000  0.0000  1.0000
              Bcc     0.0651    34.746    12.398    11.590  0.9637 -0.2669  0.0000
 
              Baa    -0.0467   -24.897    -8.884    -8.305  0.5448  0.8386  0.0000
     5 H(1)   Bbb     0.0077     4.104     1.464     1.369  0.0000  0.0000  1.0000
              Bcc     0.0390    20.794     7.420     6.936  0.8386 -0.5448  0.0000
 
              Baa    -0.0390   -20.794    -7.420    -6.936  0.8386 -0.5448  0.0000
     6 H(1)   Bbb    -0.0077    -4.104    -1.464    -1.369  0.0000  0.0000  1.0000
              Bcc     0.0467    24.897     8.884     8.305  0.5448  0.8386  0.0000
 
              Baa    -0.0651   -34.746   -12.398   -11.590  0.9637 -0.2669  0.0000
     7 H(1)   Bbb     0.0252    13.441     4.796     4.483  0.0000  0.0000  1.0000
              Bcc     0.0399    21.305     7.602     7.106  0.2669  0.9637  0.0000
 
              Baa    -0.0874   -46.609   -16.631   -15.547  0.9338 -0.3578  0.0000
     8 H(1)   Bbb     0.0285    15.207     5.426     5.073  0.0000  0.0000  1.0000
              Bcc     0.0589    31.402    11.205    10.475  0.3578  0.9338 -0.0000
 
              Baa    -0.0349   -18.628    -6.647    -6.214  0.9731 -0.2302  0.0000
     9 H(1)   Bbb    -0.0026    -1.401    -0.500    -0.467  0.0000  0.0000  1.0000
              Bcc     0.0375    20.028     7.147     6.681  0.2302  0.9731  0.0000
 
              Baa    -0.0599   -31.934   -11.395   -10.652  0.3915  0.9202  0.0000
    10 H(1)   Bbb     0.0162     8.662     3.091     2.889  0.9202 -0.3915  0.0000
              Bcc     0.0436    23.272     8.304     7.763  0.0000  0.0000  1.0000
 

 ---------------------------------------------------------------------------------


 Test job not archived.
 1\1\GINC-SULU\Stability\UHF\Gen\H10\LCJ1\28-Feb-2017\0\\#uhf/gen scf(t
 ight,novaracc,noincfock,fulldiag, ) stable(crhf) guess=read geom=nocro
 wd test\\hf stability analysis of h10 triangular lattice, y= 1.2029713
 290986654 alpha= 68.250000000000000\\0,1\H\H,1,1.2951754312\H,1,1.2951
 754312,2,43.5\H,2,1.2951754312,1,136.5,3,0.,0\H,3,1.2951754312,1,180.,
 2,0.,0\H,4,1.2951754312,2,180.,1,0.,0\H,5,1.2951754312,3,180.,2,0.,0\H
 ,6,1.2951754312,4,180.,1,0.,0\H,7,1.2951754312,5,180.,2,0.,0\H,8,1.295
 1754312,6,180.,1,0.,0\\Version=ES64L-G09RevE.01\HF=-4.8307104\MP2=-4.9
 034322\PUHF=-4.914435\PMP2-0=-4.9859019\S2=1.256399\S2-1=1.157548\S2A=
 2.365215\RMSD=5.294e-09\Dipole=0.,0.,0.\Quadrupole=0.0169054,0.0347208
 ,-0.0516262,0.,1.2014719,0.\PG=C02H [SGH(H10)]\\@


 ABSOLUTISM, OBSOLETISM -- IF IT WORKS, IT'S OUT OF DATE

                          -- STAFFORD BEER
 Job cpu time:       0 days  0 hours  0 minutes  1.2 seconds.
 File lengths (MBytes):  RWF=     94 Int=      0 D2E=      0 Chk=      2 Scr=      2
 Normal termination of Gaussian 09 at Tue Feb 28 16:30:06 2017.
