 Entering Gaussian System, Link 0=g09
 AtFile(1): H.gbs
            H     0
            S   10   1.00
               1000.000000000000            0.000068713567
                316.227766000000            0.000169141320
                100.000000000000            0.000823394812
                 31.622776600000            0.003425569236
                 10.000000000000            0.013951996000
                  3.162277660000            0.056909313560
                  1.000000000000            0.198286399900
                  0.316227766000            0.496922426700
                  0.100000000000            0.369846276400
                  0.031622776600            0.003752720039
            ****
 Initial command:
 /projects/guscus/apps/gau/g09-e1/g09/l1.exe "/users/lcj1/gaussian/h10/2rows_uhf/singlet/tripguessmix/followguesses/alpha20/Gau-2379.inp" -scrdir="/users/lcj1/gaussian/h10/2rows_uhf/singlet/tripguessmix/followguesses/alpha20/"
 Entering Link 1 = /projects/guscus/apps/gau/g09-e1/g09/l1.exe PID=      2380.
  
 Copyright (c) 1988,1990,1992,1993,1995,1998,2003,2009,2015,
            Gaussian, Inc.  All Rights Reserved.
  
 This is part of the Gaussian(R) 09 program.  It is based on
 the Gaussian(R) 03 system (copyright 2003, Gaussian, Inc.),
 the Gaussian(R) 98 system (copyright 1998, Gaussian, Inc.),
 the Gaussian(R) 94 system (copyright 1995, Gaussian, Inc.),
 the Gaussian 92(TM) system (copyright 1992, Gaussian, Inc.),
 the Gaussian 90(TM) system (copyright 1990, Gaussian, Inc.),
 the Gaussian 88(TM) system (copyright 1988, Gaussian, Inc.),
 the Gaussian 86(TM) system (copyright 1986, Carnegie Mellon
 University), and the Gaussian 82(TM) system (copyright 1983,
 Carnegie Mellon University). Gaussian is a federally registered
 trademark of Gaussian, Inc.
  
 This software contains proprietary and confidential information,
 including trade secrets, belonging to Gaussian, Inc.
  
 This software is provided under written license and may be
 used, copied, transmitted, or stored only in accord with that
 written license.
  
 The following legend is applicable only to US Government
 contracts under FAR:
  
                    RESTRICTED RIGHTS LEGEND
  
 Use, reproduction and disclosure by the US Government is
 subject to restrictions as set forth in subparagraphs (a)
 and (c) of the Commercial Computer Software - Restricted
 Rights clause in FAR 52.227-19.
  
 Gaussian, Inc.
 340 Quinnipiac St., Bldg. 40, Wallingford CT 06492
  
  
 ---------------------------------------------------------------
 Warning -- This program may not be used in any manner that
 competes with the business of Gaussian, Inc. or will provide
 assistance to any competitor of Gaussian, Inc.  The licensee
 of this program is prohibited from giving any competitor of
 Gaussian, Inc. access to this program.  By using this program,
 the user acknowledges that Gaussian, Inc. is engaged in the
 business of creating and licensing software in the field of
 computational chemistry and represents and warrants to the
 licensee that it is not a competitor of Gaussian, Inc. and that
 it will not use this program in any manner prohibited above.
 ---------------------------------------------------------------
  

 Cite this work as:
 Gaussian 09, Revision E.01,
 M. J. Frisch, G. W. Trucks, H. B. Schlegel, G. E. Scuseria, 
 M. A. Robb, J. R. Cheeseman, G. Scalmani, V. Barone, B. Mennucci, 
 G. A. Petersson, H. Nakatsuji, M. Caricato, X. Li, H. P. Hratchian, 
 A. F. Izmaylov, J. Bloino, G. Zheng, J. L. Sonnenberg, M. Hada, 
 M. Ehara, K. Toyota, R. Fukuda, J. Hasegawa, M. Ishida, T. Nakajima, 
 Y. Honda, O. Kitao, H. Nakai, T. Vreven, J. A. Montgomery, Jr., 
 J. E. Peralta, F. Ogliaro, M. Bearpark, J. J. Heyd, E. Brothers, 
 K. N. Kudin, V. N. Staroverov, T. Keith, R. Kobayashi, J. Normand, 
 K. Raghavachari, A. Rendell, J. C. Burant, S. S. Iyengar, J. Tomasi, 
 M. Cossi, N. Rega, J. M. Millam, M. Klene, J. E. Knox, J. B. Cross, 
 V. Bakken, C. Adamo, J. Jaramillo, R. Gomperts, R. E. Stratmann, 
 O. Yazyev, A. J. Austin, R. Cammi, C. Pomelli, J. W. Ochterski, 
 R. L. Martin, K. Morokuma, V. G. Zakrzewski, G. A. Voth, 
 P. Salvador, J. J. Dannenberg, S. Dapprich, A. D. Daniels, 
 O. Farkas, J. B. Foresman, J. V. Ortiz, J. Cioslowski, 
 and D. J. Fox, Gaussian, Inc., Wallingford CT, 2013.
 
 ******************************************
 Gaussian 09:  ES64L-G09RevE.01 30-Nov-2015
                28-Feb-2017 
 ******************************************
 %chk=h10.chk
 ----------------------------------------------------------------------
 #uhf/gen scf(tight,novaracc,noincfock,fulldiag, ) stable(crhf) guess=r
 ead geom=nocrowd test
 ----------------------------------------------------------------------
 1/38=1/1;
 2/12=1,17=6,18=5,40=1/2;
 3/5=7,16=1,25=1,30=1,116=2/1,2,3;
 4/5=1/1;
 5/5=100002,16=1,32=2,38=6/2;
 8/6=1,10=90,11=11/1,4;
 9/8=4,13=1/2;
 6/7=2,8=2,9=2,10=2,28=1/1;
 99/5=1,9=1/99;
 ----------------------------------------------------------------------
 hf stability analysis of h10 triangular lattice, y= 0.6898774187181774
 3 alpha= 39.500000000000000
 ----------------------------------------------------------------------
 Symbolic Z-matrix:
 Charge =  0 Multiplicity = 1
 H
 H                    1     1.08458 
 H                    1     1.08458  2     101. 
 H                    2     1.08458  1     79.      3     0.       0
 H                    3     1.08458  1     180.     2     0.       0
 H                    4     1.08458  2     180.     1     0.       0
 H                    5     1.08458  3     180.     2     0.       0
 H                    6     1.08458  4     180.     1     0.       0
 H                    7     1.08458  5     180.     2     0.       0
 H                    8     1.08458  6     180.     1     0.       0
 
                          Input orientation:                          
 ---------------------------------------------------------------------
 Center     Atomic      Atomic             Coordinates (Angstroms)
 Number     Number       Type             X           Y           Z
 ---------------------------------------------------------------------
      1          1           0        0.000000    0.000000    0.000000
      2          1           0        0.000000    0.000000    1.084580
      3          1           0        1.064653    0.000000   -0.206948
      4          1           0        1.064653    0.000000    0.877632
      5          1           0        2.129305    0.000000   -0.413895
      6          1           0        2.129305    0.000000    0.670684
      7          1           0        3.193958    0.000000   -0.620843
      8          1           0        3.193958    0.000000    0.463737
      9          1           0        4.258611    0.000000   -0.827790
     10          1           0        4.258611    0.000000    0.256789
 ---------------------------------------------------------------------
                    Distance matrix (angstroms):
                    1          2          3          4          5
     1  H    0.000000
     2  H    1.084580   0.000000
     3  H    1.084580   1.673776   0.000000
     4  H    1.379755   1.084580   1.084580   0.000000
     5  H    2.169159   2.603722   1.084580   1.673776   0.000000
     6  H    2.232434   2.169159   1.379755   1.084580   1.084580
     7  H    3.253739   3.620750   2.169159   2.603722   1.084580
     8  H    3.227448   3.253739   2.232434   2.169159   1.379755
     9  H    4.338318   4.668289   3.253739   3.620750   2.169159
    10  H    4.266346   4.338318   3.227448   3.253739   2.232434
                    6          7          8          9         10
     6  H    0.000000
     7  H    1.673776   0.000000
     8  H    1.084580   1.084580   0.000000
     9  H    2.603722   1.084580   1.673776   0.000000
    10  H    2.169159   1.379755   1.084580   1.084580   0.000000
 Stoichiometry    H10
 Framework group  C2H[SGH(H10)]
 Deg. of freedom     9
 Full point group                 C2H     NOp   4
 Largest Abelian subgroup         C2H     NOp   4
 Largest concise Abelian subgroup C2      NOp   2
                         Standard orientation:                         
 ---------------------------------------------------------------------
 Center     Atomic      Atomic             Coordinates (Angstroms)
 Number     Number       Type             X           Y           Z
 ---------------------------------------------------------------------
      1          1           0        2.129305    0.128395   -0.000000
      2          1           0        2.129305   -0.956185   -0.000000
      3          1           0        1.064653    0.335342   -0.000000
      4          1           0        1.064653   -0.749237   -0.000000
      5          1           0       -0.000000    0.542290   -0.000000
      6          1           0       -0.000000   -0.542290   -0.000000
      7          1           0       -1.064653    0.749237   -0.000000
      8          1           0       -1.064653   -0.335342   -0.000000
      9          1           0       -2.129305    0.956185   -0.000000
     10          1           0       -2.129305   -0.128395   -0.000000
 ---------------------------------------------------------------------
 Rotational constants (GHZ):    177.8753959     21.2050593     18.9464019
 General basis read from cards:  (5D, 7F)
 There are     5 symmetry adapted cartesian basis functions of AG  symmetry.
 There are     0 symmetry adapted cartesian basis functions of BG  symmetry.
 There are     0 symmetry adapted cartesian basis functions of AU  symmetry.
 There are     5 symmetry adapted cartesian basis functions of BU  symmetry.
 There are     5 symmetry adapted basis functions of AG  symmetry.
 There are     0 symmetry adapted basis functions of BG  symmetry.
 There are     0 symmetry adapted basis functions of AU  symmetry.
 There are     5 symmetry adapted basis functions of BU  symmetry.
    10 basis functions,   100 primitive gaussians,    10 cartesian basis functions
     5 alpha electrons        5 beta electrons
       nuclear repulsion energy        13.6782664361 Hartrees.
 NAtoms=   10 NActive=   10 NUniq=    5 SFac= 4.00D+00 NAtFMM=   60 NAOKFM=F Big=F
 Integral buffers will be    131072 words long.
 Regular integral format.
 Two-electron integral symmetry is turned on.
 One-electron integrals computed using PRISM.
 NBasis=    10 RedAO= T EigKep=  1.30D-01  NBF=     5     0     0     5
 NBsUse=    10 1.00D-06 EigRej= -1.00D+00 NBFU=     5     0     0     5
 Initial guess from the checkpoint file:  "h10.chk"
 B after Tr=     0.000000   -0.000000   -0.000000
         Rot=    0.999992    0.000000    0.000000   -0.003879 Ang=  -0.44 deg.
 Initial guess orbital symmetries:
 Alpha Orbitals:
       Occupied  (BG) (BG) (BG) (BG) (BG)
       Virtual   (BG) (BG) (BG) (BG) (BG)
 Beta  Orbitals:
       Occupied  (BG) (BG) (BG) (BG) (BG)
       Virtual   (BG) (BG) (BG) (BG) (BG)
 Initial guess <Sx>= 0.0000 <Sy>= 0.0000 <Sz>= 0.0000 <S**2>= 1.3762 S= 0.7752
 Keep R1 and R2 ints in memory in symmetry-blocked form, NReq=879523.
 Requested convergence on RMS density matrix=1.00D-08 within 128 cycles.
 Requested convergence on MAX density matrix=1.00D-06.
 Requested convergence on             energy=1.00D-06.
 No special actions if energy rises.
 An orbital has undefined symmetry, so N**3 symmetry is turned off.
 Density matrix breaks symmetry, PCut= 1.00D-04
 Density matrix has no symmetry -- integrals replicated.
 Density matrix breaks symmetry, PCut= 1.00D-07
 Density matrix has no symmetry -- integrals replicated.
 Density matrix breaks symmetry, PCut= 1.00D-07
 Density matrix has no symmetry -- integrals replicated.
 Density matrix breaks symmetry, PCut= 1.00D-07
 Density matrix has no symmetry -- integrals replicated.
 Density matrix breaks symmetry, PCut= 1.00D-07
 Density matrix has no symmetry -- integrals replicated.
 Density matrix breaks symmetry, PCut= 1.00D-07
 Density matrix has no symmetry -- integrals replicated.
 Density matrix breaks symmetry, PCut= 1.00D-07
 Density matrix has no symmetry -- integrals replicated.
 Density matrix breaks symmetry, PCut= 1.00D-07
 Density matrix has no symmetry -- integrals replicated.
 Density matrix breaks symmetry, PCut= 1.00D-07
 Density matrix has no symmetry -- integrals replicated.
 Density matrix breaks symmetry, PCut= 1.00D-07
 Density matrix has no symmetry -- integrals replicated.
 Density matrix breaks symmetry, PCut= 1.00D-07
 Density matrix has no symmetry -- integrals replicated.
 Density matrix breaks symmetry, PCut= 1.00D-07
 Density matrix has no symmetry -- integrals replicated.
 SCF Done:  E(UHF) =  -4.95250660550     A.U. after   11 cycles
            NFock= 11  Conv=0.64D-08     -V/T= 1.9330
 <Sx>= 0.0000 <Sy>= 0.0000 <Sz>= 0.0000 <S**2>= 1.3772 S= 0.7756
 <L.S>= 0.000000000000E+00
 Annihilation of the first spin contaminant:
 S**2 before annihilation     1.3772,   after     2.8978
 Range of M.O.s used for correlation:     1    10
 NBasis=    10 NAE=     5 NBE=     5 NFC=     0 NFV=     0
 NROrb=     10 NOA=     5 NOB=     5 NVA=     5 NVB=     5
 Semi-Direct transformation.
 ModeAB=           2 MOrb=             5 LenV=     134107039
 LASXX=         1030 LTotXX=        1030 LenRXX=        1030
 LTotAB=        1825 MaxLAS=        2750 LenRXY=        2750
 NonZer=        2750 LenScr=      655360 LnRSAI=           0
 LnScr1=           0 LExtra=           0 Total=       659140
 MaxDsk=          -1 SrtSym=           F ITran=            3
 JobTyp=1 Pass  1:  I=   1 to   5.
 (rs|ai) integrals will be sorted in core.
 ModeAB=           2 MOrb=             5 LenV=     134107039
 LASXX=         1030 LTotXX=        1030 LenRXX=        2750
 LTotAB=         225 MaxLAS=        2750 LenRXY=         225
 NonZer=        2750 LenScr=      655360 LnRSAI=           0
 LnScr1=           0 LExtra=           0 Total=       658335
 MaxDsk=          -1 SrtSym=           F ITran=            3
 JobTyp=2 Pass  1:  I=   1 to   5.
 (rs|ai) integrals will be sorted in core.
 SymMOI:  orbitals are not symmetric.
 Spin components of T(2) and E(2):
     alpha-alpha T2 =       0.2234743669D-02 E2=     -0.3482498493D-02
     alpha-beta  T2 =       0.2497983649D-01 E2=     -0.4296112680D-01
     beta-beta   T2 =       0.2234743669D-02 E2=     -0.3482498493D-02
 ANorm=    0.1014617822D+01
 E2 =    -0.4992612379D-01 EUMP2 =    -0.50024327292880D+01
 (S**2,0)=  0.13772D+01           (S**2,1)=  0.12389D+01
 E(PUHF)=      -0.51293705892D+01        E(PMP2)=      -0.51763244102D+01
 Second order stability test of a single determinant UHF wave function:
 Stabil:  MDV=134217728
 ***********************************************************************
 Matrix         Lowest Root    Major Pairs
 ***********************************************************************
 Internal UHF     0.1234003    Stable
 RUHF --> CUHF (A)0.1557085    Stable
 RUHF --> CUHF (B)0.1557085    Stable
 RUHF --> GHF     0.           Zero root
 Stable under the perturbations considered.
 ***********************************************************************

 **********************************************************************

            Population analysis using the SCF density.

 **********************************************************************

 Orbital symmetries:
 Alpha Orbitals:
       Occupied  (BG) (BG) (BG) (BG) (BG)
       Virtual   (BG) (BG) (BG) (BG) (BG)
 Beta  Orbitals:
       Occupied  (BG) (BG) (BG) (BG) (BG)
       Virtual   (BG) (BG) (BG) (BG) (BG)
 Unable to determine electronic state:  partially filled degenerate orbitals.
 Alpha  occ. eigenvalues --   -0.86989  -0.74837  -0.55935  -0.44516  -0.38379
 Alpha virt. eigenvalues --    0.06405   0.20788   0.35635   0.53545   0.86028
  Beta  occ. eigenvalues --   -0.86989  -0.74837  -0.55935  -0.44516  -0.38379
  Beta virt. eigenvalues --    0.06405   0.20788   0.35635   0.53545   0.86028
          Condensed to atoms (all electrons):
               1          2          3          4          5          6
     1  H    0.941533   0.138625   0.172086  -0.177469  -0.014097  -0.074433
     2  H    0.138625   0.863530  -0.148763   0.135505  -0.026477  -0.017907
     3  H    0.172086  -0.148763   1.107792  -0.076202   0.192804  -0.127228
     4  H   -0.177469   0.135505  -0.076202   1.045037  -0.107471   0.244714
     5  H   -0.014097  -0.026477   0.192804  -0.107471   0.928163   0.006776
     6  H   -0.074433  -0.017907  -0.127228   0.244714   0.006776   0.928163
     7  H    0.001307   0.005237  -0.036679  -0.023826   0.244714  -0.107471
     8  H    0.007173   0.003443  -0.057215  -0.036679  -0.127228   0.192804
     9  H   -0.000724   0.000119   0.003443   0.005237  -0.017907  -0.026477
    10  H    0.001200  -0.000724   0.007173   0.001307  -0.074433  -0.014097
               7          8          9         10
     1  H    0.001307   0.007173  -0.000724   0.001200
     2  H    0.005237   0.003443   0.000119  -0.000724
     3  H   -0.036679  -0.057215   0.003443   0.007173
     4  H   -0.023826  -0.036679   0.005237   0.001307
     5  H    0.244714  -0.127228  -0.017907  -0.074433
     6  H   -0.107471   0.192804  -0.026477  -0.014097
     7  H    1.045037  -0.076202   0.135505  -0.177469
     8  H   -0.076202   1.107792  -0.148763   0.172086
     9  H    0.135505  -0.148763   0.863530   0.138625
    10  H   -0.177469   0.172086   0.138625   0.941533
          Atomic-Atomic Spin Densities.
               1          2          3          4          5          6
     1  H   -0.755213  -0.050049   0.039003   0.185435   0.008060   0.013974
     2  H   -0.050049   0.723302  -0.139253   0.067973   0.005140  -0.007179
     3  H    0.039003  -0.139253   0.851684   0.007653  -0.087649  -0.088199
     4  H    0.185435   0.067973   0.007653  -0.842658   0.071312  -0.079970
     5  H    0.008060   0.005140  -0.087649   0.071312  -0.541162   0.000000
     6  H    0.013974  -0.007179  -0.088199  -0.079970   0.000000   0.541162
     7  H   -0.000796   0.006433  -0.055373   0.000000   0.079970  -0.071312
     8  H   -0.013036  -0.001836  -0.000000   0.055373   0.088199   0.087649
     9  H    0.001420  -0.000000   0.001836  -0.006433   0.007179  -0.005140
    10  H    0.000000  -0.001420   0.013036   0.000796  -0.013974  -0.008060
               7          8          9         10
     1  H   -0.000796  -0.013036   0.001420   0.000000
     2  H    0.006433  -0.001836  -0.000000  -0.001420
     3  H   -0.055373  -0.000000   0.001836   0.013036
     4  H    0.000000   0.055373  -0.006433   0.000796
     5  H    0.079970   0.088199   0.007179  -0.013974
     6  H   -0.071312   0.087649  -0.005140  -0.008060
     7  H    0.842658  -0.007653  -0.067973  -0.185435
     8  H   -0.007653  -0.851684   0.139253  -0.039003
     9  H   -0.067973   0.139253  -0.723302   0.050049
    10  H   -0.185435  -0.039003   0.050049   0.755213
 Mulliken charges and spin densities:
               1          2
     1  H    0.004799  -0.571202
     2  H    0.047412   0.603111
     3  H   -0.037211   0.542738
     4  H   -0.010154  -0.540519
     5  H   -0.004846  -0.382926
     6  H   -0.004846   0.382926
     7  H   -0.010154   0.540519
     8  H   -0.037211  -0.542738
     9  H    0.047412  -0.603111
    10  H    0.004799   0.571202
 Sum of Mulliken charges =   0.00000  -0.00000
 Mulliken charges and spin densities with hydrogens summed into heavy atoms:
               1          2
 Electronic spatial extent (au):  <R**2>=            125.1028
 Charge=              0.0000 electrons
 Dipole moment (field-independent basis, Debye):
    X=              0.0000    Y=             -0.0000    Z=             -0.0000  Tot=              0.0000
 Quadrupole moment (field-independent basis, Debye-Ang):
   XX=            -13.2319   YY=            -15.1060   ZZ=            -12.8030
   XY=             -1.2916   XZ=              0.0000   YZ=              0.0000
 Traceless Quadrupole moment (field-independent basis, Debye-Ang):
   XX=              0.4817   YY=             -1.3924   ZZ=              0.9107
   XY=             -1.2916   XZ=              0.0000   YZ=              0.0000
 Octapole moment (field-independent basis, Debye-Ang**2):
  XXX=              0.0000  YYY=             -0.0000  ZZZ=              0.0000  XYY=              0.0000
  XXY=             -0.0000  XXZ=              0.0000  XZZ=              0.0000  YZZ=             -0.0000
  YYZ=              0.0000  XYZ=              0.0000
 Hexadecapole moment (field-independent basis, Debye-Ang**3):
 XXXX=           -203.7714 YYYY=            -51.9788 ZZZZ=            -15.3618 XXXY=             12.5551
 XXXZ=              0.0000 YYYX=             16.8069 YYYZ=             -0.0000 ZZZX=              0.0000
 ZZZY=             -0.0000 XXYY=            -41.9267 XXZZ=            -35.3168 YYZZ=            -11.0538
 XXYZ=             -0.0000 YYXZ=              0.0000 ZZXY=              5.4546
 N-N= 1.367826643613D+01 E-N=-3.655638938622D+01  KE= 5.307950236142D+00
 Symmetry AG   KE= 2.489040633087D+00
 Symmetry BG   KE= 0.000000000000D+00
 Symmetry AU   KE= 0.000000000000D+00
 Symmetry BU   KE= 2.818909603054D+00
                          Isotropic Fermi Contact Couplings
        Atom                 a.u.       MegaHertz       Gauss      10(-4) cm-1
     1  H(1)              -0.21392    -478.09603    -170.59655    -159.47567
     2  H(1)               0.21345     477.03866     170.21925     159.12297
     3  H(1)               0.23387     522.69012     186.50883     174.35066
     4  H(1)              -0.23238    -519.35747    -185.31965    -173.23900
     5  H(1)              -0.15143    -338.42730    -120.75927    -112.88720
     6  H(1)               0.15143     338.42730     120.75927     112.88720
     7  H(1)               0.23238     519.35747     185.31965     173.23900
     8  H(1)              -0.23387    -522.69012    -186.50883    -174.35066
     9  H(1)              -0.21345    -477.03866    -170.21925    -159.12297
    10  H(1)               0.21392     478.09603     170.59655     159.47567
 --------------------------------------------------------
       Center         ----  Spin Dipole Couplings  ----
                      3XX-RR        3YY-RR        3ZZ-RR
 --------------------------------------------------------
     1   Atom        0.030676      0.040153     -0.070829
     2   Atom       -0.028053     -0.041917      0.069970
     3   Atom       -0.085794     -0.006216      0.092011
     4   Atom        0.070008      0.017748     -0.087757
     5   Atom        0.109356     -0.028907     -0.080448
     6   Atom       -0.109356      0.028907      0.080448
     7   Atom       -0.070008     -0.017748      0.087757
     8   Atom        0.085794      0.006216     -0.092011
     9   Atom        0.028053      0.041917     -0.069970
    10   Atom       -0.030676     -0.040153      0.070829
 --------------------------------------------------------
                        XY            XZ            YZ
 --------------------------------------------------------
     1   Atom       -0.056057     -0.000000      0.000000
     2   Atom       -0.011640      0.000000      0.000000
     3   Atom        0.028009      0.000000     -0.000000
     4   Atom       -0.054305     -0.000000      0.000000
     5   Atom       -0.051638     -0.000000     -0.000000
     6   Atom        0.051638      0.000000     -0.000000
     7   Atom        0.054305     -0.000000      0.000000
     8   Atom       -0.028009      0.000000      0.000000
     9   Atom        0.011640      0.000000      0.000000
    10   Atom        0.056057     -0.000000     -0.000000
 --------------------------------------------------------


 ---------------------------------------------------------------------------------
              Anisotropic Spin Dipole Couplings in Principal Axis System
 ---------------------------------------------------------------------------------

       Atom             a.u.   MegaHertz   Gauss  10(-4) cm-1        Axes

              Baa    -0.0708   -37.791   -13.485   -12.606  0.0000  0.0000  1.0000
     1 H(1)   Bbb    -0.0208   -11.121    -3.968    -3.709  0.7363  0.6767  0.0000
              Bcc     0.0917    48.912    17.453    16.315 -0.6767  0.7363  0.0000
 
              Baa    -0.0485   -25.895    -9.240    -8.638  0.4941  0.8694 -0.0000
     2 H(1)   Bbb    -0.0214   -11.438    -4.081    -3.815  0.8694 -0.4941  0.0000
              Bcc     0.0700    37.333    13.321    12.453  0.0000  0.0000  1.0000
 
              Baa    -0.0947   -50.508   -18.023   -16.848  0.9533 -0.3019  0.0000
     3 H(1)   Bbb     0.0027     1.416     0.505     0.472  0.3019  0.9533  0.0000
              Bcc     0.0920    49.092    17.517    16.375  0.0000  0.0000  1.0000
 
              Baa    -0.0878   -46.823   -16.708   -15.618  0.0000  0.0000  1.0000
     4 H(1)   Bbb    -0.0164    -8.743    -3.120    -2.916  0.5322  0.8466  0.0000
              Bcc     0.1041    55.566    19.827    18.535  0.8466 -0.5322  0.0000
 
              Baa    -0.0804   -42.923   -15.316   -14.318  0.0000  0.0000  1.0000
     5 H(1)   Bbb    -0.0461   -24.578    -8.770    -8.198  0.3153  0.9490 -0.0000
              Bcc     0.1265    67.501    24.086    22.516  0.9490 -0.3153  0.0000
 
              Baa    -0.1265   -67.501   -24.086   -22.516  0.9490 -0.3153  0.0000
     6 H(1)   Bbb     0.0461    24.578     8.770     8.198  0.3153  0.9490  0.0000
              Bcc     0.0804    42.923    15.316    14.318  0.0000  0.0000  1.0000
 
              Baa    -0.1041   -55.566   -19.827   -18.535  0.8466 -0.5322  0.0000
     7 H(1)   Bbb     0.0164     8.743     3.120     2.916  0.5322  0.8466  0.0000
              Bcc     0.0878    46.823    16.708    15.618  0.0000  0.0000  1.0000
 
              Baa    -0.0920   -49.092   -17.517   -16.375  0.0000  0.0000  1.0000
     8 H(1)   Bbb    -0.0027    -1.416    -0.505    -0.472  0.3019  0.9533 -0.0000
              Bcc     0.0947    50.508    18.023    16.848  0.9533 -0.3019  0.0000
 
              Baa    -0.0700   -37.333   -13.321   -12.453  0.0000  0.0000  1.0000
     9 H(1)   Bbb     0.0214    11.438     4.081     3.815  0.8694 -0.4941  0.0000
              Bcc     0.0485    25.895     9.240     8.638  0.4941  0.8694  0.0000
 
              Baa    -0.0917   -48.912   -17.453   -16.315 -0.6767  0.7363  0.0000
    10 H(1)   Bbb     0.0208    11.121     3.968     3.709  0.7363  0.6767 -0.0000
              Bcc     0.0708    37.791    13.485    12.606  0.0000  0.0000  1.0000
 

 ---------------------------------------------------------------------------------


 Test job not archived.
 1\1\GINC-SULU\Stability\UHF\Gen\H10\LCJ1\28-Feb-2017\0\\#uhf/gen scf(t
 ight,novaracc,noincfock,fulldiag, ) stable(crhf) guess=read geom=nocro
 wd test\\hf stability analysis of h10 triangular lattice, y= 0.6898774
 1871817743 alpha= 39.500000000000000\\0,1\H\H,1,1.0845795072\H,1,1.084
 5795072,2,101.\H,2,1.0845795072,1,79.,3,0.,0\H,3,1.0845795072,1,180.,2
 ,0.,0\H,4,1.0845795072,2,180.,1,0.,0\H,5,1.0845795072,3,180.,2,0.,0\H,
 6,1.0845795072,4,180.,1,0.,0\H,7,1.0845795072,5,180.,2,0.,0\H,8,1.0845
 795072,6,180.,1,0.,0\\Version=ES64L-G09RevE.01\HF=-4.9525066\MP2=-5.00
 24327\PUHF=-5.1293706\PMP2-0=-5.1763244\S2=1.377208\S2-1=1.238891\S2A=
 2.897831\RMSD=6.426e-09\Dipole=0.,0.,0.\Quadrupole=0.3581514,0.6770661
 ,-1.0352176,0.,-0.9602684,0.\PG=C02H [SGH(H10)]\\@


 I SUPPOSE A BABY LLAMA HAS A MMAMA AND A PPOPA.
     -- RICHARD AMOUR
 Job cpu time:       0 days  0 hours  0 minutes  1.3 seconds.
 File lengths (MBytes):  RWF=     94 Int=      0 D2E=      0 Chk=      2 Scr=      2
 Normal termination of Gaussian 09 at Tue Feb 28 16:24:29 2017.
