 Entering Gaussian System, Link 0=g09
 AtFile(1): H.gbs
            H     0
            S   10   1.00
               1000.000000000000            0.000068713567
                316.227766000000            0.000169141320
                100.000000000000            0.000823394812
                 31.622776600000            0.003425569236
                 10.000000000000            0.013951996000
                  3.162277660000            0.056909313560
                  1.000000000000            0.198286399900
                  0.316227766000            0.496922426700
                  0.100000000000            0.369846276400
                  0.031622776600            0.003752720039
            ****
 Initial command:
 /projects/guscus/apps/gau/g09-e1/g09/l1.exe "/users/lcj1/gaussian/h10/2rows_uhf/singlet/tripguessmix/followguesses/alpha20/Gau-32386.inp" -scrdir="/users/lcj1/gaussian/h10/2rows_uhf/singlet/tripguessmix/followguesses/alpha20/"
 Entering Link 1 = /projects/guscus/apps/gau/g09-e1/g09/l1.exe PID=     32387.
  
 Copyright (c) 1988,1990,1992,1993,1995,1998,2003,2009,2015,
            Gaussian, Inc.  All Rights Reserved.
  
 This is part of the Gaussian(R) 09 program.  It is based on
 the Gaussian(R) 03 system (copyright 2003, Gaussian, Inc.),
 the Gaussian(R) 98 system (copyright 1998, Gaussian, Inc.),
 the Gaussian(R) 94 system (copyright 1995, Gaussian, Inc.),
 the Gaussian 92(TM) system (copyright 1992, Gaussian, Inc.),
 the Gaussian 90(TM) system (copyright 1990, Gaussian, Inc.),
 the Gaussian 88(TM) system (copyright 1988, Gaussian, Inc.),
 the Gaussian 86(TM) system (copyright 1986, Carnegie Mellon
 University), and the Gaussian 82(TM) system (copyright 1983,
 Carnegie Mellon University). Gaussian is a federally registered
 trademark of Gaussian, Inc.
  
 This software contains proprietary and confidential information,
 including trade secrets, belonging to Gaussian, Inc.
  
 This software is provided under written license and may be
 used, copied, transmitted, or stored only in accord with that
 written license.
  
 The following legend is applicable only to US Government
 contracts under FAR:
  
                    RESTRICTED RIGHTS LEGEND
  
 Use, reproduction and disclosure by the US Government is
 subject to restrictions as set forth in subparagraphs (a)
 and (c) of the Commercial Computer Software - Restricted
 Rights clause in FAR 52.227-19.
  
 Gaussian, Inc.
 340 Quinnipiac St., Bldg. 40, Wallingford CT 06492
  
  
 ---------------------------------------------------------------
 Warning -- This program may not be used in any manner that
 competes with the business of Gaussian, Inc. or will provide
 assistance to any competitor of Gaussian, Inc.  The licensee
 of this program is prohibited from giving any competitor of
 Gaussian, Inc. access to this program.  By using this program,
 the user acknowledges that Gaussian, Inc. is engaged in the
 business of creating and licensing software in the field of
 computational chemistry and represents and warrants to the
 licensee that it is not a competitor of Gaussian, Inc. and that
 it will not use this program in any manner prohibited above.
 ---------------------------------------------------------------
  

 Cite this work as:
 Gaussian 09, Revision E.01,
 M. J. Frisch, G. W. Trucks, H. B. Schlegel, G. E. Scuseria, 
 M. A. Robb, J. R. Cheeseman, G. Scalmani, V. Barone, B. Mennucci, 
 G. A. Petersson, H. Nakatsuji, M. Caricato, X. Li, H. P. Hratchian, 
 A. F. Izmaylov, J. Bloino, G. Zheng, J. L. Sonnenberg, M. Hada, 
 M. Ehara, K. Toyota, R. Fukuda, J. Hasegawa, M. Ishida, T. Nakajima, 
 Y. Honda, O. Kitao, H. Nakai, T. Vreven, J. A. Montgomery, Jr., 
 J. E. Peralta, F. Ogliaro, M. Bearpark, J. J. Heyd, E. Brothers, 
 K. N. Kudin, V. N. Staroverov, T. Keith, R. Kobayashi, J. Normand, 
 K. Raghavachari, A. Rendell, J. C. Burant, S. S. Iyengar, J. Tomasi, 
 M. Cossi, N. Rega, J. M. Millam, M. Klene, J. E. Knox, J. B. Cross, 
 V. Bakken, C. Adamo, J. Jaramillo, R. Gomperts, R. E. Stratmann, 
 O. Yazyev, A. J. Austin, R. Cammi, C. Pomelli, J. W. Ochterski, 
 R. L. Martin, K. Morokuma, V. G. Zakrzewski, G. A. Voth, 
 P. Salvador, J. J. Dannenberg, S. Dapprich, A. D. Daniels, 
 O. Farkas, J. B. Foresman, J. V. Ortiz, J. Cioslowski, 
 and D. J. Fox, Gaussian, Inc., Wallingford CT, 2013.
 
 ******************************************
 Gaussian 09:  ES64L-G09RevE.01 30-Nov-2015
                28-Feb-2017 
 ******************************************
 %chk=h10.chk
 ----------------------------------------------------------------------
 #uhf/gen scf(tight,novaracc,noincfock,fulldiag, ) stable(crhf) guess=r
 ead geom=nocrowd test
 ----------------------------------------------------------------------
 1/38=1/1;
 2/12=1,17=6,18=5,40=1/2;
 3/5=7,16=1,25=1,30=1,116=2/1,2,3;
 4/5=1/1;
 5/5=100002,16=1,32=2,38=6/2;
 8/6=1,10=90,11=11/1,4;
 9/8=4,13=1/2;
 6/7=2,8=2,9=2,10=2,28=1/1;
 99/5=1,9=1/99;
 ----------------------------------------------------------------------
 hf stability analysis of h10 triangular lattice, y= 0.5511430676164930
 1 alpha= 27.750000000000000
 ----------------------------------------------------------------------
 Symbolic Z-matrix:
 Charge =  0 Multiplicity = 1
 H
 H                    1     1.18369 
 H                    1     1.18369  2     124.5 
 H                    2     1.18369  1     55.5     3     0.       0
 H                    3     1.18369  1     180.     2     0.       0
 H                    4     1.18369  2     180.     1     0.       0
 H                    5     1.18369  3     180.     2     0.       0
 H                    6     1.18369  4     180.     1     0.       0
 H                    7     1.18369  5     180.     2     0.       0
 H                    8     1.18369  6     180.     1     0.       0
 
                          Input orientation:                          
 ---------------------------------------------------------------------
 Center     Atomic      Atomic             Coordinates (Angstroms)
 Number     Number       Type             X           Y           Z
 ---------------------------------------------------------------------
      1          1           0        0.000000    0.000000    0.000000
      2          1           0        0.000000    0.000000    1.183690
      3          1           0        0.975510    0.000000   -0.670449
      4          1           0        0.975510    0.000000    0.513240
      5          1           0        1.951019    0.000000   -1.340898
      6          1           0        1.951019    0.000000   -0.157209
      7          1           0        2.926529    0.000000   -2.011347
      8          1           0        2.926529    0.000000   -0.827658
      9          1           0        3.902038    0.000000   -2.681797
     10          1           0        3.902038    0.000000   -1.498107
 ---------------------------------------------------------------------
                    Distance matrix (angstroms):
                    1          2          3          4          5
     1  H    0.000000
     2  H    1.183690   0.000000
     3  H    1.183690   2.095101   0.000000
     4  H    1.102286   1.183690   1.183690   0.000000
     5  H    2.367379   3.190614   1.183690   2.095101   0.000000
     6  H    1.957343   2.367379   1.102286   1.183690   1.183690
     7  H    3.551069   4.332763   2.367379   3.190614   1.183690
     8  H    3.041314   3.551069   1.957343   2.367379   1.102286
     9  H    4.734758   5.492530   3.551069   4.332763   2.367379
    10  H    4.179740   4.734758   3.041314   3.551069   1.957343
                    6          7          8          9         10
     6  H    0.000000
     7  H    2.095101   0.000000
     8  H    1.183690   1.183690   0.000000
     9  H    3.190614   1.183690   2.095101   0.000000
    10  H    2.367379   1.102286   1.183690   1.183690   0.000000
 Stoichiometry    H10
 Framework group  C2H[SGH(H10)]
 Deg. of freedom     9
 Full point group                 C2H     NOp   4
 Largest Abelian subgroup         C2H     NOp   4
 Largest concise Abelian subgroup C2      NOp   2
                         Standard orientation:                         
 ---------------------------------------------------------------------
 Center     Atomic      Atomic             Coordinates (Angstroms)
 Number     Number       Type             X           Y           Z
 ---------------------------------------------------------------------
      1          1           0        1.951019   -0.749054    0.000000
      2          1           0        1.951019   -1.932743    0.000000
      3          1           0        0.975510   -0.078604    0.000000
      4          1           0        0.975510   -1.262294    0.000000
      5          1           0        0.000000    0.591845    0.000000
      6          1           0       -0.000000   -0.591845    0.000000
      7          1           0       -0.975510    1.262294    0.000000
      8          1           0       -0.975510    0.078604    0.000000
      9          1           0       -1.951019    1.932743    0.000000
     10          1           0       -1.951019    0.749054    0.000000
 ---------------------------------------------------------------------
 Rotational constants (GHZ):    219.9809704     17.1462940     15.9064729
 General basis read from cards:  (5D, 7F)
 There are     5 symmetry adapted cartesian basis functions of AG  symmetry.
 There are     0 symmetry adapted cartesian basis functions of BG  symmetry.
 There are     0 symmetry adapted cartesian basis functions of AU  symmetry.
 There are     5 symmetry adapted cartesian basis functions of BU  symmetry.
 There are     5 symmetry adapted basis functions of AG  symmetry.
 There are     0 symmetry adapted basis functions of BG  symmetry.
 There are     0 symmetry adapted basis functions of AU  symmetry.
 There are     5 symmetry adapted basis functions of BU  symmetry.
    10 basis functions,   100 primitive gaussians,    10 cartesian basis functions
     5 alpha electrons        5 beta electrons
       nuclear repulsion energy        13.0269654988 Hartrees.
 NAtoms=   10 NActive=   10 NUniq=    5 SFac= 4.00D+00 NAtFMM=   60 NAOKFM=F Big=F
 Integral buffers will be    131072 words long.
 Regular integral format.
 Two-electron integral symmetry is turned on.
 One-electron integrals computed using PRISM.
 NBasis=    10 RedAO= T EigKep=  1.95D-01  NBF=     5     0     0     5
 NBsUse=    10 1.00D-06 EigRej= -1.00D+00 NBFU=     5     0     0     5
 Initial guess from the checkpoint file:  "h10.chk"
 B after Tr=     0.000000    0.000000    0.000000
         Rot=    0.999992   -0.000000   -0.000000   -0.003879 Ang=  -0.44 deg.
 Initial guess orbital symmetries:
 Alpha Orbitals:
       Occupied  (BG) (BG) (BG) (BG) (BG)
       Virtual   (BG) (BG) (BG) (BG) (BG)
 Beta  Orbitals:
       Occupied  (BG) (BG) (BG) (BG) (BG)
       Virtual   (BG) (BG) (BG) (BG) (BG)
 Initial guess <Sx>= 0.0000 <Sy>= 0.0000 <Sz>= 0.0000 <S**2>= 0.9211 S= 0.5822
 Keep R1 and R2 ints in memory in symmetry-blocked form, NReq=878739.
 Requested convergence on RMS density matrix=1.00D-08 within 128 cycles.
 Requested convergence on MAX density matrix=1.00D-06.
 Requested convergence on             energy=1.00D-06.
 No special actions if energy rises.
 An orbital has undefined symmetry, so N**3 symmetry is turned off.
 Density matrix breaks symmetry, PCut= 1.00D-04
 Density matrix has no symmetry -- integrals replicated.
 Density matrix breaks symmetry, PCut= 1.00D-07
 Density matrix has no symmetry -- integrals replicated.
 Density matrix breaks symmetry, PCut= 1.00D-07
 Density matrix has no symmetry -- integrals replicated.
 Density matrix breaks symmetry, PCut= 1.00D-07
 Density matrix has no symmetry -- integrals replicated.
 Density matrix breaks symmetry, PCut= 1.00D-07
 Density matrix has no symmetry -- integrals replicated.
 Density matrix breaks symmetry, PCut= 1.00D-07
 Density matrix has no symmetry -- integrals replicated.
 Density matrix breaks symmetry, PCut= 1.00D-07
 Density matrix has no symmetry -- integrals replicated.
 Density matrix breaks symmetry, PCut= 1.00D-07
 Density matrix has no symmetry -- integrals replicated.
 Density matrix breaks symmetry, PCut= 1.00D-07
 Density matrix has no symmetry -- integrals replicated.
 Density matrix breaks symmetry, PCut= 1.00D-07
 Density matrix has no symmetry -- integrals replicated.
 Density matrix breaks symmetry, PCut= 1.00D-07
 Density matrix has no symmetry -- integrals replicated.
 Density matrix breaks symmetry, PCut= 1.00D-07
 Density matrix has no symmetry -- integrals replicated.
 Density matrix breaks symmetry, PCut= 1.00D-07
 Density matrix has no symmetry -- integrals replicated.
 Density matrix breaks symmetry, PCut= 1.00D-07
 Density matrix has no symmetry -- integrals replicated.
 Density matrix breaks symmetry, PCut= 1.00D-07
 Density matrix has no symmetry -- integrals replicated.
 Density matrix breaks symmetry, PCut= 1.00D-07
 Density matrix has no symmetry -- integrals replicated.
 Density matrix breaks symmetry, PCut= 1.00D-07
 Density matrix has no symmetry -- integrals replicated.
 Density matrix breaks symmetry, PCut= 1.00D-07
 Density matrix has no symmetry -- integrals replicated.
 SCF Done:  E(UHF) =  -4.88249236507     A.U. after   17 cycles
            NFock= 17  Conv=0.38D-08     -V/T= 1.9492
 <Sx>= 0.0000 <Sy>= 0.0000 <Sz>= 0.0000 <S**2>= 0.9234 S= 0.5832
 <L.S>= 0.000000000000E+00
 Annihilation of the first spin contaminant:
 S**2 before annihilation     0.9234,   after     0.9711
 Range of M.O.s used for correlation:     1    10
 NBasis=    10 NAE=     5 NBE=     5 NFC=     0 NFV=     0
 NROrb=     10 NOA=     5 NOB=     5 NVA=     5 NVB=     5
 Semi-Direct transformation.
 ModeAB=           2 MOrb=             5 LenV=     134107781
 LASXX=         1030 LTotXX=        1030 LenRXX=        1030
 LTotAB=        1825 MaxLAS=        2750 LenRXY=        2750
 NonZer=        2750 LenScr=      655360 LnRSAI=           0
 LnScr1=           0 LExtra=           0 Total=       659140
 MaxDsk=          -1 SrtSym=           F ITran=            3
 JobTyp=1 Pass  1:  I=   1 to   5.
 (rs|ai) integrals will be sorted in core.
 ModeAB=           2 MOrb=             5 LenV=     134107781
 LASXX=         1030 LTotXX=        1030 LenRXX=        2750
 LTotAB=         225 MaxLAS=        2750 LenRXY=         225
 NonZer=        2750 LenScr=      655360 LnRSAI=           0
 LnScr1=           0 LExtra=           0 Total=       658335
 MaxDsk=          -1 SrtSym=           F ITran=            3
 JobTyp=2 Pass  1:  I=   1 to   5.
 (rs|ai) integrals will be sorted in core.
 SymMOI:  orbitals are not symmetric.
 Spin components of T(2) and E(2):
     alpha-alpha T2 =       0.4193208824D-02 E2=     -0.5551127005D-02
     alpha-beta  T2 =       0.4574496805D-01 E2=     -0.6638077874D-01
     beta-beta   T2 =       0.4193208824D-02 E2=     -0.5551127005D-02
 ANorm=    0.1026709007D+01
 E2 =    -0.7748303275D-01 EUMP2 =    -0.49599753978209D+01
 (S**2,0)=  0.92341D+00           (S**2,1)=  0.83404D+00
 E(PUHF)=      -0.49316781592D+01        E(PMP2)=      -0.50076926732D+01
 Second order stability test of a single determinant UHF wave function:
 Stabil:  MDV=134217728
 ***********************************************************************
 Matrix         Lowest Root    Major Pairs
 ***********************************************************************
 Internal UHF     0.0332241    Stable
 RUHF --> CUHF (A)0.1164648    Stable
 RUHF --> CUHF (B)0.1164648    Stable
 RUHF --> GHF     0.           Zero root
 Stable under the perturbations considered.
 ***********************************************************************

 **********************************************************************

            Population analysis using the SCF density.

 **********************************************************************

 Orbital symmetries:
 Alpha Orbitals:
       Occupied  (BG) (BG) (BG) (BG) (BG)
       Virtual   (BG) (BG) (BG) (BG) (BG)
 Beta  Orbitals:
       Occupied  (BG) (BG) (BG) (BG) (BG)
       Virtual   (BG) (BG) (BG) (BG) (BG)
 Unable to determine electronic state:  partially filled degenerate orbitals.
 Alpha  occ. eigenvalues --   -0.84993  -0.72791  -0.56179  -0.35039  -0.33312
 Alpha virt. eigenvalues --    0.05229   0.18748   0.26619   0.49604   0.57464
  Beta  occ. eigenvalues --   -0.84993  -0.72791  -0.56179  -0.35039  -0.33312
  Beta virt. eigenvalues --    0.05229   0.18748   0.26619   0.49604   0.57464
          Condensed to atoms (all electrons):
               1          2          3          4          5          6
     1  H    0.794337   0.156794   0.117107  -0.048098   0.012843  -0.129450
     2  H    0.156794   0.981061  -0.138155   0.087709   0.001261  -0.043670
     3  H    0.117107  -0.138155   1.249030  -0.069456   0.114613   0.051159
     4  H   -0.048098   0.087709  -0.069456   0.811721  -0.094668   0.253169
     5  H    0.012843   0.001261   0.114613  -0.094668   0.924714  -0.125382
     6  H   -0.129450  -0.043670   0.051159   0.253169  -0.125382   0.924714
     7  H    0.004819   0.001481  -0.011196  -0.009373   0.253169  -0.094668
     8  H   -0.005365   0.010679  -0.168805  -0.011196   0.051159   0.114613
     9  H   -0.000274  -0.000298   0.010679   0.001481  -0.043670   0.001261
    10  H    0.000390  -0.000274  -0.005365   0.004819  -0.129450   0.012843
               7          8          9         10
     1  H    0.004819  -0.005365  -0.000274   0.000390
     2  H    0.001481   0.010679  -0.000298  -0.000274
     3  H   -0.011196  -0.168805   0.010679  -0.005365
     4  H   -0.009373  -0.011196   0.001481   0.004819
     5  H    0.253169   0.051159  -0.043670  -0.129450
     6  H   -0.094668   0.114613   0.001261   0.012843
     7  H    0.811721  -0.069456   0.087709  -0.048098
     8  H   -0.069456   1.249030  -0.138155   0.117107
     9  H    0.087709  -0.138155   0.981061   0.156794
    10  H   -0.048098   0.117107   0.156794   0.794337
          Atomic-Atomic Spin Densities.
               1          2          3          4          5          6
     1  H   -0.593514  -0.040209  -0.029218   0.167493  -0.023473   0.106333
     2  H   -0.040209   0.566502  -0.029923  -0.054113   0.009077  -0.009865
     3  H   -0.029218  -0.029923  -0.183190   0.240117  -0.164278   0.076849
     4  H    0.167493  -0.054113   0.240117  -0.469752   0.032981  -0.181421
     5  H   -0.023473   0.009077  -0.164278   0.032981   0.319281  -0.000000
     6  H    0.106333  -0.009865   0.076849  -0.181421  -0.000000  -0.319281
     7  H   -0.002035   0.000523   0.006839  -0.000000   0.181421  -0.032981
     8  H   -0.009274   0.000803  -0.000000  -0.006839  -0.076849   0.164278
     9  H    0.000754  -0.000000  -0.000803  -0.000523   0.009865  -0.009077
    10  H   -0.000000  -0.000754   0.009274   0.002035  -0.106333   0.023473
               7          8          9         10
     1  H   -0.002035  -0.009274   0.000754  -0.000000
     2  H    0.000523   0.000803  -0.000000  -0.000754
     3  H    0.006839  -0.000000  -0.000803   0.009274
     4  H   -0.000000  -0.006839  -0.000523   0.002035
     5  H    0.181421  -0.076849   0.009865  -0.106333
     6  H   -0.032981   0.164278  -0.009077   0.023473
     7  H    0.469752  -0.240117   0.054113  -0.167493
     8  H   -0.240117   0.183190   0.029923   0.029218
     9  H    0.054113   0.029923  -0.566502   0.040209
    10  H   -0.167493   0.029218   0.040209   0.593514
 Mulliken charges and spin densities:
               1          2
     1  H    0.096897  -0.423142
     2  H   -0.056588   0.442039
     3  H   -0.149611  -0.074333
     4  H    0.073892  -0.270022
     5  H    0.035411   0.181693
     6  H    0.035411  -0.181693
     7  H    0.073892   0.270022
     8  H   -0.149611   0.074333
     9  H   -0.056588  -0.442039
    10  H    0.096897   0.423142
 Sum of Mulliken charges =   0.00000   0.00000
 Mulliken charges and spin densities with hydrogens summed into heavy atoms:
               1          2
 Electronic spatial extent (au):  <R**2>=            144.2384
 Charge=              0.0000 electrons
 Dipole moment (field-independent basis, Debye):
    X=              0.0000    Y=             -0.0000    Z=             -0.0000  Tot=              0.0000
 Quadrupole moment (field-independent basis, Debye-Ang):
   XX=            -14.3333   YY=            -15.2967   ZZ=            -12.9534
   XY=              0.5025   XZ=             -0.0000   YZ=              0.0000
 Traceless Quadrupole moment (field-independent basis, Debye-Ang):
   XX=             -0.1388   YY=             -1.1023   ZZ=              1.2410
   XY=              0.5025   XZ=             -0.0000   YZ=              0.0000
 Octapole moment (field-independent basis, Debye-Ang**2):
  XXX=              0.0000  YYY=             -0.0000  ZZZ=             -0.0000  XYY=              0.0000
  XXY=             -0.0000  XXZ=             -0.0000  XZZ=              0.0000  YZZ=             -0.0000
  YYZ=             -0.0000  XYZ=              0.0000
 Hexadecapole moment (field-independent basis, Debye-Ang**3):
 XXXX=           -179.6255 YYYY=           -130.6738 ZZZZ=            -15.6549 XXXY=             62.6428
 XXXZ=             -0.0000 YYYX=             62.6627 YYYZ=              0.0000 ZZZX=             -0.0000
 ZZZY=              0.0000 XXYY=            -58.9849 XXZZ=            -31.1887 YYZZ=            -22.7984
 XXYZ=              0.0000 YYXZ=             -0.0000 ZZXY=             17.6417
 N-N= 1.302696549879D+01 E-N=-3.531655222965D+01  KE= 5.143933247611D+00
 Symmetry AG   KE= 1.940591977532D+00
 Symmetry BG   KE= 0.000000000000D+00
 Symmetry AU   KE= 0.000000000000D+00
 Symmetry BU   KE= 3.203341270079D+00
                          Isotropic Fermi Contact Couplings
        Atom                 a.u.       MegaHertz       Gauss      10(-4) cm-1
     1  H(1)              -0.16484    -368.41480    -131.45956    -122.88995
     2  H(1)               0.16151     360.96203     128.80022     120.40397
     3  H(1)              -0.04283     -95.71432     -34.15325     -31.92686
     4  H(1)              -0.12182    -272.27097     -97.15305     -90.81982
     5  H(1)               0.08570     191.53575      68.34472      63.88945
     6  H(1)              -0.08570    -191.53575     -68.34472     -63.88945
     7  H(1)               0.12182     272.27097      97.15305      90.81982
     8  H(1)               0.04283      95.71432      34.15325      31.92686
     9  H(1)              -0.16151    -360.96203    -128.80022    -120.40397
    10  H(1)               0.16484     368.41480     131.45956     122.88995
 --------------------------------------------------------
       Center         ----  Spin Dipole Couplings  ----
                      3XX-RR        3YY-RR        3ZZ-RR
 --------------------------------------------------------
     1   Atom       -0.023422      0.037150     -0.013728
     2   Atom       -0.003130     -0.045267      0.048397
     3   Atom       -0.033496      0.003853      0.029643
     4   Atom       -0.048289      0.041779      0.006509
     5   Atom       -0.009701      0.006198      0.003504
     6   Atom        0.009701     -0.006198     -0.003504
     7   Atom        0.048289     -0.041779     -0.006509
     8   Atom        0.033496     -0.003853     -0.029643
     9   Atom        0.003130      0.045267     -0.048397
    10   Atom        0.023422     -0.037150      0.013728
 --------------------------------------------------------
                        XY            XZ            YZ
 --------------------------------------------------------
     1   Atom       -0.016028     -0.000000     -0.000000
     2   Atom        0.017690     -0.000000     -0.000000
     3   Atom       -0.010410     -0.000000     -0.000000
     4   Atom       -0.039355      0.000000      0.000000
     5   Atom        0.001108     -0.000000      0.000000
     6   Atom       -0.001108      0.000000     -0.000000
     7   Atom        0.039355     -0.000000     -0.000000
     8   Atom        0.010410     -0.000000      0.000000
     9   Atom       -0.017690     -0.000000     -0.000000
    10   Atom        0.016028      0.000000      0.000000
 --------------------------------------------------------


 ---------------------------------------------------------------------------------
              Anisotropic Spin Dipole Couplings in Principal Axis System
 ---------------------------------------------------------------------------------

       Atom             a.u.   MegaHertz   Gauss  10(-4) cm-1        Axes

              Baa    -0.0274   -14.620    -5.217    -4.877  0.9705  0.2410 -0.0000
     1 H(1)   Bbb    -0.0137    -7.325    -2.614    -2.443  0.0000  0.0000  1.0000
              Bcc     0.0411    21.945     7.830     7.320 -0.2410  0.9705  0.0000
 
              Baa    -0.0517   -27.590    -9.845    -9.203 -0.3422  0.9396  0.0000
     2 H(1)   Bbb     0.0033     1.767     0.631     0.589  0.9396  0.3422 -0.0000
              Bcc     0.0484    25.822     9.214     8.613  0.0000  0.0000  1.0000
 
              Baa    -0.0362   -19.315    -6.892    -6.443  0.9678  0.2515  0.0000
     3 H(1)   Bbb     0.0066     3.499     1.249     1.167 -0.2515  0.9678 -0.0000
              Bcc     0.0296    15.816     5.644     5.276  0.0000  0.0000  1.0000
 
              Baa    -0.0631   -33.647   -12.006   -11.223  0.9362  0.3514  0.0000
     4 H(1)   Bbb     0.0065     3.473     1.239     1.158  0.0000  0.0000  1.0000
              Bcc     0.0566    30.174    10.767    10.065 -0.3514  0.9362 -0.0000
 
              Baa    -0.0098    -5.217    -1.862    -1.740  0.9976 -0.0692  0.0000
     5 H(1)   Bbb     0.0035     1.869     0.667     0.624  0.0000  0.0000  1.0000
              Bcc     0.0063     3.348     1.195     1.117  0.0692  0.9976  0.0000
 
              Baa    -0.0063    -3.348    -1.195    -1.117  0.0692  0.9976  0.0000
     6 H(1)   Bbb    -0.0035    -1.869    -0.667    -0.624  0.0000  0.0000  1.0000
              Bcc     0.0098     5.217     1.862     1.740  0.9976 -0.0692  0.0000
 
              Baa    -0.0566   -30.174   -10.767   -10.065 -0.3514  0.9362 -0.0000
     7 H(1)   Bbb    -0.0065    -3.473    -1.239    -1.158  0.0000  0.0000  1.0000
              Bcc     0.0631    33.647    12.006    11.223  0.9362  0.3514  0.0000
 
              Baa    -0.0296   -15.816    -5.644    -5.276  0.0000  0.0000  1.0000
     8 H(1)   Bbb    -0.0066    -3.499    -1.249    -1.167 -0.2515  0.9678  0.0000
              Bcc     0.0362    19.315     6.892     6.443  0.9678  0.2515  0.0000
 
              Baa    -0.0484   -25.822    -9.214    -8.613  0.0000  0.0000  1.0000
     9 H(1)   Bbb    -0.0033    -1.767    -0.631    -0.589  0.9396  0.3422  0.0000
              Bcc     0.0517    27.590     9.845     9.203 -0.3422  0.9396  0.0000
 
              Baa    -0.0411   -21.945    -7.830    -7.320 -0.2410  0.9705 -0.0000
    10 H(1)   Bbb     0.0137     7.325     2.614     2.443  0.0000  0.0000  1.0000
              Bcc     0.0274    14.620     5.217     4.877  0.9705  0.2410  0.0000
 

 ---------------------------------------------------------------------------------


 Test job not archived.
 1\1\GINC-SULU\Stability\UHF\Gen\H10\LCJ1\28-Feb-2017\0\\#uhf/gen scf(t
 ight,novaracc,noincfock,fulldiag, ) stable(crhf) guess=read geom=nocro
 wd test\\hf stability analysis of h10 triangular lattice, y= 0.5511430
 6761649301 alpha= 27.750000000000000\\0,1\H\H,1,1.1836895746\H,1,1.183
 6895746,2,124.5\H,2,1.1836895746,1,55.5,3,0.,0\H,3,1.1836895746,1,180.
 ,2,0.,0\H,4,1.1836895746,2,180.,1,0.,0\H,5,1.1836895746,3,180.,2,0.,0\
 H,6,1.1836895746,4,180.,1,0.,0\H,7,1.1836895746,5,180.,2,0.,0\H,8,1.18
 36895746,6,180.,1,0.,0\\Version=ES64L-G09RevE.01\HF=-4.8824924\MP2=-4.
 9599754\PUHF=-4.9316782\PMP2-0=-5.0076927\S2=0.923411\S2-1=0.834042\S2
 A=0.971109\RMSD=3.755e-09\Dipole=0.,0.,0.\Quadrupole=-0.1031817,0.9226
 832,-0.8195015,0.,0.3735883,0.\PG=C02H [SGH(H10)]\\@


 NOT WHAT WE DID SHALL BE THE TEST
 WHEN ACT AND WILL ARE DONE,
 BUT WHAT OUR LORD INFERS WE WOULD-
 HAD WE DIVINER BEEN.
           EMILY DICKINSON  POEMS NO. CLXXV
 Job cpu time:       0 days  0 hours  0 minutes  1.3 seconds.
 File lengths (MBytes):  RWF=     94 Int=      0 D2E=      0 Chk=      2 Scr=      2
 Normal termination of Gaussian 09 at Tue Feb 28 16:22:15 2017.
