 Entering Gaussian System, Link 0=g09
 AtFile(1): H.gbs
            H     0
            S   10   1.00
               1000.000000000000            0.000068713567
                316.227766000000            0.000169141320
                100.000000000000            0.000823394812
                 31.622776600000            0.003425569236
                 10.000000000000            0.013951996000
                  3.162277660000            0.056909313560
                  1.000000000000            0.198286399900
                  0.316227766000            0.496922426700
                  0.100000000000            0.369846276400
                  0.031622776600            0.003752720039
            ****
 Initial command:
 /projects/guscus/apps/gau/g09-e1/g09/l1.exe "/users/lcj1/gaussian/h10/2rows_uhf/singlet/tripguessmix/followguesses/alpha20/Gau-10781.inp" -scrdir="/users/lcj1/gaussian/h10/2rows_uhf/singlet/tripguessmix/followguesses/alpha20/"
 Entering Link 1 = /projects/guscus/apps/gau/g09-e1/g09/l1.exe PID=     10782.
  
 Copyright (c) 1988,1990,1992,1993,1995,1998,2003,2009,2015,
            Gaussian, Inc.  All Rights Reserved.
  
 This is part of the Gaussian(R) 09 program.  It is based on
 the Gaussian(R) 03 system (copyright 2003, Gaussian, Inc.),
 the Gaussian(R) 98 system (copyright 1998, Gaussian, Inc.),
 the Gaussian(R) 94 system (copyright 1995, Gaussian, Inc.),
 the Gaussian 92(TM) system (copyright 1992, Gaussian, Inc.),
 the Gaussian 90(TM) system (copyright 1990, Gaussian, Inc.),
 the Gaussian 88(TM) system (copyright 1988, Gaussian, Inc.),
 the Gaussian 86(TM) system (copyright 1986, Carnegie Mellon
 University), and the Gaussian 82(TM) system (copyright 1983,
 Carnegie Mellon University). Gaussian is a federally registered
 trademark of Gaussian, Inc.
  
 This software contains proprietary and confidential information,
 including trade secrets, belonging to Gaussian, Inc.
  
 This software is provided under written license and may be
 used, copied, transmitted, or stored only in accord with that
 written license.
  
 The following legend is applicable only to US Government
 contracts under FAR:
  
                    RESTRICTED RIGHTS LEGEND
  
 Use, reproduction and disclosure by the US Government is
 subject to restrictions as set forth in subparagraphs (a)
 and (c) of the Commercial Computer Software - Restricted
 Rights clause in FAR 52.227-19.
  
 Gaussian, Inc.
 340 Quinnipiac St., Bldg. 40, Wallingford CT 06492
  
  
 ---------------------------------------------------------------
 Warning -- This program may not be used in any manner that
 competes with the business of Gaussian, Inc. or will provide
 assistance to any competitor of Gaussian, Inc.  The licensee
 of this program is prohibited from giving any competitor of
 Gaussian, Inc. access to this program.  By using this program,
 the user acknowledges that Gaussian, Inc. is engaged in the
 business of creating and licensing software in the field of
 computational chemistry and represents and warrants to the
 licensee that it is not a competitor of Gaussian, Inc. and that
 it will not use this program in any manner prohibited above.
 ---------------------------------------------------------------
  

 Cite this work as:
 Gaussian 09, Revision E.01,
 M. J. Frisch, G. W. Trucks, H. B. Schlegel, G. E. Scuseria, 
 M. A. Robb, J. R. Cheeseman, G. Scalmani, V. Barone, B. Mennucci, 
 G. A. Petersson, H. Nakatsuji, M. Caricato, X. Li, H. P. Hratchian, 
 A. F. Izmaylov, J. Bloino, G. Zheng, J. L. Sonnenberg, M. Hada, 
 M. Ehara, K. Toyota, R. Fukuda, J. Hasegawa, M. Ishida, T. Nakajima, 
 Y. Honda, O. Kitao, H. Nakai, T. Vreven, J. A. Montgomery, Jr., 
 J. E. Peralta, F. Ogliaro, M. Bearpark, J. J. Heyd, E. Brothers, 
 K. N. Kudin, V. N. Staroverov, T. Keith, R. Kobayashi, J. Normand, 
 K. Raghavachari, A. Rendell, J. C. Burant, S. S. Iyengar, J. Tomasi, 
 M. Cossi, N. Rega, J. M. Millam, M. Klene, J. E. Knox, J. B. Cross, 
 V. Bakken, C. Adamo, J. Jaramillo, R. Gomperts, R. E. Stratmann, 
 O. Yazyev, A. J. Austin, R. Cammi, C. Pomelli, J. W. Ochterski, 
 R. L. Martin, K. Morokuma, V. G. Zakrzewski, G. A. Voth, 
 P. Salvador, J. J. Dannenberg, S. Dapprich, A. D. Daniels, 
 O. Farkas, J. B. Foresman, J. V. Ortiz, J. Cioslowski, 
 and D. J. Fox, Gaussian, Inc., Wallingford CT, 2013.
 
 ******************************************
 Gaussian 09:  ES64L-G09RevE.01 30-Nov-2015
                28-Feb-2017 
 ******************************************
 %chk=h10.chk
 ----------------------------------------------------------------------
 #uhf/gen scf(tight,novaracc,noincfock,fulldiag, ) stable(crhf) guess=r
 ead geom=nocrowd test
 ----------------------------------------------------------------------
 1/38=1/1;
 2/12=1,17=6,18=5,40=1/2;
 3/5=7,16=1,25=1,30=1,116=2/1,2,3;
 4/5=1/1;
 5/5=100002,16=1,32=2,38=6/2;
 8/6=1,10=90,11=11/1,4;
 9/8=4,13=1/2;
 6/7=2,8=2,9=2,10=2,28=1/1;
 99/5=1,9=1/99;
 ----------------------------------------------------------------------
 hf stability analysis of h10 triangular lattice, y= 1.5360456330340897
  alpha= 76.250000000000000
 ----------------------------------------------------------------------
 Symbolic Z-matrix:
 Charge =  0 Multiplicity = 1
 H
 H                    1     1.58136 
 H                    1     1.58136  2     27.5 
 H                    2     1.58136  1     152.5    3     0.       0
 H                    3     1.58136  1     180.     2     0.       0
 H                    4     1.58136  2     180.     1     0.       0
 H                    5     1.58136  3     180.     2     0.       0
 H                    6     1.58136  4     180.     1     0.       0
 H                    7     1.58136  5     180.     2     0.       0
 H                    8     1.58136  6     180.     1     0.       0
 
                          Input orientation:                          
 ---------------------------------------------------------------------
 Center     Atomic      Atomic             Coordinates (Angstroms)
 Number     Number       Type             X           Y           Z
 ---------------------------------------------------------------------
      1          1           0        0.000000    0.000000    0.000000
      2          1           0        0.000000    0.000000    1.581364
      3          1           0        0.730193    0.000000    1.402687
      4          1           0        0.730193    0.000000    2.984051
      5          1           0        1.460385    0.000000    2.805374
      6          1           0        1.460385    0.000000    4.386739
      7          1           0        2.190578    0.000000    4.208062
      8          1           0        2.190578    0.000000    5.789426
      9          1           0        2.920771    0.000000    5.610749
     10          1           0        2.920771    0.000000    7.192113
 ---------------------------------------------------------------------
                    Distance matrix (angstroms):
                    1          2          3          4          5
     1  H    0.000000
     2  H    1.581364   0.000000
     3  H    1.581364   0.751736   0.000000
     4  H    3.072091   1.581364   1.581364   0.000000
     5  H    3.162728   1.905499   1.581364   0.751736   0.000000
     6  H    4.623440   3.162728   3.072091   1.581364   1.581364
     7  H    4.744093   3.420259   3.162728   1.905499   1.581364
     8  H    6.189999   4.744093   4.623440   3.162728   3.072091
     9  H    6.325457   4.976630   4.744093   3.420259   3.162728
    10  H    7.762564   6.325457   6.189999   4.744093   4.623440
                    6          7          8          9         10
     6  H    0.000000
     7  H    0.751736   0.000000
     8  H    1.581364   1.581364   0.000000
     9  H    1.905499   1.581364   0.751736   0.000000
    10  H    3.162728   3.072091   1.581364   1.581364   0.000000
 Stoichiometry    H10
 Framework group  C2H[SGH(H10)]
 Deg. of freedom     9
 Full point group                 C2H     NOp   4
 Largest Abelian subgroup         C2H     NOp   4
 Largest concise Abelian subgroup C2      NOp   2
                         Standard orientation:                         
 ---------------------------------------------------------------------
 Center     Atomic      Atomic             Coordinates (Angstroms)
 Number     Number       Type             X           Y           Z
 ---------------------------------------------------------------------
      1          1           0        1.460385    3.596057   -0.000000
      2          1           0        1.460385    2.014692   -0.000000
      3          1           0        0.730193    2.193369   -0.000000
      4          1           0        0.730193    0.612005   -0.000000
      5          1           0        0.000000    0.790682   -0.000000
      6          1           0       -0.000000   -0.790682   -0.000000
      7          1           0       -0.730193   -0.612005   -0.000000
      8          1           0       -0.730193   -2.193369   -0.000000
      9          1           0       -1.460385   -2.014692   -0.000000
     10          1           0       -1.460385   -3.596057   -0.000000
 ---------------------------------------------------------------------
 Rotational constants (GHZ):    414.1150330      9.1082354      8.9122160
 General basis read from cards:  (5D, 7F)
 There are     5 symmetry adapted cartesian basis functions of AG  symmetry.
 There are     0 symmetry adapted cartesian basis functions of BG  symmetry.
 There are     0 symmetry adapted cartesian basis functions of AU  symmetry.
 There are     5 symmetry adapted cartesian basis functions of BU  symmetry.
 There are     5 symmetry adapted basis functions of AG  symmetry.
 There are     0 symmetry adapted basis functions of BG  symmetry.
 There are     0 symmetry adapted basis functions of AU  symmetry.
 There are     5 symmetry adapted basis functions of BU  symmetry.
    10 basis functions,   100 primitive gaussians,    10 cartesian basis functions
     5 alpha electrons        5 beta electrons
       nuclear repulsion energy        11.3038169080 Hartrees.
 NAtoms=   10 NActive=   10 NUniq=    5 SFac= 4.00D+00 NAtFMM=   60 NAOKFM=F Big=F
 Integral buffers will be    131072 words long.
 Regular integral format.
 Two-electron integral symmetry is turned on.
 One-electron integrals computed using PRISM.
 NBasis=    10 RedAO= T EigKep=  1.68D-01  NBF=     5     0     0     5
 NBsUse=    10 1.00D-06 EigRej= -1.00D+00 NBFU=     5     0     0     5
 Initial guess from the checkpoint file:  "h10.chk"
 B after Tr=    -0.000000   -0.000000   -0.000000
         Rot=    0.999992   -0.000000    0.000000   -0.003879 Ang=  -0.44 deg.
 Initial guess orbital symmetries:
 Alpha Orbitals:
       Occupied  (BG) (BG) (BG) (BG) (BG)
       Virtual   (BG) (BG) (BG) (BG) (BG)
 Beta  Orbitals:
       Occupied  (BG) (BG) (BG) (BG) (BG)
       Virtual   (BG) (BG) (BG) (BG) (BG)
 Initial guess <Sx>= 0.0000 <Sy>= 0.0000 <Sz>= 0.0000 <S**2>= 1.0002 S= 0.6181
 Keep R1 and R2 ints in memory in symmetry-blocked form, NReq=874595.
 Requested convergence on RMS density matrix=1.00D-08 within 128 cycles.
 Requested convergence on MAX density matrix=1.00D-06.
 Requested convergence on             energy=1.00D-06.
 No special actions if energy rises.
 An orbital has undefined symmetry, so N**3 symmetry is turned off.
 Density matrix breaks symmetry, PCut= 1.00D-04
 Density matrix has no symmetry -- integrals replicated.
 Density matrix breaks symmetry, PCut= 1.00D-07
 Density matrix has no symmetry -- integrals replicated.
 Density matrix breaks symmetry, PCut= 1.00D-07
 Density matrix has no symmetry -- integrals replicated.
 Density matrix breaks symmetry, PCut= 1.00D-07
 Density matrix has no symmetry -- integrals replicated.
 Density matrix breaks symmetry, PCut= 1.00D-07
 Density matrix has no symmetry -- integrals replicated.
 Density matrix breaks symmetry, PCut= 1.00D-07
 Density matrix has no symmetry -- integrals replicated.
 Density matrix breaks symmetry, PCut= 1.00D-07
 Density matrix has no symmetry -- integrals replicated.
 Density matrix breaks symmetry, PCut= 1.00D-07
 Density matrix has no symmetry -- integrals replicated.
 Density matrix breaks symmetry, PCut= 1.00D-07
 Density matrix has no symmetry -- integrals replicated.
 Density matrix breaks symmetry, PCut= 1.00D-07
 Density matrix has no symmetry -- integrals replicated.
 Density matrix breaks symmetry, PCut= 1.00D-07
 Density matrix has no symmetry -- integrals replicated.
 SCF Done:  E(UHF) =  -5.15760835834     A.U. after   10 cycles
            NFock= 10  Conv=0.18D-08     -V/T= 1.9833
 <Sx>= 0.0000 <Sy>= 0.0000 <Sz>= 0.0000 <S**2>= 1.0001 S= 0.6181
 <L.S>= 0.000000000000E+00
 Annihilation of the first spin contaminant:
 S**2 before annihilation     1.0001,   after     0.0022
 Range of M.O.s used for correlation:     1    10
 NBasis=    10 NAE=     5 NBE=     5 NFC=     0 NFV=     0
 NROrb=     10 NOA=     5 NOB=     5 NVA=     5 NVB=     5
 Semi-Direct transformation.
 ModeAB=           2 MOrb=             5 LenV=     134111477
 LASXX=         1030 LTotXX=        1030 LenRXX=        1030
 LTotAB=        1825 MaxLAS=        2750 LenRXY=        2750
 NonZer=        2750 LenScr=      655360 LnRSAI=           0
 LnScr1=           0 LExtra=           0 Total=       659140
 MaxDsk=          -1 SrtSym=           F ITran=            3
 JobTyp=1 Pass  1:  I=   1 to   5.
 (rs|ai) integrals will be sorted in core.
 ModeAB=           2 MOrb=             5 LenV=     134111477
 LASXX=         1030 LTotXX=        1030 LenRXX=        2750
 LTotAB=         225 MaxLAS=        2750 LenRXY=         225
 NonZer=        2750 LenScr=      655360 LnRSAI=           0
 LnScr1=           0 LExtra=           0 Total=       658335
 MaxDsk=          -1 SrtSym=           F ITran=            3
 JobTyp=2 Pass  1:  I=   1 to   5.
 (rs|ai) integrals will be sorted in core.
 SymMOI:  orbitals are not symmetric.
 Spin components of T(2) and E(2):
     alpha-alpha T2 =       0.3791212468D-03 E2=     -0.7804498488D-03
     alpha-beta  T2 =       0.2302942028D-01 E2=     -0.4685706832D-01
     beta-beta   T2 =       0.3791212468D-03 E2=     -0.7804498488D-03
 ANorm=    0.1011823929D+01
 E2 =    -0.4841796802D-01 EUMP2 =    -0.52060263263577D+01
 (S**2,0)=  0.10001D+01           (S**2,1)=  0.99993D+00
 E(PUHF)=      -0.51577411733D+01        E(PMP2)=      -0.52061591288D+01
 Second order stability test of a single determinant UHF wave function:
 Stabil:  MDV=134217728
 ***********************************************************************
 Matrix         Lowest Root    Major Pairs
 ***********************************************************************
 Internal UHF     0.174283     Stable
 RUHF --> CUHF (A)0.3433216    Stable
 RUHF --> CUHF (B)0.3433216    Stable
 RUHF --> GHF     0.           Zero root
 Stable under the perturbations considered.
 ***********************************************************************

 **********************************************************************

            Population analysis using the SCF density.

 **********************************************************************

 Orbital symmetries:
 Alpha Orbitals:
       Occupied  (BG) (BG) (BG) (BG) (BG)
       Virtual   (BG) (BG) (BG) (BG) (BG)
 Beta  Orbitals:
       Occupied  (BG) (BG) (BG) (BG) (BG)
       Virtual   (BG) (BG) (BG) (BG) (BG)
 Unable to determine electronic state:  partially filled degenerate orbitals.
 Alpha  occ. eigenvalues --   -0.75120  -0.69772  -0.60854  -0.49672  -0.40227
 Alpha virt. eigenvalues --    0.18550   0.23276   0.33431   0.49130   0.64923
  Beta  occ. eigenvalues --   -0.75120  -0.69772  -0.60854  -0.49672  -0.40227
  Beta virt. eigenvalues --    0.18550   0.23276   0.33431   0.49130   0.64923
          Condensed to atoms (all electrons):
               1          2          3          4          5          6
     1  H    1.178973  -0.086497  -0.078502   0.000927   0.002723   0.000033
     2  H   -0.086497   0.733209   0.533634  -0.101568  -0.079898   0.003653
     3  H   -0.078502   0.533634   0.699718  -0.082407  -0.095772   0.002282
     4  H    0.000927  -0.101568  -0.082407   0.781646   0.581438  -0.105893
     5  H    0.002723  -0.079898  -0.095772   0.581438   0.779930  -0.091864
     6  H    0.000033   0.003653   0.002282  -0.105893  -0.091864   0.779930
     7  H   -0.000019   0.003384   0.003201  -0.082870  -0.105893   0.581438
     8  H   -0.000002  -0.000049  -0.000001   0.003201   0.002282  -0.095772
     9  H   -0.000001  -0.000073  -0.000049   0.003384   0.003653  -0.079898
    10  H    0.000000  -0.000001  -0.000002  -0.000019   0.000033   0.002723
               7          8          9         10
     1  H   -0.000019  -0.000002  -0.000001   0.000000
     2  H    0.003384  -0.000049  -0.000073  -0.000001
     3  H    0.003201  -0.000001  -0.000049  -0.000002
     4  H   -0.082870   0.003201   0.003384  -0.000019
     5  H   -0.105893   0.002282   0.003653   0.000033
     6  H    0.581438  -0.095772  -0.079898   0.002723
     7  H    0.781646  -0.082407  -0.101568   0.000927
     8  H   -0.082407   0.699718   0.533634  -0.078502
     9  H   -0.101568   0.533634   0.733209  -0.086497
    10  H    0.000927  -0.078502  -0.086497   1.178973
          Atomic-Atomic Spin Densities.
               1          2          3          4          5          6
     1  H    1.172359  -0.104736  -0.095664   0.004218   0.005569  -0.000116
     2  H   -0.104736   0.087406   0.051192  -0.005872  -0.008781   0.000245
     3  H   -0.095664   0.051192   0.050582  -0.003881  -0.009775   0.000213
     4  H    0.004218  -0.005872  -0.003881  -0.010751   0.004827   0.002592
     5  H    0.005569  -0.008781  -0.009775   0.004827   0.025103   0.000000
     6  H   -0.000116   0.000245   0.000213   0.002592   0.000000  -0.025103
     7  H   -0.000148   0.000363   0.000395  -0.000000  -0.002592  -0.004827
     8  H    0.000002   0.000004   0.000000  -0.000395  -0.000213   0.009775
     9  H    0.000003  -0.000000  -0.000004  -0.000363  -0.000245   0.008781
    10  H   -0.000000  -0.000003  -0.000002   0.000148   0.000116  -0.005569
               7          8          9         10
     1  H   -0.000148   0.000002   0.000003  -0.000000
     2  H    0.000363   0.000004  -0.000000  -0.000003
     3  H    0.000395   0.000000  -0.000004  -0.000002
     4  H   -0.000000  -0.000395  -0.000363   0.000148
     5  H   -0.002592  -0.000213  -0.000245   0.000116
     6  H   -0.004827   0.009775   0.008781  -0.005569
     7  H    0.010751   0.003881   0.005872  -0.004218
     8  H    0.003881  -0.050582  -0.051192   0.095664
     9  H    0.005872  -0.051192  -0.087406   0.104736
    10  H   -0.004218   0.095664   0.104736  -1.172359
 Mulliken charges and spin densities:
               1          2
     1  H   -0.017636   0.981486
     2  H   -0.005793   0.019817
     3  H    0.017900  -0.006943
     4  H    0.002161  -0.009478
     5  H    0.003369   0.014009
     6  H    0.003369  -0.014009
     7  H    0.002161   0.009478
     8  H    0.017900   0.006943
     9  H   -0.005793  -0.019817
    10  H   -0.017636  -0.981486
 Sum of Mulliken charges =   0.00000   0.00000
 Mulliken charges and spin densities with hydrogens summed into heavy atoms:
               1          2
 Electronic spatial extent (au):  <R**2>=            234.1600
 Charge=              0.0000 electrons
 Dipole moment (field-independent basis, Debye):
    X=             -0.0000    Y=             -0.0000    Z=              0.0000  Tot=              0.0000
 Quadrupole moment (field-independent basis, Debye-Ang):
   XX=            -12.5217   YY=            -19.3724   ZZ=            -12.8018
   XY=             -3.4050   XZ=             -0.0000   YZ=             -0.0000
 Traceless Quadrupole moment (field-independent basis, Debye-Ang):
   XX=              2.3769   YY=             -4.4738   ZZ=              2.0969
   XY=             -3.4050   XZ=             -0.0000   YZ=             -0.0000
 Octapole moment (field-independent basis, Debye-Ang**2):
  XXX=             -0.0000  YYY=             -0.0000  ZZZ=              0.0000  XYY=             -0.0000
  XXY=             -0.0000  XXZ=              0.0000  XZZ=              0.0000  YZZ=             -0.0000
  YYZ=              0.0000  XYZ=              0.0000
 Hexadecapole moment (field-independent basis, Debye-Ang**3):
 XXXX=            -95.0404 YYYY=           -504.8174 ZZZZ=            -15.3961 XXXY=            -86.1969
 XXXZ=             -0.0000 YYYX=           -135.5516 YYYZ=             -0.0000 ZZZX=             -0.0000
 ZZZY=             -0.0000 XXYY=            -98.5214 XXZZ=            -18.8668 YYZZ=            -66.2646
 XXYZ=             -0.0000 YYXZ=             -0.0000 ZZXY=            -27.6110
 N-N= 1.130381690800D+01 E-N=-3.225519919949D+01  KE= 5.245244133357D+00
 Symmetry AG   KE= 2.263128395592D+00
 Symmetry BG   KE= 0.000000000000D+00
 Symmetry AU   KE= 0.000000000000D+00
 Symmetry BU   KE= 2.982115737765D+00
                          Isotropic Fermi Contact Couplings
        Atom                 a.u.       MegaHertz       Gauss      10(-4) cm-1
     1  H(1)               0.34851     778.88863     277.92682     259.80928
     2  H(1)               0.02700      60.34206      21.53155      20.12794
     3  H(1)               0.01663      37.16517      13.26146      12.39697
     4  H(1)              -0.00272      -6.06974      -2.16583      -2.02465
     5  H(1)               0.00708      15.83422       5.65004       5.28173
     6  H(1)              -0.00708     -15.83422      -5.65004      -5.28173
     7  H(1)               0.00272       6.06974       2.16583       2.02465
     8  H(1)              -0.01663     -37.16517     -13.26146     -12.39697
     9  H(1)              -0.02700     -60.34206     -21.53155     -20.12794
    10  H(1)              -0.34851    -778.88863    -277.92682    -259.80928
 --------------------------------------------------------
       Center         ----  Spin Dipole Couplings  ----
                      3XX-RR        3YY-RR        3ZZ-RR
 --------------------------------------------------------
     1   Atom        0.005782     -0.014993      0.009211
     2   Atom       -0.008436      0.036780     -0.028344
     3   Atom        0.007635      0.024621     -0.032256
     4   Atom        0.000622      0.007063     -0.007685
     5   Atom       -0.000819      0.003393     -0.002575
     6   Atom        0.000819     -0.003393      0.002575
     7   Atom       -0.000622     -0.007063      0.007685
     8   Atom       -0.007635     -0.024621      0.032256
     9   Atom        0.008436     -0.036780      0.028344
    10   Atom       -0.005782      0.014993     -0.009211
 --------------------------------------------------------
                        XY            XZ            YZ
 --------------------------------------------------------
     1   Atom       -0.005794     -0.000000     -0.000000
     2   Atom       -0.000552     -0.000000      0.000000
     3   Atom        0.015097     -0.000000      0.000000
     4   Atom        0.002162     -0.000000     -0.000000
     5   Atom        0.005854     -0.000000     -0.000000
     6   Atom       -0.005854     -0.000000     -0.000000
     7   Atom       -0.002162     -0.000000     -0.000000
     8   Atom       -0.015097     -0.000000     -0.000000
     9   Atom        0.000552      0.000000     -0.000000
    10   Atom        0.005794      0.000000      0.000000
 --------------------------------------------------------


 ---------------------------------------------------------------------------------
              Anisotropic Spin Dipole Couplings in Principal Axis System
 ---------------------------------------------------------------------------------

       Atom             a.u.   MegaHertz   Gauss  10(-4) cm-1        Axes

              Baa    -0.0165    -8.803    -3.141    -2.936  0.2517  0.9678  0.0000
     1 H(1)   Bbb     0.0073     3.889     1.388     1.297  0.9678 -0.2517  0.0000
              Bcc     0.0092     4.915     1.754     1.639  0.0000  0.0000  1.0000
 
              Baa    -0.0283   -15.123    -5.396    -5.044  0.0000  0.0000  1.0000
     2 H(1)   Bbb    -0.0084    -4.505    -1.607    -1.503  0.9999  0.0122  0.0000
              Bcc     0.0368    19.628     7.004     6.547 -0.0122  0.9999  0.0000
 
              Baa    -0.0323   -17.210    -6.141    -5.741  0.0000  0.0000  1.0000
     3 H(1)   Bbb    -0.0012    -0.637    -0.227    -0.213  0.8632 -0.5048  0.0000
              Bcc     0.0335    17.847     6.368     5.953  0.5048  0.8632  0.0000
 
              Baa    -0.0077    -4.100    -1.463    -1.368  0.0000  0.0000  1.0000
     4 H(1)   Bbb    -0.0000    -0.019    -0.007    -0.006  0.9566 -0.2913  0.0000
              Bcc     0.0077     4.120     1.470     1.374  0.2913  0.9566  0.0000
 
              Baa    -0.0049    -2.633    -0.939    -0.878  0.8181 -0.5751  0.0000
     5 H(1)   Bbb    -0.0026    -1.374    -0.490    -0.458  0.0000  0.0000  1.0000
              Bcc     0.0075     4.006     1.430     1.336  0.5751  0.8181  0.0000
 
              Baa    -0.0075    -4.006    -1.430    -1.336  0.5751  0.8181  0.0000
     6 H(1)   Bbb     0.0026     1.374     0.490     0.458  0.0000  0.0000  1.0000
              Bcc     0.0049     2.633     0.939     0.878  0.8181 -0.5751  0.0000
 
              Baa    -0.0077    -4.120    -1.470    -1.374  0.2913  0.9566  0.0000
     7 H(1)   Bbb     0.0000     0.019     0.007     0.006  0.9566 -0.2913  0.0000
              Bcc     0.0077     4.100     1.463     1.368  0.0000  0.0000  1.0000
 
              Baa    -0.0335   -17.847    -6.368    -5.953  0.5048  0.8632  0.0000
     8 H(1)   Bbb     0.0012     0.637     0.227     0.213  0.8632 -0.5048  0.0000
              Bcc     0.0323    17.210     6.141     5.741  0.0000  0.0000  1.0000
 
              Baa    -0.0368   -19.628    -7.004    -6.547 -0.0122  0.9999  0.0000
     9 H(1)   Bbb     0.0084     4.505     1.607     1.503  0.9999  0.0122  0.0000
              Bcc     0.0283    15.123     5.396     5.044  0.0000  0.0000  1.0000
 
              Baa    -0.0092    -4.915    -1.754    -1.639  0.0000  0.0000  1.0000
    10 H(1)   Bbb    -0.0073    -3.889    -1.388    -1.297  0.9678 -0.2517  0.0000
              Bcc     0.0165     8.803     3.141     2.936  0.2517  0.9678  0.0000
 

 ---------------------------------------------------------------------------------


 Test job not archived.
 1\1\GINC-SULU\Stability\UHF\Gen\H10\LCJ1\28-Feb-2017\0\\#uhf/gen scf(t
 ight,novaracc,noincfock,fulldiag, ) stable(crhf) guess=read geom=nocro
 wd test\\hf stability analysis of h10 triangular lattice, y= 1.5360456
 330340897 alpha= 76.250000000000000\\0,1\H\H,1,1.5813642453\H,1,1.5813
 642453,2,27.5\H,2,1.5813642453,1,152.5,3,0.,0\H,3,1.5813642453,1,180.,
 2,0.,0\H,4,1.5813642453,2,180.,1,0.,0\H,5,1.5813642453,3,180.,2,0.,0\H
 ,6,1.5813642453,4,180.,1,0.,0\H,7,1.5813642453,5,180.,2,0.,0\H,8,1.581
 3642453,6,180.,1,0.,0\\Version=ES64L-G09RevE.01\HF=-5.1576084\MP2=-5.2
 060263\PUHF=-5.1577412\PMP2-0=-5.2061591\S2=1.000117\S2-1=0.999928\S2A
 =0.002174\RMSD=1.753e-09\Dipole=0.,0.,0.\Quadrupole=1.7671754,1.55896,
 -3.3261354,0.,-2.5315505,0.\PG=C02H [SGH(H10)]\\@


 THE LENGTH OF A MEETING IS PROPORTIONAL TO THE
 SQUARE OF THE PARTICIPANTS.
 Job cpu time:       0 days  0 hours  0 minutes  1.2 seconds.
 File lengths (MBytes):  RWF=     94 Int=      0 D2E=      0 Chk=      2 Scr=      2
 Normal termination of Gaussian 09 at Tue Feb 28 16:31:27 2017.
