 Entering Gaussian System, Link 0=g09
 AtFile(1): H.gbs
            H     0
            S   10   1.00
               1000.000000000000            0.000068713567
                316.227766000000            0.000169141320
                100.000000000000            0.000823394812
                 31.622776600000            0.003425569236
                 10.000000000000            0.013951996000
                  3.162277660000            0.056909313560
                  1.000000000000            0.198286399900
                  0.316227766000            0.496922426700
                  0.100000000000            0.369846276400
                  0.031622776600            0.003752720039
            ****
 Initial command:
 /projects/guscus/apps/gau/g09-e1/g09/l1.exe "/users/lcj1/gaussian/h10/2rows_uhf/singlet/tripguessmix/followguesses/alpha22.5/Gau-18058.inp" -scrdir="/users/lcj1/gaussian/h10/2rows_uhf/singlet/tripguessmix/followguesses/alpha22.5/"
 Entering Link 1 = /projects/guscus/apps/gau/g09-e1/g09/l1.exe PID=     18059.
  
 Copyright (c) 1988,1990,1992,1993,1995,1998,2003,2009,2015,
            Gaussian, Inc.  All Rights Reserved.
  
 This is part of the Gaussian(R) 09 program.  It is based on
 the Gaussian(R) 03 system (copyright 2003, Gaussian, Inc.),
 the Gaussian(R) 98 system (copyright 1998, Gaussian, Inc.),
 the Gaussian(R) 94 system (copyright 1995, Gaussian, Inc.),
 the Gaussian 92(TM) system (copyright 1992, Gaussian, Inc.),
 the Gaussian 90(TM) system (copyright 1990, Gaussian, Inc.),
 the Gaussian 88(TM) system (copyright 1988, Gaussian, Inc.),
 the Gaussian 86(TM) system (copyright 1986, Carnegie Mellon
 University), and the Gaussian 82(TM) system (copyright 1983,
 Carnegie Mellon University). Gaussian is a federally registered
 trademark of Gaussian, Inc.
  
 This software contains proprietary and confidential information,
 including trade secrets, belonging to Gaussian, Inc.
  
 This software is provided under written license and may be
 used, copied, transmitted, or stored only in accord with that
 written license.
  
 The following legend is applicable only to US Government
 contracts under FAR:
  
                    RESTRICTED RIGHTS LEGEND
  
 Use, reproduction and disclosure by the US Government is
 subject to restrictions as set forth in subparagraphs (a)
 and (c) of the Commercial Computer Software - Restricted
 Rights clause in FAR 52.227-19.
  
 Gaussian, Inc.
 340 Quinnipiac St., Bldg. 40, Wallingford CT 06492
  
  
 ---------------------------------------------------------------
 Warning -- This program may not be used in any manner that
 competes with the business of Gaussian, Inc. or will provide
 assistance to any competitor of Gaussian, Inc.  The licensee
 of this program is prohibited from giving any competitor of
 Gaussian, Inc. access to this program.  By using this program,
 the user acknowledges that Gaussian, Inc. is engaged in the
 business of creating and licensing software in the field of
 computational chemistry and represents and warrants to the
 licensee that it is not a competitor of Gaussian, Inc. and that
 it will not use this program in any manner prohibited above.
 ---------------------------------------------------------------
  

 Cite this work as:
 Gaussian 09, Revision E.01,
 M. J. Frisch, G. W. Trucks, H. B. Schlegel, G. E. Scuseria, 
 M. A. Robb, J. R. Cheeseman, G. Scalmani, V. Barone, B. Mennucci, 
 G. A. Petersson, H. Nakatsuji, M. Caricato, X. Li, H. P. Hratchian, 
 A. F. Izmaylov, J. Bloino, G. Zheng, J. L. Sonnenberg, M. Hada, 
 M. Ehara, K. Toyota, R. Fukuda, J. Hasegawa, M. Ishida, T. Nakajima, 
 Y. Honda, O. Kitao, H. Nakai, T. Vreven, J. A. Montgomery, Jr., 
 J. E. Peralta, F. Ogliaro, M. Bearpark, J. J. Heyd, E. Brothers, 
 K. N. Kudin, V. N. Staroverov, T. Keith, R. Kobayashi, J. Normand, 
 K. Raghavachari, A. Rendell, J. C. Burant, S. S. Iyengar, J. Tomasi, 
 M. Cossi, N. Rega, J. M. Millam, M. Klene, J. E. Knox, J. B. Cross, 
 V. Bakken, C. Adamo, J. Jaramillo, R. Gomperts, R. E. Stratmann, 
 O. Yazyev, A. J. Austin, R. Cammi, C. Pomelli, J. W. Ochterski, 
 R. L. Martin, K. Morokuma, V. G. Zakrzewski, G. A. Voth, 
 P. Salvador, J. J. Dannenberg, S. Dapprich, A. D. Daniels, 
 O. Farkas, J. B. Foresman, J. V. Ortiz, J. Cioslowski, 
 and D. J. Fox, Gaussian, Inc., Wallingford CT, 2013.
 
 ******************************************
 Gaussian 09:  ES64L-G09RevE.01 30-Nov-2015
                28-Feb-2017 
 ******************************************
 %chk=h10.chk
 ----------------------------------------------------------------------
 #uhf/gen scf(tight,novaracc,noincfock,fulldiag, ) stable(crhf) guess=r
 ead geom=nocrowd test
 ----------------------------------------------------------------------
 1/38=1/1;
 2/12=1,17=6,18=5,40=1/2;
 3/5=7,16=1,25=1,30=1,116=2/1,2,3;
 4/5=1/1;
 5/5=100002,16=1,32=2,38=6/2;
 8/6=1,10=90,11=11/1,4;
 9/8=4,13=1/2;
 6/7=2,8=2,9=2,10=2,28=1/1;
 99/5=1,9=1/99;
 ----------------------------------------------------------------------
 hf stability analysis of h10 triangular lattice, y= 0.8258291078557595
 8 alpha= 49.750000000000000
 ----------------------------------------------------------------------
 Symbolic Z-matrix:
 Charge =  0 Multiplicity = 1
 H
 H                    1     1.08202 
 H                    1     1.08202  2     80.5 
 H                    2     1.08202  1     99.5     3     0.       0
 H                    3     1.08202  1     180.     2     0.       0
 H                    4     1.08202  2     180.     1     0.       0
 H                    5     1.08202  3     180.     2     0.       0
 H                    6     1.08202  4     180.     1     0.       0
 H                    7     1.08202  5     180.     2     0.       0
 H                    8     1.08202  6     180.     1     0.       0
 
                          Input orientation:                          
 ---------------------------------------------------------------------
 Center     Atomic      Atomic             Coordinates (Angstroms)
 Number     Number       Type             X           Y           Z
 ---------------------------------------------------------------------
      1          1           0        0.000000    0.000000    0.000000
      2          1           0        0.000000    0.000000    1.082015
      3          1           0        1.067176    0.000000    0.178584
      4          1           0        1.067176    0.000000    1.260599
      5          1           0        2.134352    0.000000    0.357168
      6          1           0        2.134352    0.000000    1.439183
      7          1           0        3.201528    0.000000    0.535752
      8          1           0        3.201528    0.000000    1.617767
      9          1           0        4.268704    0.000000    0.714336
     10          1           0        4.268704    0.000000    1.796351
 ---------------------------------------------------------------------
                    Distance matrix (angstroms):
                    1          2          3          4          5
     1  H    0.000000
     2  H    1.082015   0.000000
     3  H    1.082015   1.398232   0.000000
     4  H    1.651658   1.082015   1.082015   0.000000
     5  H    2.164030   2.254077   1.082015   1.398232   0.000000
     6  H    2.574239   2.164030   1.651658   1.082015   1.082015
     7  H    3.246045   3.247797   2.164030   2.254077   1.082015
     8  H    3.587053   3.246045   2.574239   2.164030   1.651658
     9  H    4.328061   4.284509   3.246045   3.247797   2.164030
    10  H    4.631275   4.328061   3.587053   3.246045   2.574239
                    6          7          8          9         10
     6  H    0.000000
     7  H    1.398232   0.000000
     8  H    1.082015   1.082015   0.000000
     9  H    2.254077   1.082015   1.398232   0.000000
    10  H    2.164030   1.651658   1.082015   1.082015   0.000000
 Stoichiometry    H10
 Framework group  C2H[SGH(H10)]
 Deg. of freedom     9
 Full point group                 C2H     NOp   4
 Largest Abelian subgroup         C2H     NOp   4
 Largest concise Abelian subgroup C2      NOp   2
                         Standard orientation:                         
 ---------------------------------------------------------------------
 Center     Atomic      Atomic             Coordinates (Angstroms)
 Number     Number       Type             X           Y           Z
 ---------------------------------------------------------------------
      1          1           0        2.134352    0.898176    0.000000
      2          1           0        2.134352   -0.183840    0.000000
      3          1           0        1.067176    0.719592    0.000000
      4          1           0        1.067176   -0.362424    0.000000
      5          1           0        0.000000    0.541008    0.000000
      6          1           0       -0.000000   -0.541008   -0.000000
      7          1           0       -1.067176    0.362424    0.000000
      8          1           0       -1.067176   -0.719592   -0.000000
      9          1           0       -2.134352    0.183840    0.000000
     10          1           0       -2.134352   -0.898176   -0.000000
 ---------------------------------------------------------------------
 Rotational constants (GHZ):    176.8069563     21.3332002     19.0363138
 General basis read from cards:  (5D, 7F)
 There are     5 symmetry adapted cartesian basis functions of AG  symmetry.
 There are     0 symmetry adapted cartesian basis functions of BG  symmetry.
 There are     0 symmetry adapted cartesian basis functions of AU  symmetry.
 There are     5 symmetry adapted cartesian basis functions of BU  symmetry.
 There are     5 symmetry adapted basis functions of AG  symmetry.
 There are     0 symmetry adapted basis functions of BG  symmetry.
 There are     0 symmetry adapted basis functions of AU  symmetry.
 There are     5 symmetry adapted basis functions of BU  symmetry.
    10 basis functions,   100 primitive gaussians,    10 cartesian basis functions
     5 alpha electrons        5 beta electrons
       nuclear repulsion energy        13.6967770097 Hartrees.
 NAtoms=   10 NActive=   10 NUniq=    5 SFac= 4.00D+00 NAtFMM=   60 NAOKFM=F Big=F
 Integral buffers will be    131072 words long.
 Regular integral format.
 Two-electron integral symmetry is turned on.
 One-electron integrals computed using PRISM.
 NBasis=    10 RedAO= T EigKep=  1.28D-01  NBF=     5     0     0     5
 NBsUse=    10 1.00D-06 EigRej= -1.00D+00 NBFU=     5     0     0     5
 Initial guess from the checkpoint file:  "h10.chk"
 B after Tr=     0.000000    0.000000   -0.000000
         Rot=    0.999992   -0.000000    0.000000   -0.003879 Ang=  -0.44 deg.
 Initial guess orbital symmetries:
 Alpha Orbitals:
       Occupied  (BG) (BG) (BG) (BG) (BG)
       Virtual   (BG) (BG) (BG) (BG) (BG)
 Beta  Orbitals:
       Occupied  (BG) (BG) (BG) (BG) (BG)
       Virtual   (BG) (BG) (BG) (BG) (BG)
 Initial guess <Sx>= 0.0000 <Sy>= 0.0000 <Sz>= 0.0000 <S**2>= 0.4026 S= 0.3078
 Keep R1 and R2 ints in memory in symmetry-blocked form, NReq=879411.
 Requested convergence on RMS density matrix=1.00D-08 within 128 cycles.
 Requested convergence on MAX density matrix=1.00D-06.
 Requested convergence on             energy=1.00D-06.
 No special actions if energy rises.
 An orbital has undefined symmetry, so N**3 symmetry is turned off.
 Density matrix breaks symmetry, PCut= 1.00D-04
 Density matrix has no symmetry -- integrals replicated.
 Density matrix breaks symmetry, PCut= 1.00D-07
 Density matrix has no symmetry -- integrals replicated.
 Density matrix breaks symmetry, PCut= 1.00D-07
 Density matrix has no symmetry -- integrals replicated.
 Density matrix breaks symmetry, PCut= 1.00D-07
 Density matrix has no symmetry -- integrals replicated.
 Density matrix breaks symmetry, PCut= 1.00D-07
 Density matrix has no symmetry -- integrals replicated.
 Density matrix breaks symmetry, PCut= 1.00D-07
 Density matrix has no symmetry -- integrals replicated.
 Density matrix breaks symmetry, PCut= 1.00D-07
 Density matrix has no symmetry -- integrals replicated.
 Density matrix breaks symmetry, PCut= 1.00D-07
 Density matrix has no symmetry -- integrals replicated.
 Density matrix breaks symmetry, PCut= 1.00D-07
 Density matrix has no symmetry -- integrals replicated.
 Density matrix breaks symmetry, PCut= 1.00D-07
 Density matrix has no symmetry -- integrals replicated.
 Density matrix breaks symmetry, PCut= 1.00D-07
 Density matrix has no symmetry -- integrals replicated.
 Density matrix breaks symmetry, PCut= 1.00D-07
 Density matrix has no symmetry -- integrals replicated.
 Density matrix breaks symmetry, PCut= 1.00D-07
 Density matrix has no symmetry -- integrals replicated.
 Density matrix breaks symmetry, PCut= 1.00D-07
 Density matrix has no symmetry -- integrals replicated.
 Density matrix breaks symmetry, PCut= 1.00D-07
 Density matrix has no symmetry -- integrals replicated.
 Density matrix breaks symmetry, PCut= 1.00D-07
 Density matrix has no symmetry -- integrals replicated.
 SCF Done:  E(UHF) =  -4.85009974028     A.U. after   15 cycles
            NFock= 15  Conv=0.85D-08     -V/T= 1.9191
 <Sx>= 0.0000 <Sy>= 0.0000 <Sz>= 0.0000 <S**2>= 0.4041 S= 0.3088
 <L.S>= 0.000000000000E+00
 Annihilation of the first spin contaminant:
 S**2 before annihilation     0.4041,   after     0.0398
 Range of M.O.s used for correlation:     1    10
 NBasis=    10 NAE=     5 NBE=     5 NFC=     0 NFV=     0
 NROrb=     10 NOA=     5 NOB=     5 NVA=     5 NVB=     5
 Semi-Direct transformation.
 ModeAB=           2 MOrb=             5 LenV=     134107151
 LASXX=         1030 LTotXX=        1030 LenRXX=        1030
 LTotAB=        1825 MaxLAS=        2750 LenRXY=        2750
 NonZer=        2750 LenScr=      655360 LnRSAI=           0
 LnScr1=           0 LExtra=           0 Total=       659140
 MaxDsk=          -1 SrtSym=           F ITran=            3
 JobTyp=1 Pass  1:  I=   1 to   5.
 (rs|ai) integrals will be sorted in core.
 ModeAB=           2 MOrb=             5 LenV=     134107151
 LASXX=         1030 LTotXX=        1030 LenRXX=        2750
 LTotAB=         225 MaxLAS=        2750 LenRXY=         225
 NonZer=        2750 LenScr=      655360 LnRSAI=           0
 LnScr1=           0 LExtra=           0 Total=       658335
 MaxDsk=          -1 SrtSym=           F ITran=            3
 JobTyp=2 Pass  1:  I=   1 to   5.
 (rs|ai) integrals will be sorted in core.
 SymMOI:  orbitals are not symmetric.
 Spin components of T(2) and E(2):
     alpha-alpha T2 =       0.4791108388D-02 E2=     -0.6297651379D-02
     alpha-beta  T2 =       0.5817868432D-01 E2=     -0.8288903251D-01
     beta-beta   T2 =       0.4791108388D-02 E2=     -0.6297651379D-02
 ANorm=    0.1033325167D+01
 E2 =    -0.9548433526D-01 EUMP2 =    -0.49455840755401D+01
 (S**2,0)=  0.40412D+00           (S**2,1)=  0.34880D+00
 E(PUHF)=      -0.48666454646D+01        E(PMP2)=      -0.49610509728D+01
 Second order stability test of a single determinant UHF wave function:
 Stabil:  MDV=134217728
 ***********************************************************************
 Matrix         Lowest Root    Major Pairs
 ***********************************************************************
 Internal UHF    -0.1225627    5A=6A 5B=6B
 RUHF --> CUHF (A)-0.0082161    5A=6A
 RUHF --> CUHF (B)-0.0082161    5B=6B
 RUHF --> GHF    -0.1349578    5B=6A 5A=6B
 Not stable.
 ***********************************************************************

 **********************************************************************

            Population analysis using the SCF density.

 **********************************************************************

 Orbital symmetries:
 Alpha Orbitals:
       Occupied  (BG) (BG) (BG) (BG) (BG)
       Virtual   (BG) (BG) (BG) (BG) (BG)
 Beta  Orbitals:
       Occupied  (BG) (BG) (BG) (BG) (BG)
       Virtual   (BG) (BG) (BG) (BG) (BG)
 Unable to determine electronic state:  partially filled degenerate orbitals.
 Alpha  occ. eigenvalues --   -0.87544  -0.72880  -0.54443  -0.42776  -0.28573
 Alpha virt. eigenvalues --   -0.01229   0.21095   0.32191   0.52145   0.87368
  Beta  occ. eigenvalues --   -0.87544  -0.72880  -0.54443  -0.42776  -0.28573
  Beta virt. eigenvalues --   -0.01229   0.21095   0.32191   0.52145   0.87368
          Condensed to atoms (all electrons):
               1          2          3          4          5          6
     1  H    0.974792   0.429211  -0.106725  -0.201716  -0.044164  -0.024618
     2  H    0.429211   0.791721  -0.147111  -0.089231  -0.076047   0.001105
     3  H   -0.106725  -0.147111   0.985458   0.177880   0.308162  -0.130709
     4  H   -0.201716  -0.089231   0.177880   1.197871  -0.041388   0.197770
     5  H   -0.044164  -0.076047   0.308162  -0.041388   0.816605  -0.055110
     6  H   -0.024618   0.001105  -0.130709   0.197770  -0.055110   0.816605
     7  H    0.020768   0.008552  -0.056782  -0.135023   0.197770  -0.041388
     8  H    0.008820   0.015439  -0.069562  -0.056782  -0.130709   0.308162
     9  H   -0.001291  -0.001160   0.015439   0.008552   0.001105  -0.076047
    10  H   -0.001443  -0.001291   0.008820   0.020768  -0.024618  -0.044164
               7          8          9         10
     1  H    0.020768   0.008820  -0.001291  -0.001443
     2  H    0.008552   0.015439  -0.001160  -0.001291
     3  H   -0.056782  -0.069562   0.015439   0.008820
     4  H   -0.135023  -0.056782   0.008552   0.020768
     5  H    0.197770  -0.130709   0.001105  -0.024618
     6  H   -0.041388   0.308162  -0.076047  -0.044164
     7  H    1.197871   0.177880  -0.089231  -0.201716
     8  H    0.177880   0.985458  -0.147111  -0.106725
     9  H   -0.089231  -0.147111   0.791721   0.429211
    10  H   -0.201716  -0.106725   0.429211   0.974792
          Atomic-Atomic Spin Densities.
               1          2          3          4          5          6
     1  H   -0.068547   0.009292  -0.017781   0.059094  -0.023120   0.000549
     2  H    0.009292  -0.119093   0.089111  -0.058546   0.014239  -0.023506
     3  H   -0.017781   0.089111  -0.418980   0.115218  -0.092142   0.079040
     4  H    0.059094  -0.058546   0.115218  -0.432917   0.115275  -0.046514
     5  H   -0.023120   0.014239  -0.092142   0.115275  -0.023027   0.000000
     6  H    0.000549  -0.023506   0.079040  -0.046514   0.000000   0.023027
     7  H   -0.000588   0.000723   0.001376   0.000000   0.046514  -0.115275
     8  H    0.000832  -0.000141   0.000000  -0.001376  -0.079040   0.092142
     9  H   -0.000031   0.000000   0.000141  -0.000723   0.023506  -0.014239
    10  H   -0.000000   0.000031  -0.000832   0.000588  -0.000549   0.023120
               7          8          9         10
     1  H   -0.000588   0.000832  -0.000031  -0.000000
     2  H    0.000723  -0.000141   0.000000   0.000031
     3  H    0.001376   0.000000   0.000141  -0.000832
     4  H    0.000000  -0.001376  -0.000723   0.000588
     5  H    0.046514  -0.079040   0.023506  -0.000549
     6  H   -0.115275   0.092142  -0.014239   0.023120
     7  H    0.432917  -0.115218   0.058546  -0.059094
     8  H   -0.115218   0.418980  -0.089111   0.017781
     9  H    0.058546  -0.089111   0.119093  -0.009292
    10  H   -0.059094   0.017781  -0.009292   0.068547
 Mulliken charges and spin densities:
               1          2
     1  H   -0.053634  -0.040301
     2  H    0.068812  -0.087891
     3  H    0.015128  -0.244848
     4  H   -0.078700  -0.249900
     5  H    0.048394  -0.018344
     6  H    0.048394   0.018344
     7  H   -0.078700   0.249900
     8  H    0.015128   0.244848
     9  H    0.068812   0.087891
    10  H   -0.053634   0.040301
 Sum of Mulliken charges =   0.00000  -0.00000
 Mulliken charges and spin densities with hydrogens summed into heavy atoms:
               1          2
 Electronic spatial extent (au):  <R**2>=            126.4624
 Charge=              0.0000 electrons
 Dipole moment (field-independent basis, Debye):
    X=              0.0000    Y=             -0.0000    Z=             -0.0000  Tot=              0.0000
 Quadrupole moment (field-independent basis, Debye-Ang):
   XX=            -17.0638   YY=            -13.7266   ZZ=            -12.7796
   XY=             -1.4436   XZ=             -0.0000   YZ=             -0.0000
 Traceless Quadrupole moment (field-independent basis, Debye-Ang):
   XX=             -2.5405   YY=              0.7968   ZZ=              1.7437
   XY=             -1.4436   XZ=             -0.0000   YZ=             -0.0000
 Octapole moment (field-independent basis, Debye-Ang**2):
  XXX=              0.0000  YYY=             -0.0000  ZZZ=              0.0000  XYY=             -0.0000
  XXY=             -0.0000  XXZ=              0.0000  XZZ=              0.0000  YZZ=             -0.0000
  YYZ=              0.0000  XYZ=             -0.0000
 Hexadecapole moment (field-independent basis, Debye-Ang**3):
 XXXX=           -252.8282 YYYY=            -45.7612 ZZZZ=            -15.2961 XXXY=            -30.7373
 XXXZ=             -0.0000 YYYX=            -15.5934 YYYZ=             -0.0000 ZZZX=             -0.0000
 ZZZY=             -0.0000 XXYY=            -41.8765 XXZZ=            -36.7925 YYZZ=            -10.1919
 XXYZ=             -0.0000 YYXZ=             -0.0000 ZZXY=             -5.4581
 N-N= 1.369677700974D+01 E-N=-3.664664452984D+01  KE= 5.277201075303D+00
 Symmetry AG   KE= 1.716027028438D+00
 Symmetry BG   KE= 0.000000000000D+00
 Symmetry AU   KE= 0.000000000000D+00
 Symmetry BU   KE= 3.561174046866D+00
                          Isotropic Fermi Contact Couplings
        Atom                 a.u.       MegaHertz       Gauss      10(-4) cm-1
     1  H(1)              -0.01941     -43.39093     -15.48296     -14.47366
     2  H(1)              -0.03565     -79.68561     -28.43381     -26.58026
     3  H(1)              -0.11402    -254.81965     -90.92599     -84.99869
     4  H(1)              -0.11691    -261.28763     -93.23392     -87.15617
     5  H(1)              -0.00735     -16.42049      -5.85924      -5.47729
     6  H(1)               0.00735      16.42049       5.85924       5.47729
     7  H(1)               0.11691     261.28763      93.23392      87.15617
     8  H(1)               0.11402     254.81965      90.92599      84.99869
     9  H(1)               0.03565      79.68561      28.43381      26.58026
    10  H(1)               0.01941      43.39093      15.48296      14.47366
 --------------------------------------------------------
       Center         ----  Spin Dipole Couplings  ----
                      3XX-RR        3YY-RR        3ZZ-RR
 --------------------------------------------------------
     1   Atom       -0.034239      0.006233      0.028006
     2   Atom       -0.036428      0.007833      0.028594
     3   Atom        0.008359     -0.020171      0.011812
     4   Atom        0.010549     -0.020383      0.009834
     5   Atom        0.000857     -0.003774      0.002917
     6   Atom       -0.000857      0.003774     -0.002917
     7   Atom       -0.010549      0.020383     -0.009834
     8   Atom       -0.008359      0.020171     -0.011812
     9   Atom        0.036428     -0.007833     -0.028594
    10   Atom        0.034239     -0.006233     -0.028006
 --------------------------------------------------------
                        XY            XZ            YZ
 --------------------------------------------------------
     1   Atom       -0.002326     -0.000000      0.000000
     2   Atom       -0.014713      0.000000      0.000000
     3   Atom        0.008683     -0.000000      0.000000
     4   Atom       -0.001798      0.000000      0.000000
     5   Atom       -0.013247     -0.000000      0.000000
     6   Atom        0.013247     -0.000000      0.000000
     7   Atom        0.001798      0.000000      0.000000
     8   Atom       -0.008683     -0.000000     -0.000000
     9   Atom        0.014713      0.000000      0.000000
    10   Atom        0.002326     -0.000000      0.000000
 --------------------------------------------------------


 ---------------------------------------------------------------------------------
              Anisotropic Spin Dipole Couplings in Principal Axis System
 ---------------------------------------------------------------------------------

       Atom             a.u.   MegaHertz   Gauss  10(-4) cm-1        Axes

              Baa    -0.0344   -18.339    -6.544    -6.117  0.9984  0.0572  0.0000
     1 H(1)   Bbb     0.0064     3.397     1.212     1.133 -0.0572  0.9984 -0.0000
              Bcc     0.0280    14.943     5.332     4.984  0.0000  0.0000  1.0000
 
              Baa    -0.0409   -21.808    -7.781    -7.274  0.9573  0.2892  0.0000
     2 H(1)   Bbb     0.0123     6.551     2.338     2.185 -0.2892  0.9573 -0.0000
              Bcc     0.0286    15.257     5.444     5.089  0.0000  0.0000  1.0000
 
              Baa    -0.0226   -12.061    -4.304    -4.023 -0.2700  0.9629  0.0000
     3 H(1)   Bbb     0.0108     5.759     2.055     1.921  0.9629  0.2700  0.0000
              Bcc     0.0118     6.302     2.249     2.102  0.0000  0.0000  1.0000
 
              Baa    -0.0205   -10.931    -3.900    -3.646  0.0578  0.9983 -0.0000
     4 H(1)   Bbb     0.0098     5.247     1.872     1.750  0.0000  0.0000  1.0000
              Bcc     0.0107     5.684     2.028     1.896  0.9983 -0.0578  0.0000
 
              Baa    -0.0149    -7.953    -2.838    -2.653  0.6434  0.7656  0.0000
     5 H(1)   Bbb     0.0029     1.556     0.555     0.519  0.0000  0.0000  1.0000
              Bcc     0.0120     6.397     2.283     2.134  0.7656 -0.6434  0.0000
 
              Baa    -0.0120    -6.397    -2.283    -2.134  0.7656 -0.6434  0.0000
     6 H(1)   Bbb    -0.0029    -1.556    -0.555    -0.519  0.0000  0.0000  1.0000
              Bcc     0.0149     7.953     2.838     2.653  0.6434  0.7656  0.0000
 
              Baa    -0.0107    -5.684    -2.028    -1.896  0.9983 -0.0578  0.0000
     7 H(1)   Bbb    -0.0098    -5.247    -1.872    -1.750  0.0000  0.0000  1.0000
              Bcc     0.0205    10.931     3.900     3.646  0.0578  0.9983  0.0000
 
              Baa    -0.0118    -6.302    -2.249    -2.102  0.0000  0.0000  1.0000
     8 H(1)   Bbb    -0.0108    -5.759    -2.055    -1.921  0.9629  0.2700  0.0000
              Bcc     0.0226    12.061     4.304     4.023 -0.2700  0.9629  0.0000
 
              Baa    -0.0286   -15.257    -5.444    -5.089  0.0000  0.0000  1.0000
     9 H(1)   Bbb    -0.0123    -6.551    -2.338    -2.185 -0.2892  0.9573 -0.0000
              Bcc     0.0409    21.808     7.781     7.274  0.9573  0.2892  0.0000
 
              Baa    -0.0280   -14.943    -5.332    -4.984  0.0000  0.0000  1.0000
    10 H(1)   Bbb    -0.0064    -3.397    -1.212    -1.133 -0.0572  0.9984  0.0000
              Bcc     0.0344    18.339     6.544     6.117  0.9984  0.0572  0.0000
 

 ---------------------------------------------------------------------------------


 Test job not archived.
 1\1\GINC-SULU\Stability\UHF\Gen\H10\LCJ1\28-Feb-2017\0\\#uhf/gen scf(t
 ight,novaracc,noincfock,fulldiag, ) stable(crhf) guess=read geom=nocro
 wd test\\hf stability analysis of h10 triangular lattice, y= 0.8258291
 0785575958 alpha= 49.750000000000000\\0,1\H\H,1,1.0820151443\H,1,1.082
 0151443,2,80.5\H,2,1.0820151443,1,99.5,3,0.,0\H,3,1.0820151443,1,180.,
 2,0.,0\H,4,1.0820151443,2,180.,1,0.,0\H,5,1.0820151443,3,180.,2,0.,0\H
 ,6,1.0820151443,4,180.,1,0.,0\H,7,1.0820151443,5,180.,2,0.,0\H,8,1.082
 0151443,6,180.,1,0.,0\\Version=ES64L-G09RevE.01\HF=-4.8500997\MP2=-4.9
 455841\PUHF=-4.8666455\PMP2-0=-4.961051\S2=0.404118\S2-1=0.348802\S2A=
 0.039756\RMSD=8.503e-09\Dipole=0.,0.,0.\Quadrupole=-1.8887713,1.296397
 8,0.5923735,0.,-1.0732487,0.\PG=C02H [SGH(H10)]\\@


 Until you make peace with who you are,
 you'll never be content with what you have.
                           -- Doris Mortman
 Job cpu time:       0 days  0 hours  0 minutes  1.3 seconds.
 File lengths (MBytes):  RWF=     94 Int=      0 D2E=      0 Chk=      2 Scr=      2
 Normal termination of Gaussian 09 at Tue Feb 28 16:41:14 2017.
