 Entering Gaussian System, Link 0=g09
 AtFile(1): H.gbs
            H     0
            S   10   1.00
               1000.000000000000            0.000068713567
                316.227766000000            0.000169141320
                100.000000000000            0.000823394812
                 31.622776600000            0.003425569236
                 10.000000000000            0.013951996000
                  3.162277660000            0.056909313560
                  1.000000000000            0.198286399900
                  0.316227766000            0.496922426700
                  0.100000000000            0.369846276400
                  0.031622776600            0.003752720039
            ****
 Initial command:
 /projects/guscus/apps/gau/g09-e1/g09/l1.exe "/users/lcj1/gaussian/h10/2rows_uhf/singlet/tripguessmix/followguesses/alpha22.5/Gau-21645.inp" -scrdir="/users/lcj1/gaussian/h10/2rows_uhf/singlet/tripguessmix/followguesses/alpha22.5/"
 Entering Link 1 = /projects/guscus/apps/gau/g09-e1/g09/l1.exe PID=     21646.
  
 Copyright (c) 1988,1990,1992,1993,1995,1998,2003,2009,2015,
            Gaussian, Inc.  All Rights Reserved.
  
 This is part of the Gaussian(R) 09 program.  It is based on
 the Gaussian(R) 03 system (copyright 2003, Gaussian, Inc.),
 the Gaussian(R) 98 system (copyright 1998, Gaussian, Inc.),
 the Gaussian(R) 94 system (copyright 1995, Gaussian, Inc.),
 the Gaussian 92(TM) system (copyright 1992, Gaussian, Inc.),
 the Gaussian 90(TM) system (copyright 1990, Gaussian, Inc.),
 the Gaussian 88(TM) system (copyright 1988, Gaussian, Inc.),
 the Gaussian 86(TM) system (copyright 1986, Carnegie Mellon
 University), and the Gaussian 82(TM) system (copyright 1983,
 Carnegie Mellon University). Gaussian is a federally registered
 trademark of Gaussian, Inc.
  
 This software contains proprietary and confidential information,
 including trade secrets, belonging to Gaussian, Inc.
  
 This software is provided under written license and may be
 used, copied, transmitted, or stored only in accord with that
 written license.
  
 The following legend is applicable only to US Government
 contracts under FAR:
  
                    RESTRICTED RIGHTS LEGEND
  
 Use, reproduction and disclosure by the US Government is
 subject to restrictions as set forth in subparagraphs (a)
 and (c) of the Commercial Computer Software - Restricted
 Rights clause in FAR 52.227-19.
  
 Gaussian, Inc.
 340 Quinnipiac St., Bldg. 40, Wallingford CT 06492
  
  
 ---------------------------------------------------------------
 Warning -- This program may not be used in any manner that
 competes with the business of Gaussian, Inc. or will provide
 assistance to any competitor of Gaussian, Inc.  The licensee
 of this program is prohibited from giving any competitor of
 Gaussian, Inc. access to this program.  By using this program,
 the user acknowledges that Gaussian, Inc. is engaged in the
 business of creating and licensing software in the field of
 computational chemistry and represents and warrants to the
 licensee that it is not a competitor of Gaussian, Inc. and that
 it will not use this program in any manner prohibited above.
 ---------------------------------------------------------------
  

 Cite this work as:
 Gaussian 09, Revision E.01,
 M. J. Frisch, G. W. Trucks, H. B. Schlegel, G. E. Scuseria, 
 M. A. Robb, J. R. Cheeseman, G. Scalmani, V. Barone, B. Mennucci, 
 G. A. Petersson, H. Nakatsuji, M. Caricato, X. Li, H. P. Hratchian, 
 A. F. Izmaylov, J. Bloino, G. Zheng, J. L. Sonnenberg, M. Hada, 
 M. Ehara, K. Toyota, R. Fukuda, J. Hasegawa, M. Ishida, T. Nakajima, 
 Y. Honda, O. Kitao, H. Nakai, T. Vreven, J. A. Montgomery, Jr., 
 J. E. Peralta, F. Ogliaro, M. Bearpark, J. J. Heyd, E. Brothers, 
 K. N. Kudin, V. N. Staroverov, T. Keith, R. Kobayashi, J. Normand, 
 K. Raghavachari, A. Rendell, J. C. Burant, S. S. Iyengar, J. Tomasi, 
 M. Cossi, N. Rega, J. M. Millam, M. Klene, J. E. Knox, J. B. Cross, 
 V. Bakken, C. Adamo, J. Jaramillo, R. Gomperts, R. E. Stratmann, 
 O. Yazyev, A. J. Austin, R. Cammi, C. Pomelli, J. W. Ochterski, 
 R. L. Martin, K. Morokuma, V. G. Zakrzewski, G. A. Voth, 
 P. Salvador, J. J. Dannenberg, S. Dapprich, A. D. Daniels, 
 O. Farkas, J. B. Foresman, J. V. Ortiz, J. Cioslowski, 
 and D. J. Fox, Gaussian, Inc., Wallingford CT, 2013.
 
 ******************************************
 Gaussian 09:  ES64L-G09RevE.01 30-Nov-2015
                28-Feb-2017 
 ******************************************
 %chk=h10.chk
 ----------------------------------------------------------------------
 #uhf/gen scf(tight,novaracc,noincfock,fulldiag, ) stable(crhf) guess=r
 ead geom=nocrowd test
 ----------------------------------------------------------------------
 1/38=1/1;
 2/12=1,17=6,18=5,40=1/2;
 3/5=7,16=1,25=1,30=1,116=2/1,2,3;
 4/5=1/1;
 5/5=100002,16=1,32=2,38=6/2;
 8/6=1,10=90,11=11/1,4;
 9/8=4,13=1/2;
 6/7=2,8=2,9=2,10=2,28=1/1;
 99/5=1,9=1/99;
 ----------------------------------------------------------------------
 hf stability analysis of h10 triangular lattice, y= 1.1954046164231349
  alpha= 68.000000000000000
 ----------------------------------------------------------------------
 Symbolic Z-matrix:
 Charge =  0 Multiplicity = 1
 H
 H                    1     1.28929 
 H                    1     1.28929  2     44. 
 H                    2     1.28929  1     136.     3     0.       0
 H                    3     1.28929  1     180.     2     0.       0
 H                    4     1.28929  2     180.     1     0.       0
 H                    5     1.28929  3     180.     2     0.       0
 H                    6     1.28929  4     180.     1     0.       0
 H                    7     1.28929  5     180.     2     0.       0
 H                    8     1.28929  6     180.     1     0.       0
 
                          Input orientation:                          
 ---------------------------------------------------------------------
 Center     Atomic      Atomic             Coordinates (Angstroms)
 Number     Number       Type             X           Y           Z
 ---------------------------------------------------------------------
      1          1           0        0.000000    0.000000    0.000000
      2          1           0        0.000000    0.000000    1.289285
      3          1           0        0.895613    0.000000    0.927434
      4          1           0        0.895613    0.000000    2.216720
      5          1           0        1.791226    0.000000    1.854869
      6          1           0        1.791226    0.000000    3.144154
      7          1           0        2.686839    0.000000    2.782303
      8          1           0        2.686839    0.000000    4.071588
      9          1           0        3.582452    0.000000    3.709737
     10          1           0        3.582452    0.000000    4.999023
 ---------------------------------------------------------------------
                    Distance matrix (angstroms):
                    1          2          3          4          5
     1  H    0.000000
     2  H    1.289285   0.000000
     3  H    1.289285   0.965950   0.000000
     4  H    2.390809   1.289285   1.289285   0.000000
     5  H    2.578571   1.878397   1.289285   0.965950   0.000000
     6  H    3.618590   2.578571   2.390809   1.289285   1.289285
     7  H    3.867856   3.073793   2.578571   1.878397   1.289285
     8  H    4.878210   3.867856   3.618590   2.578571   2.390809
     9  H    5.157142   4.323488   3.867856   3.073793   2.578571
    10  H    6.150137   5.157142   4.878210   3.867856   3.618590
                    6          7          8          9         10
     6  H    0.000000
     7  H    0.965950   0.000000
     8  H    1.289285   1.289285   0.000000
     9  H    1.878397   1.289285   0.965950   0.000000
    10  H    2.578571   2.390809   1.289285   1.289285   0.000000
 Stoichiometry    H10
 Framework group  C2H[SGH(H10)]
 Deg. of freedom     9
 Full point group                 C2H     NOp   4
 Largest Abelian subgroup         C2H     NOp   4
 Largest concise Abelian subgroup C2      NOp   2
                         Standard orientation:                         
 ---------------------------------------------------------------------
 Center     Atomic      Atomic             Coordinates (Angstroms)
 Number     Number       Type             X           Y           Z
 ---------------------------------------------------------------------
      1          1           0        1.791226    2.499511    0.000000
      2          1           0        1.791226    1.210226    0.000000
      3          1           0        0.895613    1.572077    0.000000
      4          1           0        0.895613    0.282792    0.000000
      5          1           0        0.000000    0.644643    0.000000
      6          1           0       -0.000000   -0.644643   -0.000000
      7          1           0       -0.895613   -0.282792   -0.000000
      8          1           0       -0.895613   -1.572077   -0.000000
      9          1           0       -1.791226   -1.210226   -0.000000
     10          1           0       -1.791226   -2.499511   -0.000000
 ---------------------------------------------------------------------
 Rotational constants (GHZ):    267.2062237     14.1159053     13.4076113
 General basis read from cards:  (5D, 7F)
 There are     5 symmetry adapted cartesian basis functions of AG  symmetry.
 There are     0 symmetry adapted cartesian basis functions of BG  symmetry.
 There are     0 symmetry adapted cartesian basis functions of AU  symmetry.
 There are     5 symmetry adapted cartesian basis functions of BU  symmetry.
 There are     5 symmetry adapted basis functions of AG  symmetry.
 There are     0 symmetry adapted basis functions of BG  symmetry.
 There are     0 symmetry adapted basis functions of AU  symmetry.
 There are     5 symmetry adapted basis functions of BU  symmetry.
    10 basis functions,   100 primitive gaussians,    10 cartesian basis functions
     5 alpha electrons        5 beta electrons
       nuclear repulsion energy        12.4498083424 Hartrees.
 NAtoms=   10 NActive=   10 NUniq=    5 SFac= 4.00D+00 NAtFMM=   60 NAOKFM=F Big=F
 Integral buffers will be    131072 words long.
 Regular integral format.
 Two-electron integral symmetry is turned on.
 One-electron integrals computed using PRISM.
 NBasis=    10 RedAO= T EigKep=  1.89D-01  NBF=     5     0     0     5
 NBsUse=    10 1.00D-06 EigRej= -1.00D+00 NBFU=     5     0     0     5
 Initial guess from the checkpoint file:  "h10.chk"
 B after Tr=     0.000000   -0.000000    0.000000
         Rot=    0.999992   -0.000000    0.000000   -0.003879 Ang=  -0.44 deg.
 Initial guess orbital symmetries:
 Alpha Orbitals:
       Occupied  (BG) (BG) (BG) (BG) (BG)
       Virtual   (BG) (BG) (BG) (BG) (BG)
 Beta  Orbitals:
       Occupied  (BG) (BG) (BG) (BG) (BG)
       Virtual   (BG) (BG) (BG) (BG) (BG)
 Initial guess <Sx>= 0.0000 <Sy>= 0.0000 <Sz>= 0.0000 <S**2>= 0.6426 S= 0.4448
 Keep R1 and R2 ints in memory in symmetry-blocked form, NReq=877591.
 Requested convergence on RMS density matrix=1.00D-08 within 128 cycles.
 Requested convergence on MAX density matrix=1.00D-06.
 Requested convergence on             energy=1.00D-06.
 No special actions if energy rises.
 An orbital has undefined symmetry, so N**3 symmetry is turned off.
 Density matrix breaks symmetry, PCut= 1.00D-04
 Density matrix has no symmetry -- integrals replicated.
 Density matrix breaks symmetry, PCut= 1.00D-07
 Density matrix has no symmetry -- integrals replicated.
 Density matrix breaks symmetry, PCut= 1.00D-07
 Density matrix has no symmetry -- integrals replicated.
 Density matrix breaks symmetry, PCut= 1.00D-07
 Density matrix has no symmetry -- integrals replicated.
 Density matrix breaks symmetry, PCut= 1.00D-07
 Density matrix has no symmetry -- integrals replicated.
 Density matrix breaks symmetry, PCut= 1.00D-07
 Density matrix has no symmetry -- integrals replicated.
 Density matrix breaks symmetry, PCut= 1.00D-07
 Density matrix has no symmetry -- integrals replicated.
 Density matrix breaks symmetry, PCut= 1.00D-07
 Density matrix has no symmetry -- integrals replicated.
 Rare condition: small coef for last iteration:  0.000D+00
 Density matrix breaks symmetry, PCut= 1.00D-07
 Density matrix has no symmetry -- integrals replicated.
 Density matrix breaks symmetry, PCut= 1.00D-07
 Density matrix has no symmetry -- integrals replicated.
 Density matrix breaks symmetry, PCut= 1.00D-07
 Density matrix has no symmetry -- integrals replicated.
 Density matrix breaks symmetry, PCut= 1.00D-07
 Density matrix has no symmetry -- integrals replicated.
 Density matrix breaks symmetry, PCut= 1.00D-07
 Density matrix has no symmetry -- integrals replicated.
 Density matrix breaks symmetry, PCut= 1.00D-07
 Density matrix has no symmetry -- integrals replicated.
 Density matrix breaks symmetry, PCut= 1.00D-07
 Density matrix has no symmetry -- integrals replicated.
 Density matrix breaks symmetry, PCut= 1.00D-07
 Density matrix has no symmetry -- integrals replicated.
 Density matrix breaks symmetry, PCut= 1.00D-07
 Density matrix has no symmetry -- integrals replicated.
 Density matrix breaks symmetry, PCut= 1.00D-07
 Density matrix has no symmetry -- integrals replicated.
 Density matrix breaks symmetry, PCut= 1.00D-07
 Density matrix has no symmetry -- integrals replicated.
 Density matrix breaks symmetry, PCut= 1.00D-07
 Density matrix has no symmetry -- integrals replicated.
 Density matrix breaks symmetry, PCut= 1.00D-07
 Density matrix has no symmetry -- integrals replicated.
 SCF Done:  E(UHF) =  -4.80169355438     A.U. after   20 cycles
            NFock= 20  Conv=0.27D-08     -V/T= 1.9440
 <Sx>= 0.0000 <Sy>= 0.0000 <Sz>= 0.0000 <S**2>= 0.6675 S= 0.4578
 <L.S>= 0.000000000000E+00
 Annihilation of the first spin contaminant:
 S**2 before annihilation     0.6675,   after     0.2823
 Range of M.O.s used for correlation:     1    10
 NBasis=    10 NAE=     5 NBE=     5 NFC=     0 NFV=     0
 NROrb=     10 NOA=     5 NOB=     5 NVA=     5 NVB=     5
 Semi-Direct transformation.
 ModeAB=           2 MOrb=             5 LenV=     134108957
 LASXX=         1030 LTotXX=        1030 LenRXX=        1030
 LTotAB=        1825 MaxLAS=        2750 LenRXY=        2750
 NonZer=        2750 LenScr=      655360 LnRSAI=           0
 LnScr1=           0 LExtra=           0 Total=       659140
 MaxDsk=          -1 SrtSym=           F ITran=            3
 JobTyp=1 Pass  1:  I=   1 to   5.
 (rs|ai) integrals will be sorted in core.
 ModeAB=           2 MOrb=             5 LenV=     134108957
 LASXX=         1030 LTotXX=        1030 LenRXX=        2750
 LTotAB=         225 MaxLAS=        2750 LenRXY=         225
 NonZer=        2750 LenScr=      655360 LnRSAI=           0
 LnScr1=           0 LExtra=           0 Total=       658335
 MaxDsk=          -1 SrtSym=           F ITran=            3
 JobTyp=2 Pass  1:  I=   1 to   5.
 (rs|ai) integrals will be sorted in core.
 SymMOI:  orbitals are not symmetric.
 Spin components of T(2) and E(2):
     alpha-alpha T2 =       0.5407501899D-02 E2=     -0.6148337984D-02
     alpha-beta  T2 =       0.7112205132D-01 E2=     -0.8259412002D-01
     beta-beta   T2 =       0.5407501902D-02 E2=     -0.6148337985D-02
 ANorm=    0.1040162033D+01
 E2 =    -0.9489079599D-01 EUMP2 =    -0.48965843503675D+01
 (S**2,0)=  0.66746D+00           (S**2,1)=  0.57166D+00
 E(PUHF)=      -0.48393349334D+01        E(PMP2)=      -0.49320159512D+01
 Second order stability test of a single determinant UHF wave function:
 Stabil:  MDV=134217728
 ***********************************************************************
 Matrix         Lowest Root    Major Pairs
 ***********************************************************************
 Internal UHF    -0.0843744    5A=6A 5B=6B 5B=7B 5A=7A
 RUHF --> CUHF (A)0.0278133    Stable
 RUHF --> CUHF (B)0.0278133    Stable
 RUHF --> GHF    -0.0886246    5B=6A 5A=6B 5A=7B 5B=7A
 Not stable.
 ***********************************************************************

 **********************************************************************

            Population analysis using the SCF density.

 **********************************************************************

 Orbital symmetries:
 Alpha Orbitals:
       Occupied  (BG) (BG) (BG) (BG) (BG)
       Virtual   (BG) (BG) (BG) (BG) (BG)
 Beta  Orbitals:
       Occupied  (BG) (BG) (BG) (BG) (BG)
       Virtual   (BG) (BG) (BG) (BG) (BG)
 Unable to determine electronic state:  partially filled degenerate orbitals.
 Alpha  occ. eigenvalues --   -0.80173  -0.72804  -0.56485  -0.36876  -0.22464
 Alpha virt. eigenvalues --    0.05046   0.14164   0.22734   0.39402   0.60918
  Beta  occ. eigenvalues --   -0.80173  -0.72804  -0.56485  -0.36876  -0.22464
  Beta virt. eigenvalues --    0.05046   0.14164   0.22734   0.39402   0.60918
          Condensed to atoms (all electrons):
               1          2          3          4          5          6
     1  H    0.958865   0.072842   0.048181  -0.072237  -0.029721   0.003021
     2  H    0.072842   0.879320   0.060885   0.138978  -0.187096   0.038499
     3  H    0.048181   0.060885   0.676487  -0.059460   0.237237  -0.091122
     4  H   -0.072237   0.138978  -0.059460   0.919753  -0.010824   0.203046
     5  H   -0.029721  -0.187096   0.237237  -0.010824   1.356647  -0.353606
     6  H    0.003021   0.038499  -0.091122   0.203046  -0.353606   1.356647
     7  H    0.004962  -0.021612   0.013241  -0.140511   0.203046  -0.010824
     8  H    0.000138   0.006487  -0.006227   0.013241  -0.091122   0.237237
     9  H   -0.000049  -0.001453   0.006487  -0.021612   0.038499  -0.187096
    10  H   -0.000068  -0.000049   0.000138   0.004962   0.003021  -0.029721
               7          8          9         10
     1  H    0.004962   0.000138  -0.000049  -0.000068
     2  H   -0.021612   0.006487  -0.001453  -0.000049
     3  H    0.013241  -0.006227   0.006487   0.000138
     4  H   -0.140511   0.013241  -0.021612   0.004962
     5  H    0.203046  -0.091122   0.038499   0.003021
     6  H   -0.010824   0.237237  -0.187096  -0.029721
     7  H    0.919753  -0.059460   0.138978  -0.072237
     8  H   -0.059460   0.676487   0.060885   0.048181
     9  H    0.138978   0.060885   0.879320   0.072842
    10  H   -0.072237   0.048181   0.072842   0.958865
          Atomic-Atomic Spin Densities.
               1          2          3          4          5          6
     1  H   -0.765447   0.104685   0.016312   0.042169  -0.006762  -0.002441
     2  H    0.104685   0.143976   0.033117  -0.140221  -0.028789   0.006871
     3  H    0.016312   0.033117   0.157547  -0.093383  -0.003223  -0.009262
     4  H    0.042169  -0.140221  -0.093383  -0.006106   0.119027   0.095742
     5  H   -0.006762  -0.028789  -0.003223   0.119027   0.060463  -0.000000
     6  H   -0.002441   0.006871  -0.009262   0.095742  -0.000000  -0.060463
     7  H   -0.003320   0.011045   0.013297  -0.000000  -0.095742  -0.119027
     8  H    0.000264  -0.000548  -0.000000  -0.013297   0.009262   0.003223
     9  H    0.000194  -0.000000   0.000548  -0.011045  -0.006871   0.028789
    10  H   -0.000000  -0.000194  -0.000264   0.003320   0.002441   0.006762
               7          8          9         10
     1  H   -0.003320   0.000264   0.000194  -0.000000
     2  H    0.011045  -0.000548  -0.000000  -0.000194
     3  H    0.013297  -0.000000   0.000548  -0.000264
     4  H   -0.000000  -0.013297  -0.011045   0.003320
     5  H   -0.095742   0.009262  -0.006871   0.002441
     6  H   -0.119027   0.003223   0.028789   0.006762
     7  H    0.006106   0.093383   0.140221  -0.042169
     8  H    0.093383  -0.157547  -0.033117  -0.016312
     9  H    0.140221  -0.033117  -0.143976  -0.104685
    10  H   -0.042169  -0.016312  -0.104685   0.765447
 Mulliken charges and spin densities:
               1          2
     1  H    0.014066  -0.614345
     2  H    0.013198   0.129943
     3  H    0.114152   0.114691
     4  H    0.024663  -0.003793
     5  H   -0.166080   0.049806
     6  H   -0.166080  -0.049806
     7  H    0.024663   0.003793
     8  H    0.114152  -0.114691
     9  H    0.013198  -0.129943
    10  H    0.014066   0.614345
 Sum of Mulliken charges =   0.00000  -0.00000
 Mulliken charges and spin densities with hydrogens summed into heavy atoms:
               1          2
 Electronic spatial extent (au):  <R**2>=            161.6576
 Charge=              0.0000 electrons
 Dipole moment (field-independent basis, Debye):
    X=             -0.0000    Y=             -0.0000    Z=             -0.0000  Tot=              0.0000
 Quadrupole moment (field-independent basis, Debye-Ang):
   XX=            -12.8098   YY=            -11.9059   ZZ=            -13.0758
   XY=              2.4280   XZ=              0.0000   YZ=              0.0000
 Traceless Quadrupole moment (field-independent basis, Debye-Ang):
   XX=             -0.2127   YY=              0.6913   ZZ=             -0.4786
   XY=              2.4280   XZ=              0.0000   YZ=              0.0000
 Octapole moment (field-independent basis, Debye-Ang**2):
  XXX=             -0.0000  YYY=             -0.0000  ZZZ=              0.0000  XYY=             -0.0000
  XXY=             -0.0000  XXZ=              0.0000  XZZ=             -0.0000  YZZ=             -0.0000
  YYZ=              0.0000  XYZ=             -0.0000
 Hexadecapole moment (field-independent basis, Debye-Ang**3):
 XXXX=           -149.1369 YYYY=           -182.3035 ZZZZ=            -15.9340 XXXY=            -66.4188
 XXXZ=             -0.0000 YYYX=            -62.6386 YYYZ=             -0.0000 ZZZX=             -0.0000
 ZZZY=             -0.0000 XXYY=            -55.6880 XXZZ=            -26.9925 YYZZ=            -33.8469
 XXYZ=             -0.0000 YYXZ=             -0.0000 ZZXY=            -21.6064
 N-N= 1.244980834242D+01 E-N=-3.421336558219D+01  KE= 5.086389213394D+00
 Symmetry AG   KE= 1.752494645579D+00
 Symmetry BG   KE= 0.000000000000D+00
 Symmetry AU   KE= 0.000000000000D+00
 Symmetry BU   KE= 3.333894567815D+00
                          Isotropic Fermi Contact Couplings
        Atom                 a.u.       MegaHertz       Gauss      10(-4) cm-1
     1  H(1)              -0.22244    -497.13308    -177.38944    -165.82575
     2  H(1)               0.04440      99.23494      35.40949      33.10121
     3  H(1)               0.04529     101.22616      36.12001      33.76541
     4  H(1)               0.00232       5.19086       1.85223       1.73148
     5  H(1)               0.02370      52.97258      18.90193      17.66975
     6  H(1)              -0.02370     -52.97258     -18.90193     -17.66975
     7  H(1)              -0.00232      -5.19086      -1.85223      -1.73148
     8  H(1)              -0.04529    -101.22616     -36.12001     -33.76541
     9  H(1)              -0.04440     -99.23494     -35.40949     -33.10121
    10  H(1)               0.22244     497.13308     177.38944     165.82575
 --------------------------------------------------------
       Center         ----  Spin Dipole Couplings  ----
                      3XX-RR        3YY-RR        3ZZ-RR
 --------------------------------------------------------
     1   Atom       -0.010051      0.032374     -0.022323
     2   Atom        0.037704     -0.061246      0.023542
     3   Atom        0.028981     -0.049008      0.020028
     4   Atom        0.013031     -0.007054     -0.005977
     5   Atom       -0.000615     -0.003509      0.004124
     6   Atom        0.000615      0.003509     -0.004124
     7   Atom       -0.013031      0.007054      0.005977
     8   Atom       -0.028981      0.049008     -0.020028
     9   Atom       -0.037704      0.061246     -0.023542
    10   Atom        0.010051     -0.032374      0.022323
 --------------------------------------------------------
                        XY            XZ            YZ
 --------------------------------------------------------
     1   Atom        0.011630      0.000000      0.000000
     2   Atom       -0.032886     -0.000000     -0.000000
     3   Atom       -0.034978     -0.000000     -0.000000
     4   Atom       -0.019544     -0.000000     -0.000000
     5   Atom       -0.032409     -0.000000     -0.000000
     6   Atom        0.032409      0.000000      0.000000
     7   Atom        0.019544     -0.000000     -0.000000
     8   Atom        0.034978      0.000000      0.000000
     9   Atom        0.032886      0.000000      0.000000
    10   Atom       -0.011630     -0.000000     -0.000000
 --------------------------------------------------------


 ---------------------------------------------------------------------------------
              Anisotropic Spin Dipole Couplings in Principal Axis System
 ---------------------------------------------------------------------------------

       Atom             a.u.   MegaHertz   Gauss  10(-4) cm-1        Axes

              Baa    -0.0223   -11.910    -4.250    -3.973  0.0000  0.0000  1.0000
     1 H(1)   Bbb    -0.0130    -6.952    -2.481    -2.319  0.9687 -0.2481  0.0000
              Bcc     0.0354    18.863     6.731     6.292  0.2481  0.9687 -0.0000
 
              Baa    -0.0712   -37.977   -13.551   -12.668  0.2891  0.9573  0.0000
     2 H(1)   Bbb     0.0235    12.561     4.482     4.190  0.0000  0.0000  1.0000
              Bcc     0.0476    25.417     9.069     8.478  0.9573 -0.2891  0.0000
 
              Baa    -0.0624   -33.292   -11.879   -11.105  0.3575  0.9339  0.0000
     3 H(1)   Bbb     0.0200    10.686     3.813     3.564  0.0000  0.0000  1.0000
              Bcc     0.0424    22.606     8.067     7.541  0.9339 -0.3575  0.0000
 
              Baa    -0.0190   -10.130    -3.615    -3.379  0.5210  0.8535 -0.0000
     4 H(1)   Bbb    -0.0060    -3.189    -1.138    -1.064  0.0000  0.0000  1.0000
              Bcc     0.0250    13.319     4.752     4.443  0.8535 -0.5210  0.0000
 
              Baa    -0.0345   -18.409    -6.569    -6.141  0.6912  0.7227  0.0000
     5 H(1)   Bbb     0.0041     2.200     0.785     0.734  0.0000  0.0000  1.0000
              Bcc     0.0304    16.209     5.784     5.407  0.7227 -0.6912  0.0000
 
              Baa    -0.0304   -16.209    -5.784    -5.407  0.7227 -0.6912  0.0000
     6 H(1)   Bbb    -0.0041    -2.200    -0.785    -0.734  0.0000  0.0000  1.0000
              Bcc     0.0345    18.409     6.569     6.141  0.6912  0.7227  0.0000
 
              Baa    -0.0250   -13.319    -4.752    -4.443  0.8535 -0.5210  0.0000
     7 H(1)   Bbb     0.0060     3.189     1.138     1.064  0.0000  0.0000  1.0000
              Bcc     0.0190    10.130     3.615     3.379  0.5210  0.8535 -0.0000
 
              Baa    -0.0424   -22.606    -8.067    -7.541  0.9339 -0.3575  0.0000
     8 H(1)   Bbb    -0.0200   -10.686    -3.813    -3.564  0.0000  0.0000  1.0000
              Bcc     0.0624    33.292    11.879    11.105  0.3575  0.9339  0.0000
 
              Baa    -0.0476   -25.417    -9.069    -8.478  0.9573 -0.2891  0.0000
     9 H(1)   Bbb    -0.0235   -12.561    -4.482    -4.190  0.0000  0.0000  1.0000
              Bcc     0.0712    37.977    13.551    12.668  0.2891  0.9573  0.0000
 
              Baa    -0.0354   -18.863    -6.731    -6.292  0.2481  0.9687  0.0000
    10 H(1)   Bbb     0.0130     6.952     2.481     2.319  0.9687 -0.2481  0.0000
              Bcc     0.0223    11.910     4.250     3.973  0.0000  0.0000  1.0000
 

 ---------------------------------------------------------------------------------


 Test job not archived.
 1\1\GINC-SULU\Stability\UHF\Gen\H10\LCJ1\28-Feb-2017\0\\#uhf/gen scf(t
 ight,novaracc,noincfock,fulldiag, ) stable(crhf) guess=read geom=nocro
 wd test\\hf stability analysis of h10 triangular lattice, y= 1.1954046
 164231349 alpha= 68.000000000000000\\0,1\H\H,1,1.2892853932\H,1,1.2892
 853932,2,44.\H,2,1.2892853932,1,136.,3,0.,0\H,3,1.2892853932,1,180.,2,
 0.,0\H,4,1.2892853932,2,180.,1,0.,0\H,5,1.2892853932,3,180.,2,0.,0\H,6
 ,1.2892853932,4,180.,1,0.,0\H,7,1.2892853932,5,180.,2,0.,0\H,8,1.28928
 53932,6,180.,1,0.,0\\Version=ES64L-G09RevE.01\HF=-4.8016936\MP2=-4.896
 5844\PUHF=-4.8393349\PMP2-0=-4.932016\S2=0.667455\S2-1=0.571663\S2A=0.
 282301\RMSD=2.690e-09\Dipole=0.,0.,0.\Quadrupole=-0.1581035,-0.3558512
 ,0.5139547,0.,1.8051823,0.\PG=C02H [SGH(H10)]\\@


 I LOVE MANKIND - IT'S PEOPLE I CAN'T STAND.
     -- LINUS OF PEANUTS
 Job cpu time:       0 days  0 hours  0 minutes  1.3 seconds.
 File lengths (MBytes):  RWF=     94 Int=      0 D2E=      0 Chk=      2 Scr=      2
 Normal termination of Gaussian 09 at Tue Feb 28 16:44:46 2017.
