 Entering Gaussian System, Link 0=g09
 AtFile(1): H.gbs
            H     0
            S   10   1.00
               1000.000000000000            0.000068713567
                316.227766000000            0.000169141320
                100.000000000000            0.000823394812
                 31.622776600000            0.003425569236
                 10.000000000000            0.013951996000
                  3.162277660000            0.056909313560
                  1.000000000000            0.198286399900
                  0.316227766000            0.496922426700
                  0.100000000000            0.369846276400
                  0.031622776600            0.003752720039
            ****
 Initial command:
 /projects/guscus/apps/gau/g09-e1/g09/l1.exe "/users/lcj1/gaussian/h10/2rows_uhf/ag2bu3/quintet/Gau-15433.inp" -scrdir="/users/lcj1/gaussian/h10/2rows_uhf/ag2bu3/quintet/"
 Entering Link 1 = /projects/guscus/apps/gau/g09-e1/g09/l1.exe PID=     15434.
  
 Copyright (c) 1988,1990,1992,1993,1995,1998,2003,2009,2015,
            Gaussian, Inc.  All Rights Reserved.
  
 This is part of the Gaussian(R) 09 program.  It is based on
 the Gaussian(R) 03 system (copyright 2003, Gaussian, Inc.),
 the Gaussian(R) 98 system (copyright 1998, Gaussian, Inc.),
 the Gaussian(R) 94 system (copyright 1995, Gaussian, Inc.),
 the Gaussian 92(TM) system (copyright 1992, Gaussian, Inc.),
 the Gaussian 90(TM) system (copyright 1990, Gaussian, Inc.),
 the Gaussian 88(TM) system (copyright 1988, Gaussian, Inc.),
 the Gaussian 86(TM) system (copyright 1986, Carnegie Mellon
 University), and the Gaussian 82(TM) system (copyright 1983,
 Carnegie Mellon University). Gaussian is a federally registered
 trademark of Gaussian, Inc.
  
 This software contains proprietary and confidential information,
 including trade secrets, belonging to Gaussian, Inc.
  
 This software is provided under written license and may be
 used, copied, transmitted, or stored only in accord with that
 written license.
  
 The following legend is applicable only to US Government
 contracts under FAR:
  
                    RESTRICTED RIGHTS LEGEND
  
 Use, reproduction and disclosure by the US Government is
 subject to restrictions as set forth in subparagraphs (a)
 and (c) of the Commercial Computer Software - Restricted
 Rights clause in FAR 52.227-19.
  
 Gaussian, Inc.
 340 Quinnipiac St., Bldg. 40, Wallingford CT 06492
  
  
 ---------------------------------------------------------------
 Warning -- This program may not be used in any manner that
 competes with the business of Gaussian, Inc. or will provide
 assistance to any competitor of Gaussian, Inc.  The licensee
 of this program is prohibited from giving any competitor of
 Gaussian, Inc. access to this program.  By using this program,
 the user acknowledges that Gaussian, Inc. is engaged in the
 business of creating and licensing software in the field of
 computational chemistry and represents and warrants to the
 licensee that it is not a competitor of Gaussian, Inc. and that
 it will not use this program in any manner prohibited above.
 ---------------------------------------------------------------
  

 Cite this work as:
 Gaussian 09, Revision E.01,
 M. J. Frisch, G. W. Trucks, H. B. Schlegel, G. E. Scuseria, 
 M. A. Robb, J. R. Cheeseman, G. Scalmani, V. Barone, B. Mennucci, 
 G. A. Petersson, H. Nakatsuji, M. Caricato, X. Li, H. P. Hratchian, 
 A. F. Izmaylov, J. Bloino, G. Zheng, J. L. Sonnenberg, M. Hada, 
 M. Ehara, K. Toyota, R. Fukuda, J. Hasegawa, M. Ishida, T. Nakajima, 
 Y. Honda, O. Kitao, H. Nakai, T. Vreven, J. A. Montgomery, Jr., 
 J. E. Peralta, F. Ogliaro, M. Bearpark, J. J. Heyd, E. Brothers, 
 K. N. Kudin, V. N. Staroverov, T. Keith, R. Kobayashi, J. Normand, 
 K. Raghavachari, A. Rendell, J. C. Burant, S. S. Iyengar, J. Tomasi, 
 M. Cossi, N. Rega, J. M. Millam, M. Klene, J. E. Knox, J. B. Cross, 
 V. Bakken, C. Adamo, J. Jaramillo, R. Gomperts, R. E. Stratmann, 
 O. Yazyev, A. J. Austin, R. Cammi, C. Pomelli, J. W. Ochterski, 
 R. L. Martin, K. Morokuma, V. G. Zakrzewski, G. A. Voth, 
 P. Salvador, J. J. Dannenberg, S. Dapprich, A. D. Daniels, 
 O. Farkas, J. B. Foresman, J. V. Ortiz, J. Cioslowski, 
 and D. J. Fox, Gaussian, Inc., Wallingford CT, 2013.
 
 ******************************************
 Gaussian 09:  ES64L-G09RevE.01 30-Nov-2015
                23-Feb-2017 
 ******************************************
 %chk=h10.chk
 ----------------------------------------------------------------------
 #uhf/gen scf(tight,novaracc,noincfock,fulldiag, ) stable(crhf) guess=r
 ead geom=nocrowd test
 ----------------------------------------------------------------------
 1/38=1/1;
 2/12=1,17=6,18=5,40=1/2;
 3/5=7,16=1,25=1,30=1,116=2/1,2,3;
 4/5=1/1;
 5/5=100002,16=1,32=2,38=6/2;
 8/6=1,10=90,11=11/1,4;
 9/8=4,13=1/2;
 6/7=2,8=2,9=2,10=2,28=1/1;
 99/5=1,9=1/99;
 ----------------------------------------------------------------------
 hf stability analysis of h10 triangular lattice, y= 0.8406196945607729
 0 alpha= 50.750000000000000
 ----------------------------------------------------------------------
 Symbolic Z-matrix:
 Charge =  0 Multiplicity = 5
 H
 H                    1     1.08552 
 H                    1     1.08552  2     78.5 
 H                    2     1.08552  1     101.5    3     0.       0
 H                    3     1.08552  1     180.     2     0.       0
 H                    4     1.08552  2     180.     1     0.       0
 H                    5     1.08552  3     180.     2     0.       0
 H                    6     1.08552  4     180.     1     0.       0
 H                    7     1.08552  5     180.     2     0.       0
 H                    8     1.08552  6     180.     1     0.       0
 
                          Input orientation:                          
 ---------------------------------------------------------------------
 Center     Atomic      Atomic             Coordinates (Angstroms)
 Number     Number       Type             X           Y           Z
 ---------------------------------------------------------------------
      1          1           0        0.000000    0.000000    0.000000
      2          1           0        0.000000    0.000000    1.085521
      3          1           0        1.063729    0.000000    0.216418
      4          1           0        1.063729    0.000000    1.301939
      5          1           0        2.127458    0.000000    0.432836
      6          1           0        2.127458    0.000000    1.518358
      7          1           0        3.191187    0.000000    0.649254
      8          1           0        3.191187    0.000000    1.734776
      9          1           0        4.254916    0.000000    0.865673
     10          1           0        4.254916    0.000000    1.951194
 ---------------------------------------------------------------------
                    Distance matrix (angstroms):
                    1          2          3          4          5
     1  H    0.000000
     2  H    1.085521   0.000000
     3  H    1.085521   1.373630   0.000000
     4  H    1.681239   1.085521   1.085521   0.000000
     5  H    2.171043   2.225326   1.085521   1.373630   0.000000
     6  H    2.613712   2.171043   1.681239   1.085521   1.085521
     7  H    3.256564   3.220870   2.171043   2.225326   1.085521
     8  H    3.632234   3.256564   2.613712   2.171043   1.681239
     9  H    4.342085   4.260592   3.256564   3.220870   2.171043
    10  H    4.680969   4.342085   3.632234   3.256564   2.613712
                    6          7          8          9         10
     6  H    0.000000
     7  H    1.373630   0.000000
     8  H    1.085521   1.085521   0.000000
     9  H    2.225326   1.085521   1.373630   0.000000
    10  H    2.171043   1.681239   1.085521   1.085521   0.000000
 Stoichiometry    H10(5)
 Framework group  C2H[SGH(H10)]
 Deg. of freedom     9
 Full point group                 C2H     NOp   4
 Largest Abelian subgroup         C2H     NOp   4
 Largest concise Abelian subgroup C2      NOp   2
                         Standard orientation:                         
 ---------------------------------------------------------------------
 Center     Atomic      Atomic             Coordinates (Angstroms)
 Number     Number       Type             X           Y           Z
 ---------------------------------------------------------------------
      1          1           0        2.127458    0.975597   -0.000000
      2          1           0        2.127458   -0.109924   -0.000000
      3          1           0        1.063729    0.759179   -0.000000
      4          1           0        1.063729   -0.326342   -0.000000
      5          1           0        0.000000    0.542761    0.000000
      6          1           0       -0.000000   -0.542761    0.000000
      7          1           0       -1.063729    0.326342   -0.000000
      8          1           0       -1.063729   -0.759179   -0.000000
      9          1           0       -2.127458    0.109924   -0.000000
     10          1           0       -2.127458   -0.975597   -0.000000
 ---------------------------------------------------------------------
 Rotational constants (GHZ):    178.2679630     21.1583625     18.9135420
 General basis read from cards:  (5D, 7F)
 There are     5 symmetry adapted cartesian basis functions of AG  symmetry.
 There are     0 symmetry adapted cartesian basis functions of BG  symmetry.
 There are     0 symmetry adapted cartesian basis functions of AU  symmetry.
 There are     5 symmetry adapted cartesian basis functions of BU  symmetry.
 There are     5 symmetry adapted basis functions of AG  symmetry.
 There are     0 symmetry adapted basis functions of BG  symmetry.
 There are     0 symmetry adapted basis functions of AU  symmetry.
 There are     5 symmetry adapted basis functions of BU  symmetry.
    10 basis functions,   100 primitive gaussians,    10 cartesian basis functions
     7 alpha electrons        3 beta electrons
       nuclear repulsion energy        13.6714912675 Hartrees.
 NAtoms=   10 NActive=   10 NUniq=    5 SFac= 4.00D+00 NAtFMM=   60 NAOKFM=F Big=F
 Integral buffers will be    131072 words long.
 Regular integral format.
 Two-electron integral symmetry is turned on.
 One-electron integrals computed using PRISM.
 NBasis=    10 RedAO= T EigKep=  1.31D-01  NBF=     5     0     0     5
 NBsUse=    10 1.00D-06 EigRej= -1.00D+00 NBFU=     5     0     0     5
 Initial guess from the checkpoint file:  "h10.chk"
 B after Tr=     0.000000    0.000000    0.000000
         Rot=    0.999992    0.000000   -0.000000   -0.003879 Ang=  -0.44 deg.
 Initial guess orbital symmetries:
 Alpha Orbitals:
       Occupied  (AG) (BU) (AG) (BU) (AG) (BU) (BU)
       Virtual   (AG) (AG) (BU)
 Beta  Orbitals:
       Occupied  (AG) (BU) (AG)
       Virtual   (BU) (BU) (AG) (BU) (AG) (AG) (BU)
 Initial guess <Sx>= 0.0000 <Sy>= 0.0000 <Sz>= 2.0000 <S**2>= 6.0184 S= 2.0037
 Keep R1 and R2 ints in memory in symmetry-blocked form, NReq=879439.
 Requested convergence on RMS density matrix=1.00D-08 within 128 cycles.
 Requested convergence on MAX density matrix=1.00D-06.
 Requested convergence on             energy=1.00D-06.
 No special actions if energy rises.
 SCF Done:  E(UHF) =  -4.71260112871     A.U. after   11 cycles
            NFock= 11  Conv=0.74D-09     -V/T= 1.8334
 <Sx>= 0.0000 <Sy>= 0.0000 <Sz>= 2.0000 <S**2>= 6.0185 S= 2.0037
 <L.S>= 0.000000000000E+00
 Annihilation of the first spin contaminant:
 S**2 before annihilation     6.0185,   after     6.0000
 Range of M.O.s used for correlation:     1    10
 NBasis=    10 NAE=     7 NBE=     3 NFC=     0 NFV=     0
 NROrb=     10 NOA=     7 NOB=     3 NVA=     3 NVB=     7
 Semi-Direct transformation.
 ModeAB=           4 MOrb=             7 LenV=     134106503
 LASXX=         1176 LTotXX=        1176 LenRXX=        3283
 LTotAB=        2107 MaxLAS=        2100 LenRXY=           0
 NonZer=        4459 LenScr=      655360 LnRSAI=        2100
 LnScr1=      655360 LExtra=           0 Total=      1316103
 MaxDsk=          -1 SrtSym=           T ITran=            3
 JobTyp=1 Pass  1:  I=   1 to   7.
 (rs|ai) integrals will be sorted in core.
 ModeAB=           4 MOrb=             3 LenV=     134106503
 LASXX=          573 LTotXX=         573 LenRXX=         609
 LTotAB=          36 MaxLAS=         900 LenRXY=           0
 NonZer=        1182 LenScr=      655360 LnRSAI=         900
 LnScr1=      655360 LExtra=           0 Total=      1312229
 MaxDsk=          -1 SrtSym=           T ITran=            3
 JobTyp=2 Pass  1:  I=   1 to   3.
 (rs|ai) integrals will be sorted in core.
 Spin components of T(2) and E(2):
     alpha-alpha T2 =       0.4294852499D-02 E2=     -0.5920998369D-02
     alpha-beta  T2 =       0.3133406336D-01 E2=     -0.4796329076D-01
     beta-beta   T2 =       0.1747533179D-02 E2=     -0.2831904575D-02
 ANorm=    0.1018516789D+01
 E2 =    -0.5671619370D-01 EUMP2 =    -0.47693173224091D+01
 (S**2,0)=  0.60185D+01           (S**2,1)=  0.60079D+01
 E(PUHF)=      -0.47136500200D+01        E(PMP2)=      -0.47700651070D+01
 Second order stability test of a single determinant UHF wave function:
 Stabil:  MDV=134217728
 ***********************************************************************
 Matrix         Lowest Root    Major Pairs
 ***********************************************************************
 Internal UHF     0.0109001    Stable
 RUHF --> CUHF (A)0.1139438    Stable
 RUHF --> CUHF (B)0.0978459    Stable
 RUHF --> GHF    -0.2118933    7A=4B
 Not stable.
 ***********************************************************************

 **********************************************************************

            Population analysis using the SCF density.

 **********************************************************************

 Orbital symmetries:
 Alpha Orbitals:
       Occupied  (AG) (BU) (AG) (BU) (AG) (BU) (BU)
       Virtual   (AG) (AG) (BU)
 Beta  Orbitals:
       Occupied  (AG) (BU) (AG)
       Virtual   (BU) (BU) (AG) (BU) (AG) (AG) (BU)
 The electronic state is 5-BU.
 Alpha  occ. eigenvalues --   -0.96322  -0.83484  -0.63539  -0.57416  -0.42051
 Alpha  occ. eigenvalues --   -0.36400  -0.17432
 Alpha virt. eigenvalues --    0.23054   0.36770   0.72908
  Beta  occ. eigenvalues --   -0.79411  -0.64720  -0.43062
  Beta virt. eigenvalues --   -0.05260   0.06052   0.09896   0.32764   0.39343
  Beta virt. eigenvalues --    0.63413   0.90608
          Condensed to atoms (all electrons):
               1          2          3          4          5          6
     1  H    1.106423  -0.079492   0.215171  -0.116388  -0.109183   0.016704
     2  H   -0.079492   1.356586  -0.173669   0.060955   0.011481  -0.117912
     3  H    0.215171  -0.173669   0.879048   0.062348   0.088071  -0.039299
     4  H   -0.116388   0.060955   0.062348   0.903474  -0.043673   0.147651
     5  H   -0.109183   0.011481   0.088071  -0.043673   1.229553  -0.160706
     6  H    0.016704  -0.117912  -0.039299   0.147651  -0.160706   1.229553
     7  H   -0.000130   0.015745  -0.071831  -0.052093   0.147651  -0.043673
     8  H    0.005802   0.006158  -0.018667  -0.071831  -0.039299   0.088071
     9  H    0.001705  -0.002973   0.006158   0.015745  -0.117912   0.011481
    10  H   -0.001079   0.001705   0.005802  -0.000130   0.016704  -0.109183
               7          8          9         10
     1  H   -0.000130   0.005802   0.001705  -0.001079
     2  H    0.015745   0.006158  -0.002973   0.001705
     3  H   -0.071831  -0.018667   0.006158   0.005802
     4  H   -0.052093  -0.071831   0.015745  -0.000130
     5  H    0.147651  -0.039299  -0.117912   0.016704
     6  H   -0.043673   0.088071   0.011481  -0.109183
     7  H    0.903474   0.062348   0.060955  -0.116388
     8  H    0.062348   0.879048  -0.173669   0.215171
     9  H    0.060955  -0.173669   1.356586  -0.079492
    10  H   -0.116388   0.215171  -0.079492   1.106423
          Atomic-Atomic Spin Densities.
               1          2          3          4          5          6
     1  H    0.811311  -0.237313   0.053475  -0.149977  -0.061417   0.046258
     2  H   -0.237313   1.098873  -0.291652  -0.000520   0.051576  -0.070923
     3  H    0.053475  -0.291652   0.493074  -0.072128   0.130177  -0.002361
     4  H   -0.149977  -0.000520  -0.072128   0.712477  -0.094027   0.099976
     5  H   -0.061417   0.051576   0.130177  -0.094027   0.669529  -0.479044
     6  H    0.046258  -0.070923  -0.002361   0.099976  -0.479044   0.669529
     7  H    0.002666   0.018705  -0.054873  -0.043310   0.099976  -0.094027
     8  H    0.004711   0.004777  -0.012508  -0.054873  -0.002361   0.130177
     9  H    0.000600  -0.004083   0.004777   0.018705  -0.070923   0.051576
    10  H   -0.001778   0.000600   0.004711   0.002666   0.046258  -0.061417
               7          8          9         10
     1  H    0.002666   0.004711   0.000600  -0.001778
     2  H    0.018705   0.004777  -0.004083   0.000600
     3  H   -0.054873  -0.012508   0.004777   0.004711
     4  H   -0.043310  -0.054873   0.018705   0.002666
     5  H    0.099976  -0.002361  -0.070923   0.046258
     6  H   -0.094027   0.130177   0.051576  -0.061417
     7  H    0.712477  -0.072128  -0.000520  -0.149977
     8  H   -0.072128   0.493074  -0.291652   0.053475
     9  H   -0.000520  -0.291652   1.098873  -0.237313
    10  H   -0.149977   0.053475  -0.237313   0.811311
 Mulliken charges and spin densities:
               1          2
     1  H   -0.039534   0.468536
     2  H   -0.078586   0.570040
     3  H    0.046867   0.252691
     4  H    0.093941   0.418989
     5  H   -0.022688   0.289744
     6  H   -0.022688   0.289744
     7  H    0.093941   0.418989
     8  H    0.046867   0.252691
     9  H   -0.078586   0.570040
    10  H   -0.039534   0.468536
 Sum of Mulliken charges =  -0.00000   4.00000
 Mulliken charges and spin densities with hydrogens summed into heavy atoms:
               1          2
 Electronic spatial extent (au):  <R**2>=            129.6376
 Charge=             -0.0000 electrons
 Dipole moment (field-independent basis, Debye):
    X=             -0.0000    Y=              0.0000    Z=              0.0000  Tot=              0.0000
 Quadrupole moment (field-independent basis, Debye-Ang):
   XX=            -19.7847   YY=            -14.6961   ZZ=            -12.5388
   XY=             -0.9508   XZ=             -0.0000   YZ=             -0.0000
 Traceless Quadrupole moment (field-independent basis, Debye-Ang):
   XX=             -4.1115   YY=              0.9771   ZZ=              3.1344
   XY=             -0.9508   XZ=             -0.0000   YZ=             -0.0000
 Octapole moment (field-independent basis, Debye-Ang**2):
  XXX=             -0.0000  YYY=             -0.0000  ZZZ=              0.0000  XYY=             -0.0000
  XXY=             -0.0000  XXZ=              0.0000  XZZ=              0.0000  YZZ=             -0.0000
  YYZ=              0.0000  XYZ=              0.0000
 Hexadecapole moment (field-independent basis, Debye-Ang**3):
 XXXX=           -248.4756 YYYY=            -51.6388 ZZZZ=            -14.8506 XXXY=            -23.1662
 XXXZ=             -0.0000 YYYX=            -22.6479 YYYZ=             -0.0000 ZZZX=             -0.0000
 ZZZY=             -0.0000 XXYY=            -48.4465 XXZZ=            -36.1187 YYZZ=            -10.7243
 XXYZ=             -0.0000 YYXZ=             -0.0000 ZZXY=             -6.3161
 N-N= 1.367149126750D+01 E-N=-3.658437690627D+01  KE= 5.654568462803D+00
 Symmetry AG   KE= 2.354178789029D+00
 Symmetry BG   KE= 0.000000000000D+00
 Symmetry AU   KE= 0.000000000000D+00
 Symmetry BU   KE= 3.300389673774D+00
                          Isotropic Fermi Contact Couplings
        Atom                 a.u.       MegaHertz       Gauss      10(-4) cm-1
     1  H(1)               0.21522     240.49741      85.81545      80.22130
     2  H(1)               0.28134     314.38804     112.18147     104.86856
     3  H(1)               0.13562     151.55139      54.07730      50.55210
     4  H(1)               0.19922     222.62072      79.43661      74.25828
     5  H(1)               0.16472     184.07024      65.68084      61.39922
     6  H(1)               0.16472     184.07024      65.68084      61.39922
     7  H(1)               0.19922     222.62072      79.43661      74.25828
     8  H(1)               0.13562     151.55139      54.07730      50.55210
     9  H(1)               0.28134     314.38804     112.18147     104.86856
    10  H(1)               0.21522     240.49741      85.81545      80.22130
 --------------------------------------------------------
       Center         ----  Spin Dipole Couplings  ----
                      3XX-RR        3YY-RR        3ZZ-RR
 --------------------------------------------------------
     1   Atom        0.030509      0.037285     -0.067794
     2   Atom        0.051249      0.015872     -0.067120
     3   Atom        0.120592      0.002719     -0.123311
     4   Atom        0.135177     -0.025325     -0.109852
     5   Atom        0.178938     -0.062988     -0.115950
     6   Atom        0.178938     -0.062988     -0.115950
     7   Atom        0.135177     -0.025325     -0.109852
     8   Atom        0.120592      0.002719     -0.123311
     9   Atom        0.051249      0.015872     -0.067120
    10   Atom        0.030509      0.037285     -0.067794
 --------------------------------------------------------
                        XY            XZ            YZ
 --------------------------------------------------------
     1   Atom       -0.002176     -0.000000     -0.000000
     2   Atom        0.041045     -0.000000     -0.000000
     3   Atom        0.041844     -0.000000     -0.000000
     4   Atom        0.022094     -0.000000      0.000000
     5   Atom        0.029049      0.000000      0.000000
     6   Atom        0.029049     -0.000000     -0.000000
     7   Atom        0.022094      0.000000      0.000000
     8   Atom        0.041844      0.000000     -0.000000
     9   Atom        0.041045     -0.000000      0.000000
    10   Atom       -0.002176      0.000000     -0.000000
 --------------------------------------------------------


 ---------------------------------------------------------------------------------
              Anisotropic Spin Dipole Couplings in Principal Axis System
 ---------------------------------------------------------------------------------

       Atom             a.u.   MegaHertz   Gauss  10(-4) cm-1        Axes

              Baa    -0.0678   -36.172   -12.907   -12.066  0.0000  0.0000  1.0000
     1 H(1)   Bbb     0.0299    15.937     5.687     5.316  0.9595  0.2816  0.0000
              Bcc     0.0379    20.234     7.220     6.749 -0.2816  0.9595 -0.0000
 
              Baa    -0.0671   -35.812   -12.779   -11.946  0.0000  0.0000  1.0000
     2 H(1)   Bbb    -0.0111    -5.941    -2.120    -1.982 -0.5497  0.8354  0.0000
              Bcc     0.0783    41.753    14.898    13.927  0.8354  0.5497  0.0000
 
              Baa    -0.1233   -65.793   -23.476   -21.946  0.0000  0.0000  1.0000
     3 H(1)   Bbb    -0.0106    -5.669    -2.023    -1.891 -0.3038  0.9527 -0.0000
              Bcc     0.1339    71.462    25.499    23.837  0.9527  0.3038  0.0000
 
              Baa    -0.1099   -58.612   -20.914   -19.551  0.0000  0.0000  1.0000
     4 H(1)   Bbb    -0.0283   -15.105    -5.390    -5.039 -0.1339  0.9910  0.0000
              Bcc     0.1382    73.717    26.304    24.589  0.9910  0.1339  0.0000
 
              Baa    -0.1159   -61.865   -22.075   -20.636  0.0000  0.0000  1.0000
     5 H(1)   Bbb    -0.0664   -35.442   -12.647   -11.822 -0.1176  0.9931 -0.0000
              Bcc     0.1824    97.308    34.722    32.458  0.9931  0.1176  0.0000
 
              Baa    -0.1159   -61.865   -22.075   -20.636  0.0000  0.0000  1.0000
     6 H(1)   Bbb    -0.0664   -35.442   -12.647   -11.822 -0.1176  0.9931 -0.0000
              Bcc     0.1824    97.308    34.722    32.458  0.9931  0.1176  0.0000
 
              Baa    -0.1099   -58.612   -20.914   -19.551  0.0000  0.0000  1.0000
     7 H(1)   Bbb    -0.0283   -15.105    -5.390    -5.039 -0.1339  0.9910 -0.0000
              Bcc     0.1382    73.717    26.304    24.589  0.9910  0.1339  0.0000
 
              Baa    -0.1233   -65.793   -23.476   -21.946  0.0000  0.0000  1.0000
     8 H(1)   Bbb    -0.0106    -5.669    -2.023    -1.891 -0.3038  0.9527  0.0000
              Bcc     0.1339    71.462    25.499    23.837  0.9527  0.3038  0.0000
 
              Baa    -0.0671   -35.812   -12.779   -11.946  0.0000  0.0000  1.0000
     9 H(1)   Bbb    -0.0111    -5.941    -2.120    -1.982 -0.5497  0.8354 -0.0000
              Bcc     0.0783    41.753    14.898    13.927  0.8354  0.5497  0.0000
 
              Baa    -0.0678   -36.172   -12.907   -12.066  0.0000  0.0000  1.0000
    10 H(1)   Bbb     0.0299    15.937     5.687     5.316  0.9595  0.2816  0.0000
              Bcc     0.0379    20.234     7.220     6.749 -0.2816  0.9595  0.0000
 

 ---------------------------------------------------------------------------------


 Test job not archived.
 1\1\GINC-SULU\Stability\UHF\Gen\H10(5)\LCJ1\23-Feb-2017\0\\#uhf/gen sc
 f(tight,novaracc,noincfock,fulldiag, ) stable(crhf) guess=read geom=no
 crowd test\\hf stability analysis of h10 triangular lattice, y= 0.8406
 1969456077290 alpha= 50.750000000000000\\0,5\H\H,1,1.0855212586\H,1,1.
 0855212586,2,78.5\H,2,1.0855212586,1,101.5,3,0.,0\H,3,1.0855212586,1,1
 80.,2,0.,0\H,4,1.0855212586,2,180.,1,0.,0\H,5,1.0855212586,3,180.,2,0.
 ,0\H,6,1.0855212586,4,180.,1,0.,0\H,7,1.0855212586,5,180.,2,0.,0\H,8,1
 .0855212586,6,180.,1,0.,0\\Version=ES64L-G09RevE.01\State=5-BU\HF=-4.7
 126011\MP2=-4.7693173\PUHF=-4.71365\PMP2-0=-4.7700651\S2=6.018547\S2-1
 =6.007895\S2A=6.000008\RMSD=7.392e-10\Dipole=0.,0.,0.\Quadrupole=-3.05
 6804,2.3303643,0.7264396,0.,-0.7069055,0.\PG=C02H [SGH(H10)]\\@


 WE ARE REACHING THE STAGE WHERE THE PROBLEMS WE MUST SOLVE ARE 
 GOING TO BECOME INSOLUBLE WITHOUT COMPUTERS.
 I DO NOT FEAR COMPUTERS.  I FEAR THE LACK OF THEM.

                                   -- ISSAC ASIMOV
 Job cpu time:       0 days  0 hours  0 minutes  1.0 seconds.
 File lengths (MBytes):  RWF=     94 Int=      0 D2E=      0 Chk=      2 Scr=      2
 Normal termination of Gaussian 09 at Thu Feb 23 12:48:54 2017.
