 Entering Gaussian System, Link 0=g09
 AtFile(1): H.gbs
            H     0
            S   10   1.00
               1000.000000000000            0.000068713567
                316.227766000000            0.000169141320
                100.000000000000            0.000823394812
                 31.622776600000            0.003425569236
                 10.000000000000            0.013951996000
                  3.162277660000            0.056909313560
                  1.000000000000            0.198286399900
                  0.316227766000            0.496922426700
                  0.100000000000            0.369846276400
                  0.031622776600            0.003752720039
            ****
 Initial command:
 /projects/guscus/apps/gau/g09-e1/g09/l1.exe "/users/lcj1/gaussian/h10/2rows_uhf/ag2bu3/quintet/Gau-10892.inp" -scrdir="/users/lcj1/gaussian/h10/2rows_uhf/ag2bu3/quintet/"
 Entering Link 1 = /projects/guscus/apps/gau/g09-e1/g09/l1.exe PID=     10893.
  
 Copyright (c) 1988,1990,1992,1993,1995,1998,2003,2009,2015,
            Gaussian, Inc.  All Rights Reserved.
  
 This is part of the Gaussian(R) 09 program.  It is based on
 the Gaussian(R) 03 system (copyright 2003, Gaussian, Inc.),
 the Gaussian(R) 98 system (copyright 1998, Gaussian, Inc.),
 the Gaussian(R) 94 system (copyright 1995, Gaussian, Inc.),
 the Gaussian 92(TM) system (copyright 1992, Gaussian, Inc.),
 the Gaussian 90(TM) system (copyright 1990, Gaussian, Inc.),
 the Gaussian 88(TM) system (copyright 1988, Gaussian, Inc.),
 the Gaussian 86(TM) system (copyright 1986, Carnegie Mellon
 University), and the Gaussian 82(TM) system (copyright 1983,
 Carnegie Mellon University). Gaussian is a federally registered
 trademark of Gaussian, Inc.
  
 This software contains proprietary and confidential information,
 including trade secrets, belonging to Gaussian, Inc.
  
 This software is provided under written license and may be
 used, copied, transmitted, or stored only in accord with that
 written license.
  
 The following legend is applicable only to US Government
 contracts under FAR:
  
                    RESTRICTED RIGHTS LEGEND
  
 Use, reproduction and disclosure by the US Government is
 subject to restrictions as set forth in subparagraphs (a)
 and (c) of the Commercial Computer Software - Restricted
 Rights clause in FAR 52.227-19.
  
 Gaussian, Inc.
 340 Quinnipiac St., Bldg. 40, Wallingford CT 06492
  
  
 ---------------------------------------------------------------
 Warning -- This program may not be used in any manner that
 competes with the business of Gaussian, Inc. or will provide
 assistance to any competitor of Gaussian, Inc.  The licensee
 of this program is prohibited from giving any competitor of
 Gaussian, Inc. access to this program.  By using this program,
 the user acknowledges that Gaussian, Inc. is engaged in the
 business of creating and licensing software in the field of
 computational chemistry and represents and warrants to the
 licensee that it is not a competitor of Gaussian, Inc. and that
 it will not use this program in any manner prohibited above.
 ---------------------------------------------------------------
  

 Cite this work as:
 Gaussian 09, Revision E.01,
 M. J. Frisch, G. W. Trucks, H. B. Schlegel, G. E. Scuseria, 
 M. A. Robb, J. R. Cheeseman, G. Scalmani, V. Barone, B. Mennucci, 
 G. A. Petersson, H. Nakatsuji, M. Caricato, X. Li, H. P. Hratchian, 
 A. F. Izmaylov, J. Bloino, G. Zheng, J. L. Sonnenberg, M. Hada, 
 M. Ehara, K. Toyota, R. Fukuda, J. Hasegawa, M. Ishida, T. Nakajima, 
 Y. Honda, O. Kitao, H. Nakai, T. Vreven, J. A. Montgomery, Jr., 
 J. E. Peralta, F. Ogliaro, M. Bearpark, J. J. Heyd, E. Brothers, 
 K. N. Kudin, V. N. Staroverov, T. Keith, R. Kobayashi, J. Normand, 
 K. Raghavachari, A. Rendell, J. C. Burant, S. S. Iyengar, J. Tomasi, 
 M. Cossi, N. Rega, J. M. Millam, M. Klene, J. E. Knox, J. B. Cross, 
 V. Bakken, C. Adamo, J. Jaramillo, R. Gomperts, R. E. Stratmann, 
 O. Yazyev, A. J. Austin, R. Cammi, C. Pomelli, J. W. Ochterski, 
 R. L. Martin, K. Morokuma, V. G. Zakrzewski, G. A. Voth, 
 P. Salvador, J. J. Dannenberg, S. Dapprich, A. D. Daniels, 
 O. Farkas, J. B. Foresman, J. V. Ortiz, J. Cioslowski, 
 and D. J. Fox, Gaussian, Inc., Wallingford CT, 2013.
 
 ******************************************
 Gaussian 09:  ES64L-G09RevE.01 30-Nov-2015
                23-Feb-2017 
 ******************************************
 %chk=h10.chk
 ----------------------------------------------------------------------
 #uhf/gen scf(tight,novaracc,noincfock,fulldiag, ) stable(crhf) guess=r
 ead geom=nocrowd test
 ----------------------------------------------------------------------
 1/38=1/1;
 2/12=1,17=6,18=5,40=1/2;
 3/5=7,16=1,25=1,30=1,116=2/1,2,3;
 4/5=1/1;
 5/5=100002,16=1,32=2,38=6/2;
 8/6=1,10=90,11=11/1,4;
 9/8=4,13=1/2;
 6/7=2,8=2,9=2,10=2,28=1/1;
 99/5=1,9=1/99;
 ----------------------------------------------------------------------
 hf stability analysis of h10 triangular lattice, y= 0.5569753137506021
 6 alpha= 28.250000000000000
 ----------------------------------------------------------------------
 Symbolic Z-matrix:
 Charge =  0 Multiplicity = 5
 H
 H                    1     1.17674 
 H                    1     1.17674  2     123.5 
 H                    2     1.17674  1     56.5     3     0.       0
 H                    3     1.17674  1     180.     2     0.       0
 H                    4     1.17674  2     180.     1     0.       0
 H                    5     1.17674  3     180.     2     0.       0
 H                    6     1.17674  4     180.     1     0.       0
 H                    7     1.17674  5     180.     2     0.       0
 H                    8     1.17674  6     180.     1     0.       0
 
                          Input orientation:                          
 ---------------------------------------------------------------------
 Center     Atomic      Atomic             Coordinates (Angstroms)
 Number     Number       Type             X           Y           Z
 ---------------------------------------------------------------------
      1          1           0        0.000000    0.000000    0.000000
      2          1           0        0.000000    0.000000    1.176742
      3          1           0        0.981269    0.000000   -0.649488
      4          1           0        0.981269    0.000000    0.527255
      5          1           0        1.962538    0.000000   -1.298975
      6          1           0        1.962538    0.000000   -0.122233
      7          1           0        2.943806    0.000000   -1.948463
      8          1           0        2.943806    0.000000   -0.771721
      9          1           0        3.925075    0.000000   -2.597951
     10          1           0        3.925075    0.000000   -1.421208
 ---------------------------------------------------------------------
                    Distance matrix (angstroms):
                    1          2          3          4          5
     1  H    0.000000
     2  H    1.176742   0.000000
     3  H    1.176742   2.073163   0.000000
     4  H    1.113951   1.176742   1.176742   0.000000
     5  H    2.353485   3.159230   1.176742   2.073163   0.000000
     6  H    1.966340   2.353485   1.113951   1.176742   1.176742
     7  H    3.530227   4.293356   2.353485   3.159230   1.176742
     8  H    3.043279   3.530227   1.966340   2.353485   1.113951
     9  H    4.706969   5.445596   3.530227   4.293356   2.353485
    10  H    4.174452   4.706969   3.043279   3.530227   1.966340
                    6          7          8          9         10
     6  H    0.000000
     7  H    2.073163   0.000000
     8  H    1.176742   1.176742   0.000000
     9  H    3.159230   1.176742   2.073163   0.000000
    10  H    2.353485   1.113951   1.176742   1.176742   0.000000
 Stoichiometry    H10(5)
 Framework group  C2H[SGH(H10)]
 Deg. of freedom     9
 Full point group                 C2H     NOp   4
 Largest Abelian subgroup         C2H     NOp   4
 Largest concise Abelian subgroup C2      NOp   2
                         Standard orientation:                         
 ---------------------------------------------------------------------
 Center     Atomic      Atomic             Coordinates (Angstroms)
 Number     Number       Type             X           Y           Z
 ---------------------------------------------------------------------
      1          1           0        1.962538   -0.710604    0.000000
      2          1           0        1.962538   -1.887346    0.000000
      3          1           0        0.981269   -0.061116    0.000000
      4          1           0        0.981269   -1.237859    0.000000
      5          1           0        0.000000    0.588371    0.000000
      6          1           0       -0.000000   -0.588371   -0.000000
      7          1           0       -0.981269    1.237859    0.000000
      8          1           0       -0.981269    0.061116    0.000000
      9          1           0       -1.962538    1.887346    0.000000
     10          1           0       -1.962538    0.710604    0.000000
 ---------------------------------------------------------------------
 Rotational constants (GHZ):    216.9675375     17.3844366     16.0948437
 General basis read from cards:  (5D, 7F)
 There are     5 symmetry adapted cartesian basis functions of AG  symmetry.
 There are     0 symmetry adapted cartesian basis functions of BG  symmetry.
 There are     0 symmetry adapted cartesian basis functions of AU  symmetry.
 There are     5 symmetry adapted cartesian basis functions of BU  symmetry.
 There are     5 symmetry adapted basis functions of AG  symmetry.
 There are     0 symmetry adapted basis functions of BG  symmetry.
 There are     0 symmetry adapted basis functions of AU  symmetry.
 There are     5 symmetry adapted basis functions of BU  symmetry.
    10 basis functions,   100 primitive gaussians,    10 cartesian basis functions
     7 alpha electrons        3 beta electrons
       nuclear repulsion energy        13.0688564552 Hartrees.
 NAtoms=   10 NActive=   10 NUniq=    5 SFac= 4.00D+00 NAtFMM=   60 NAOKFM=F Big=F
 Integral buffers will be    131072 words long.
 Regular integral format.
 Two-electron integral symmetry is turned on.
 One-electron integrals computed using PRISM.
 NBasis=    10 RedAO= T EigKep=  1.96D-01  NBF=     5     0     0     5
 NBsUse=    10 1.00D-06 EigRej= -1.00D+00 NBFU=     5     0     0     5
 Initial guess from the checkpoint file:  "h10.chk"
 B after Tr=     0.000000    0.000000    0.000000
         Rot=    0.999992    0.000000    0.000000   -0.003879 Ang=  -0.44 deg.
 Initial guess orbital symmetries:
 Alpha Orbitals:
       Occupied  (AG) (BU) (AG) (BU) (BU) (AG) (BU)
       Virtual   (AG) (AG) (BU)
 Beta  Orbitals:
       Occupied  (AG) (BU) (AG)
       Virtual   (BU) (BU) (AG) (AG) (BU) (BU) (AG)
 Initial guess <Sx>= 0.0000 <Sy>= 0.0000 <Sz>= 2.0000 <S**2>= 6.0958 S= 2.0191
 Keep R1 and R2 ints in memory in symmetry-blocked form, NReq=878907.
 Requested convergence on RMS density matrix=1.00D-08 within 128 cycles.
 Requested convergence on MAX density matrix=1.00D-06.
 Requested convergence on             energy=1.00D-06.
 No special actions if energy rises.
 SCF Done:  E(UHF) =  -4.69788011770     A.U. after   10 cycles
            NFock= 10  Conv=0.73D-08     -V/T= 1.8285
 <Sx>= 0.0000 <Sy>= 0.0000 <Sz>= 2.0000 <S**2>= 6.0903 S= 2.0180
 <L.S>= 0.000000000000E+00
 Annihilation of the first spin contaminant:
 S**2 before annihilation     6.0903,   after     6.0012
 Range of M.O.s used for correlation:     1    10
 NBasis=    10 NAE=     7 NBE=     3 NFC=     0 NFV=     0
 NROrb=     10 NOA=     7 NOB=     3 NVA=     3 NVB=     7
 Semi-Direct transformation.
 ModeAB=           4 MOrb=             7 LenV=     134107161
 LASXX=         1176 LTotXX=        1176 LenRXX=        3283
 LTotAB=        2107 MaxLAS=        2100 LenRXY=           0
 NonZer=        4459 LenScr=      655360 LnRSAI=        2100
 LnScr1=      655360 LExtra=           0 Total=      1316103
 MaxDsk=          -1 SrtSym=           T ITran=            3
 JobTyp=1 Pass  1:  I=   1 to   7.
 (rs|ai) integrals will be sorted in core.
 ModeAB=           4 MOrb=             3 LenV=     134107161
 LASXX=          573 LTotXX=         573 LenRXX=         609
 LTotAB=          36 MaxLAS=         900 LenRXY=           0
 NonZer=        1182 LenScr=      655360 LnRSAI=         900
 LnScr1=      655360 LExtra=           0 Total=      1312229
 MaxDsk=          -1 SrtSym=           T ITran=            3
 JobTyp=2 Pass  1:  I=   1 to   3.
 (rs|ai) integrals will be sorted in core.
 Spin components of T(2) and E(2):
     alpha-alpha T2 =       0.3306178695D-02 E2=     -0.4378939871D-02
     alpha-beta  T2 =       0.2959823790D-01 E2=     -0.4448213580D-01
     beta-beta   T2 =       0.1541830615D-02 E2=     -0.2515288900D-02
 ANorm=    0.1017077306D+01
 E2 =    -0.5137636458D-01 EUMP2 =    -0.47492564822766D+01
 (S**2,0)=  0.60903D+01           (S**2,1)=  0.60501D+01
 E(PUHF)=      -0.47027212919D+01        E(PMP2)=      -0.47530315879D+01
 Second order stability test of a single determinant UHF wave function:
 Stabil:  MDV=134217728
 ***********************************************************************
 Matrix         Lowest Root    Major Pairs
 ***********************************************************************
 Internal UHF     0.0041044    Stable
 RUHF --> CUHF (A)0.0417713    Stable
 RUHF --> CUHF (B)0.1874536    Stable
 RUHF --> GHF    -0.169932     7A=4B
 Not stable.
 ***********************************************************************

 **********************************************************************

            Population analysis using the SCF density.

 **********************************************************************

 Orbital symmetries:
 Alpha Orbitals:
       Occupied  (AG) (BU) (AG) (BU) (BU) (AG) (BU)
       Virtual   (AG) (AG) (BU)
 Beta  Orbitals:
       Occupied  (AG) (BU) (AG)
       Virtual   (BU) (BU) (AG) (AG) (BU) (BU) (AG)
 The electronic state is 5-BU.
 Alpha  occ. eigenvalues --   -0.92571  -0.80504  -0.64595  -0.49366  -0.40613
 Alpha  occ. eigenvalues --   -0.35963  -0.15125
 Alpha virt. eigenvalues --    0.15681   0.39044   0.45306
  Beta  occ. eigenvalues --   -0.77369  -0.65442  -0.44656
  Beta virt. eigenvalues --    0.01655   0.03554   0.17300   0.28009   0.39766
  Beta virt. eigenvalues --    0.56226   0.67098
          Condensed to atoms (all electrons):
               1          2          3          4          5          6
     1  H    1.670294  -0.233389  -0.117385  -0.118272  -0.066625  -0.053582
     2  H   -0.233389   1.062012  -0.047531   0.242216   0.011226  -0.046678
     3  H   -0.117385  -0.047531   1.059099   0.051055   0.176138  -0.052784
     4  H   -0.118272   0.242216   0.051055   0.767483  -0.056591   0.111825
     5  H   -0.066625   0.011226   0.176138  -0.056591   1.113248  -0.108226
     6  H   -0.053582  -0.046678  -0.052784   0.111825  -0.108226   1.113248
     7  H    0.004823   0.001389  -0.042270  -0.003547   0.111825  -0.056591
     8  H    0.030482  -0.006181  -0.133536  -0.042270  -0.052784   0.176138
     9  H    0.000656  -0.000166  -0.006181   0.001389  -0.046678   0.011226
    10  H   -0.003702   0.000656   0.030482   0.004823  -0.053582  -0.066625
               7          8          9         10
     1  H    0.004823   0.030482   0.000656  -0.003702
     2  H    0.001389  -0.006181  -0.000166   0.000656
     3  H   -0.042270  -0.133536  -0.006181   0.030482
     4  H   -0.003547  -0.042270   0.001389   0.004823
     5  H    0.111825  -0.052784  -0.046678  -0.053582
     6  H   -0.056591   0.176138   0.011226  -0.066625
     7  H    0.767483   0.051055   0.242216  -0.118272
     8  H    0.051055   1.059099  -0.047531  -0.117385
     9  H    0.242216  -0.047531   1.062012  -0.233389
    10  H   -0.118272  -0.117385  -0.233389   1.670294
          Atomic-Atomic Spin Densities.
               1          2          3          4          5          6
     1  H    1.494399  -0.318414  -0.117870  -0.320858  -0.038608  -0.021098
     2  H   -0.318414   0.911454  -0.043592   0.073957   0.020772  -0.023978
     3  H   -0.117870  -0.043592   0.895670  -0.006379   0.080612  -0.186224
     4  H   -0.320858   0.073957  -0.006379  -0.050686   0.001166   0.184174
     5  H   -0.038608   0.020772   0.080612   0.001166   0.642007  -0.340799
     6  H   -0.021098  -0.023978  -0.186224   0.184174  -0.340799   0.642007
     7  H    0.002304   0.000445  -0.016887  -0.006896   0.184174   0.001166
     8  H    0.036298  -0.003530  -0.145617  -0.016887  -0.186224   0.080612
     9  H    0.000309  -0.000268  -0.003530   0.000445  -0.023978   0.020772
    10  H   -0.004459   0.000309   0.036298   0.002304  -0.021098  -0.038608
               7          8          9         10
     1  H    0.002304   0.036298   0.000309  -0.004459
     2  H    0.000445  -0.003530  -0.000268   0.000309
     3  H   -0.016887  -0.145617  -0.003530   0.036298
     4  H   -0.006896  -0.016887   0.000445   0.002304
     5  H    0.184174  -0.186224  -0.023978  -0.021098
     6  H    0.001166   0.080612   0.020772  -0.038608
     7  H   -0.050686  -0.006379   0.073957  -0.320858
     8  H   -0.006379   0.895670  -0.043592  -0.117870
     9  H    0.073957  -0.043592   0.911454  -0.318414
    10  H   -0.320858  -0.117870  -0.318414   1.494399
 Mulliken charges and spin densities:
               1          2
     1  H   -0.113299   0.712003
     2  H    0.016447   0.617155
     3  H    0.082913   0.492480
     4  H    0.041890  -0.139661
     5  H   -0.027951   0.318024
     6  H   -0.027951   0.318024
     7  H    0.041890  -0.139661
     8  H    0.082913   0.492480
     9  H    0.016447   0.617155
    10  H   -0.113299   0.712003
 Sum of Mulliken charges =  -0.00000   4.00000
 Mulliken charges and spin densities with hydrogens summed into heavy atoms:
               1          2
 Electronic spatial extent (au):  <R**2>=            144.7086
 Charge=             -0.0000 electrons
 Dipole moment (field-independent basis, Debye):
    X=              0.0000    Y=             -0.0000    Z=             -0.0000  Tot=              0.0000
 Quadrupole moment (field-independent basis, Debye-Ang):
   XX=            -17.5193   YY=            -14.8635   ZZ=            -12.6054
   XY=              0.9536   XZ=              0.0000   YZ=             -0.0000
 Traceless Quadrupole moment (field-independent basis, Debye-Ang):
   XX=             -2.5233   YY=              0.1326   ZZ=              2.3907
   XY=              0.9536   XZ=              0.0000   YZ=             -0.0000
 Octapole moment (field-independent basis, Debye-Ang**2):
  XXX=              0.0000  YYY=             -0.0000  ZZZ=             -0.0000  XYY=              0.0000
  XXY=              0.0000  XXZ=             -0.0000  XZZ=             -0.0000  YZZ=             -0.0000
  YYZ=             -0.0000  XYZ=              0.0000
 Hexadecapole moment (field-independent basis, Debye-Ang**3):
 XXXX=           -197.1067 YYYY=           -125.9152 ZZZZ=            -15.0163 XXXY=             55.8252
 XXXZ=              0.0000 YYYX=             57.6875 YYYZ=             -0.0000 ZZZX=              0.0000
 ZZZY=             -0.0000 XXYY=            -51.0655 XXZZ=            -30.7590 YYZZ=            -21.4858
 XXYZ=             -0.0000 YYXZ=              0.0000 ZZXY=             16.7535
 N-N= 1.306885645521D+01 E-N=-3.554169601882D+01  KE= 5.670259895360D+00
 Symmetry AG   KE= 2.364371916326D+00
 Symmetry BG   KE= 0.000000000000D+00
 Symmetry AU   KE= 0.000000000000D+00
 Symmetry BU   KE= 3.305887979035D+00
                          Isotropic Fermi Contact Couplings
        Atom                 a.u.       MegaHertz       Gauss      10(-4) cm-1
     1  H(1)               0.36981     413.24698     147.45679     137.84435
     2  H(1)               0.25050     279.92328      99.88358      93.37236
     3  H(1)               0.23792     265.87360      94.87031      88.68589
     4  H(1)              -0.02562     -28.62669     -10.21472      -9.54884
     5  H(1)               0.16313     182.28810      65.04492      60.80476
     6  H(1)               0.16313     182.28810      65.04492      60.80476
     7  H(1)              -0.02562     -28.62669     -10.21472      -9.54884
     8  H(1)               0.23792     265.87360      94.87031      88.68589
     9  H(1)               0.25050     279.92328      99.88358      93.37236
    10  H(1)               0.36981     413.24698     147.45679     137.84435
 --------------------------------------------------------
       Center         ----  Spin Dipole Couplings  ----
                      3XX-RR        3YY-RR        3ZZ-RR
 --------------------------------------------------------
     1   Atom       -0.011188      0.051696     -0.040509
     2   Atom       -0.025853      0.063525     -0.037672
     3   Atom        0.098708     -0.012549     -0.086159
     4   Atom        0.097979      0.053492     -0.151471
     5   Atom        0.120376     -0.022446     -0.097930
     6   Atom        0.120376     -0.022446     -0.097930
     7   Atom        0.097979      0.053492     -0.151471
     8   Atom        0.098708     -0.012549     -0.086159
     9   Atom       -0.025853      0.063525     -0.037672
    10   Atom       -0.011188      0.051696     -0.040509
 --------------------------------------------------------
                        XY            XZ            YZ
 --------------------------------------------------------
     1   Atom       -0.082622      0.000000      0.000000
     2   Atom        0.011782      0.000000     -0.000000
     3   Atom       -0.060806      0.000000      0.000000
     4   Atom       -0.062127      0.000000     -0.000000
     5   Atom       -0.028822     -0.000000      0.000000
     6   Atom       -0.028822     -0.000000     -0.000000
     7   Atom       -0.062127     -0.000000      0.000000
     8   Atom       -0.060806     -0.000000      0.000000
     9   Atom        0.011782     -0.000000      0.000000
    10   Atom       -0.082622     -0.000000     -0.000000
 --------------------------------------------------------


 ---------------------------------------------------------------------------------
              Anisotropic Spin Dipole Couplings in Principal Axis System
 ---------------------------------------------------------------------------------

       Atom             a.u.   MegaHertz   Gauss  10(-4) cm-1        Axes

              Baa    -0.0681   -36.361   -12.974   -12.129  0.8233  0.5676 -0.0000
     1 H(1)   Bbb    -0.0405   -21.613    -7.712    -7.209  0.0000  0.0000  1.0000
              Bcc     0.1087    57.974    20.687    19.338 -0.5676  0.8233  0.0000
 
              Baa    -0.0377   -20.100    -7.172    -6.705  0.0000  0.0000  1.0000
     2 H(1)   Bbb    -0.0274   -14.609    -5.213    -4.873  0.9917 -0.1285  0.0000
              Bcc     0.0651    34.709    12.385    11.578  0.1285  0.9917  0.0000
 
              Baa    -0.0862   -45.970   -16.403   -15.334  0.0000  0.0000  1.0000
     3 H(1)   Bbb    -0.0393   -20.987    -7.489    -7.000  0.4031  0.9151 -0.0000
              Bcc     0.1255    66.957    23.892    22.334  0.9151 -0.4031  0.0000
 
              Baa    -0.1515   -80.818   -28.838   -26.958  0.0000  0.0000  1.0000
     4 H(1)   Bbb     0.0097     5.200     1.856     1.735  0.5757  0.8176  0.0000
              Bcc     0.1417    75.617    26.982    25.223  0.8176 -0.5757  0.0000
 
              Baa    -0.0979   -52.251   -18.644   -17.429  0.0000  0.0000  1.0000
     5 H(1)   Bbb    -0.0280   -14.962    -5.339    -4.991  0.1906  0.9817  0.0000
              Bcc     0.1260    67.213    23.983    22.420  0.9817 -0.1906  0.0000
 
              Baa    -0.0979   -52.251   -18.644   -17.429  0.0000  0.0000  1.0000
     6 H(1)   Bbb    -0.0280   -14.962    -5.339    -4.991  0.1906  0.9817 -0.0000
              Bcc     0.1260    67.213    23.983    22.420  0.9817 -0.1906  0.0000
 
              Baa    -0.1515   -80.818   -28.838   -26.958  0.0000  0.0000  1.0000
     7 H(1)   Bbb     0.0097     5.200     1.856     1.735  0.5757  0.8176  0.0000
              Bcc     0.1417    75.617    26.982    25.223  0.8176 -0.5757  0.0000
 
              Baa    -0.0862   -45.970   -16.403   -15.334  0.0000  0.0000  1.0000
     8 H(1)   Bbb    -0.0393   -20.987    -7.489    -7.000  0.4031  0.9151  0.0000
              Bcc     0.1255    66.957    23.892    22.334  0.9151 -0.4031  0.0000
 
              Baa    -0.0377   -20.100    -7.172    -6.705  0.0000  0.0000  1.0000
     9 H(1)   Bbb    -0.0274   -14.609    -5.213    -4.873  0.9917 -0.1285  0.0000
              Bcc     0.0651    34.709    12.385    11.578  0.1285  0.9917  0.0000
 
              Baa    -0.0681   -36.361   -12.974   -12.129  0.8233  0.5676  0.0000
    10 H(1)   Bbb    -0.0405   -21.613    -7.712    -7.209  0.0000  0.0000  1.0000
              Bcc     0.1087    57.974    20.687    19.338 -0.5676  0.8233 -0.0000
 

 ---------------------------------------------------------------------------------


 Test job not archived.
 1\1\GINC-SULU\Stability\UHF\Gen\H10(5)\LCJ1\23-Feb-2017\0\\#uhf/gen sc
 f(tight,novaracc,noincfock,fulldiag, ) stable(crhf) guess=read geom=no
 crowd test\\hf stability analysis of h10 triangular lattice, y= 0.5569
 7531375060216 alpha= 28.250000000000000\\0,5\H\H,1,1.1767423544\H,1,1.
 1767423544,2,123.5\H,2,1.1767423544,1,56.5,3,0.,0\H,3,1.1767423544,1,1
 80.,2,0.,0\H,4,1.1767423544,2,180.,1,0.,0\H,5,1.1767423544,3,180.,2,0.
 ,0\H,6,1.1767423544,4,180.,1,0.,0\H,7,1.1767423544,5,180.,2,0.,0\H,8,1
 .1767423544,6,180.,1,0.,0\\Version=ES64L-G09RevE.01\State=5-BU\HF=-4.6
 978801\MP2=-4.7492565\PUHF=-4.7027213\PMP2-0=-4.7530316\S2=6.090265\S2
 -1=6.050105\S2A=6.001231\RMSD=7.317e-09\Dipole=0.,0.,0.\Quadrupole=-1.
 875975,1.7773996,0.0985754,0.,0.7090133,0.\PG=C02H [SGH(H10)]\\@


 THE CAUTIOUS SELDOM ERR...CONFUCIUS                   
 Job cpu time:       0 days  0 hours  0 minutes  1.0 seconds.
 File lengths (MBytes):  RWF=     94 Int=      0 D2E=      0 Chk=      2 Scr=      2
 Normal termination of Gaussian 09 at Thu Feb 23 12:45:04 2017.
