 Entering Gaussian System, Link 0=g09
 AtFile(1): H.gbs
            H     0
            S   10   1.00
               1000.000000000000            0.000068713567
                316.227766000000            0.000169141320
                100.000000000000            0.000823394812
                 31.622776600000            0.003425569236
                 10.000000000000            0.013951996000
                  3.162277660000            0.056909313560
                  1.000000000000            0.198286399900
                  0.316227766000            0.496922426700
                  0.100000000000            0.369846276400
                  0.031622776600            0.003752720039
            ****
 Initial command:
 /projects/guscus/apps/gau/g09-e1/g09/l1.exe "/users/lcj1/gaussian/h10/2rows_uhf/ag2bu3/quintet/Gau-9903.inp" -scrdir="/users/lcj1/gaussian/h10/2rows_uhf/ag2bu3/quintet/"
 Entering Link 1 = /projects/guscus/apps/gau/g09-e1/g09/l1.exe PID=      9904.
  
 Copyright (c) 1988,1990,1992,1993,1995,1998,2003,2009,2015,
            Gaussian, Inc.  All Rights Reserved.
  
 This is part of the Gaussian(R) 09 program.  It is based on
 the Gaussian(R) 03 system (copyright 2003, Gaussian, Inc.),
 the Gaussian(R) 98 system (copyright 1998, Gaussian, Inc.),
 the Gaussian(R) 94 system (copyright 1995, Gaussian, Inc.),
 the Gaussian 92(TM) system (copyright 1992, Gaussian, Inc.),
 the Gaussian 90(TM) system (copyright 1990, Gaussian, Inc.),
 the Gaussian 88(TM) system (copyright 1988, Gaussian, Inc.),
 the Gaussian 86(TM) system (copyright 1986, Carnegie Mellon
 University), and the Gaussian 82(TM) system (copyright 1983,
 Carnegie Mellon University). Gaussian is a federally registered
 trademark of Gaussian, Inc.
  
 This software contains proprietary and confidential information,
 including trade secrets, belonging to Gaussian, Inc.
  
 This software is provided under written license and may be
 used, copied, transmitted, or stored only in accord with that
 written license.
  
 The following legend is applicable only to US Government
 contracts under FAR:
  
                    RESTRICTED RIGHTS LEGEND
  
 Use, reproduction and disclosure by the US Government is
 subject to restrictions as set forth in subparagraphs (a)
 and (c) of the Commercial Computer Software - Restricted
 Rights clause in FAR 52.227-19.
  
 Gaussian, Inc.
 340 Quinnipiac St., Bldg. 40, Wallingford CT 06492
  
  
 ---------------------------------------------------------------
 Warning -- This program may not be used in any manner that
 competes with the business of Gaussian, Inc. or will provide
 assistance to any competitor of Gaussian, Inc.  The licensee
 of this program is prohibited from giving any competitor of
 Gaussian, Inc. access to this program.  By using this program,
 the user acknowledges that Gaussian, Inc. is engaged in the
 business of creating and licensing software in the field of
 computational chemistry and represents and warrants to the
 licensee that it is not a competitor of Gaussian, Inc. and that
 it will not use this program in any manner prohibited above.
 ---------------------------------------------------------------
  

 Cite this work as:
 Gaussian 09, Revision E.01,
 M. J. Frisch, G. W. Trucks, H. B. Schlegel, G. E. Scuseria, 
 M. A. Robb, J. R. Cheeseman, G. Scalmani, V. Barone, B. Mennucci, 
 G. A. Petersson, H. Nakatsuji, M. Caricato, X. Li, H. P. Hratchian, 
 A. F. Izmaylov, J. Bloino, G. Zheng, J. L. Sonnenberg, M. Hada, 
 M. Ehara, K. Toyota, R. Fukuda, J. Hasegawa, M. Ishida, T. Nakajima, 
 Y. Honda, O. Kitao, H. Nakai, T. Vreven, J. A. Montgomery, Jr., 
 J. E. Peralta, F. Ogliaro, M. Bearpark, J. J. Heyd, E. Brothers, 
 K. N. Kudin, V. N. Staroverov, T. Keith, R. Kobayashi, J. Normand, 
 K. Raghavachari, A. Rendell, J. C. Burant, S. S. Iyengar, J. Tomasi, 
 M. Cossi, N. Rega, J. M. Millam, M. Klene, J. E. Knox, J. B. Cross, 
 V. Bakken, C. Adamo, J. Jaramillo, R. Gomperts, R. E. Stratmann, 
 O. Yazyev, A. J. Austin, R. Cammi, C. Pomelli, J. W. Ochterski, 
 R. L. Martin, K. Morokuma, V. G. Zakrzewski, G. A. Voth, 
 P. Salvador, J. J. Dannenberg, S. Dapprich, A. D. Daniels, 
 O. Farkas, J. B. Foresman, J. V. Ortiz, J. Cioslowski, 
 and D. J. Fox, Gaussian, Inc., Wallingford CT, 2013.
 
 ******************************************
 Gaussian 09:  ES64L-G09RevE.01 30-Nov-2015
                23-Feb-2017 
 ******************************************
 %chk=h10.chk
 ----------------------------------------------------------------------
 #uhf/gen scf(tight,novaracc,noincfock,fulldiag, ) stable(crhf) guess=r
 ead geom=nocrowd test
 ----------------------------------------------------------------------
 1/38=1/1;
 2/12=1,17=6,18=5,40=1/2;
 3/5=7,16=1,25=1,30=1,116=2/1,2,3;
 4/5=1/1;
 5/5=100002,16=1,32=2,38=6/2;
 8/6=1,10=90,11=11/1,4;
 9/8=4,13=1/2;
 6/7=2,8=2,9=2,10=2,28=1/1;
 99/5=1,9=1/99;
 ----------------------------------------------------------------------
 hf stability analysis of h10 triangular lattice, y= 0.4980454386758799
 1 alpha= 23.250000000000000
 ----------------------------------------------------------------------
 Symbolic Z-matrix:
 Charge =  0 Multiplicity = 5
 H
 H                    1     1.26169 
 H                    1     1.26169  2     133.5 
 H                    2     1.26169  1     46.5     3     0.       0
 H                    3     1.26169  1     180.     2     0.       0
 H                    4     1.26169  2     180.     1     0.       0
 H                    5     1.26169  3     180.     2     0.       0
 H                    6     1.26169  4     180.     1     0.       0
 H                    7     1.26169  5     180.     2     0.       0
 H                    8     1.26169  6     180.     1     0.       0
 
                          Input orientation:                          
 ---------------------------------------------------------------------
 Center     Atomic      Atomic             Coordinates (Angstroms)
 Number     Number       Type             X           Y           Z
 ---------------------------------------------------------------------
      1          1           0        0.000000    0.000000    0.000000
      2          1           0        0.000000    0.000000    1.261693
      3          1           0        0.915200    0.000000   -0.868492
      4          1           0        0.915200    0.000000    0.393201
      5          1           0        1.830399    0.000000   -1.736984
      6          1           0        1.830399    0.000000   -0.475291
      7          1           0        2.745599    0.000000   -2.605476
      8          1           0        2.745599    0.000000   -1.343783
      9          1           0        3.660798    0.000000   -3.473968
     10          1           0        3.660798    0.000000   -2.212275
 ---------------------------------------------------------------------
                    Distance matrix (angstroms):
                    1          2          3          4          5
     1  H    0.000000
     2  H    1.261693   0.000000
     3  H    1.261693   2.318464   0.000000
     4  H    0.996091   1.261693   1.261693   0.000000
     5  H    2.523385   3.513178   1.261693   2.318464   0.000000
     6  H    1.891101   2.523385   0.996091   1.261693   1.261693
     7  H    3.785078   4.742710   2.523385   3.513178   1.261693
     8  H    3.056806   3.785078   1.891101   2.523385   0.996091
     9  H    5.046771   5.985643   3.785078   4.742710   2.523385
    10  H    4.277336   5.046771   3.056806   3.785078   1.891101
                    6          7          8          9         10
     6  H    0.000000
     7  H    2.318464   0.000000
     8  H    1.261693   1.261693   0.000000
     9  H    3.513178   1.261693   2.318464   0.000000
    10  H    2.523385   0.996091   1.261693   1.261693   0.000000
 Stoichiometry    H10(5)
 Framework group  C2H[SGH(H10)]
 Deg. of freedom     9
 Full point group                 C2H     NOp   4
 Largest Abelian subgroup         C2H     NOp   4
 Largest concise Abelian subgroup C2      NOp   2
                         Standard orientation:                         
 ---------------------------------------------------------------------
 Center     Atomic      Atomic             Coordinates (Angstroms)
 Number     Number       Type             X           Y           Z
 ---------------------------------------------------------------------
      1          1           0        1.830399   -1.106137    0.000000
      2          1           0        1.830399   -2.367830    0.000000
      3          1           0        0.915200   -0.237646    0.000000
      4          1           0        0.915200   -1.499338    0.000000
      5          1           0        0.000000    0.630846   -0.000000
      6          1           0       -0.000000   -0.630846   -0.000000
      7          1           0       -0.915200    1.499338    0.000000
      8          1           0       -0.915200    0.237646    0.000000
      9          1           0       -1.830399    2.367830    0.000000
     10          1           0       -1.830399    1.106137    0.000000
 ---------------------------------------------------------------------
 Rotational constants (GHZ):    254.5943918     14.8151670     14.0004625
 General basis read from cards:  (5D, 7F)
 There are     5 symmetry adapted cartesian basis functions of AG  symmetry.
 There are     0 symmetry adapted cartesian basis functions of BG  symmetry.
 There are     0 symmetry adapted cartesian basis functions of AU  symmetry.
 There are     5 symmetry adapted cartesian basis functions of BU  symmetry.
 There are     5 symmetry adapted basis functions of AG  symmetry.
 There are     0 symmetry adapted basis functions of BG  symmetry.
 There are     0 symmetry adapted basis functions of AU  symmetry.
 There are     5 symmetry adapted basis functions of BU  symmetry.
    10 basis functions,   100 primitive gaussians,    10 cartesian basis functions
     7 alpha electrons        3 beta electrons
       nuclear repulsion energy        12.5904850729 Hartrees.
 NAtoms=   10 NActive=   10 NUniq=    5 SFac= 4.00D+00 NAtFMM=   60 NAOKFM=F Big=F
 Integral buffers will be    131072 words long.
 Regular integral format.
 Two-electron integral symmetry is turned on.
 One-electron integrals computed using PRISM.
 NBasis=    10 RedAO= T EigKep=  1.90D-01  NBF=     5     0     0     5
 NBsUse=    10 1.00D-06 EigRej= -1.00D+00 NBFU=     5     0     0     5
 Initial guess from the checkpoint file:  "h10.chk"
 B after Tr=    -0.000000    0.000000    0.000000
         Rot=    0.999992    0.000000   -0.000000   -0.003879 Ang=  -0.44 deg.
 Initial guess orbital symmetries:
 Alpha Orbitals:
       Occupied  (AG) (BU) (AG) (BU) (BU) (AG) (BU)
       Virtual   (AG) (BU) (AG)
 Beta  Orbitals:
       Occupied  (AG) (BU) (AG)
       Virtual   (BU) (BU) (AG) (AG) (BU) (BU) (AG)
 Initial guess <Sx>= 0.0000 <Sy>= 0.0000 <Sz>= 2.0000 <S**2>= 6.1528 S= 2.0304
 Keep R1 and R2 ints in memory in symmetry-blocked form, NReq=878179.
 Requested convergence on RMS density matrix=1.00D-08 within 128 cycles.
 Requested convergence on MAX density matrix=1.00D-06.
 Requested convergence on             energy=1.00D-06.
 No special actions if energy rises.
 SCF Done:  E(UHF) =  -4.72076596201     A.U. after   11 cycles
            NFock= 11  Conv=0.27D-08     -V/T= 1.8253
 <Sx>= 0.0000 <Sy>= 0.0000 <Sz>= 2.0000 <S**2>= 6.1587 S= 2.0315
 <L.S>= 0.000000000000E+00
 Annihilation of the first spin contaminant:
 S**2 before annihilation     6.1587,   after     6.0047
 Range of M.O.s used for correlation:     1    10
 NBasis=    10 NAE=     7 NBE=     3 NFC=     0 NFV=     0
 NROrb=     10 NOA=     7 NOB=     3 NVA=     3 NVB=     7
 Semi-Direct transformation.
 ModeAB=           4 MOrb=             7 LenV=     134108253
 LASXX=         1176 LTotXX=        1176 LenRXX=        3283
 LTotAB=        2107 MaxLAS=        2100 LenRXY=           0
 NonZer=        4459 LenScr=      655360 LnRSAI=        2100
 LnScr1=      655360 LExtra=           0 Total=      1316103
 MaxDsk=          -1 SrtSym=           T ITran=            3
 JobTyp=1 Pass  1:  I=   1 to   7.
 (rs|ai) integrals will be sorted in core.
 ModeAB=           4 MOrb=             3 LenV=     134108253
 LASXX=          573 LTotXX=         573 LenRXX=         609
 LTotAB=          36 MaxLAS=         900 LenRXY=           0
 NonZer=        1182 LenScr=      655360 LnRSAI=         900
 LnScr1=      655360 LExtra=           0 Total=      1312229
 MaxDsk=          -1 SrtSym=           T ITran=            3
 JobTyp=2 Pass  1:  I=   1 to   3.
 (rs|ai) integrals will be sorted in core.
 Spin components of T(2) and E(2):
     alpha-alpha T2 =       0.1350431608D-02 E2=     -0.1789350631D-02
     alpha-beta  T2 =       0.2672954480D-01 E2=     -0.4118335295D-01
     beta-beta   T2 =       0.1164311260D-02 E2=     -0.1905207415D-02
 ANorm=    0.1014516775D+01
 E2 =    -0.4487791099D-01 EUMP2 =    -0.47656438730048D+01
 (S**2,0)=  0.61587D+01           (S**2,1)=  0.60965D+01
 E(PUHF)=      -0.47290276343D+01        E(PMP2)=      -0.47723227496D+01
 Second order stability test of a single determinant UHF wave function:
 Stabil:  MDV=134217728
 ***********************************************************************
 Matrix         Lowest Root    Major Pairs
 ***********************************************************************
 Internal UHF     0.0064086    Stable
 RUHF --> CUHF (A)0.0486474    Stable
 RUHF --> CUHF (B)0.2489753    Stable

 RUHF --> GHF    -0.155578     7A=4B 7A=5B 6A=7B 4A=8B 4A=5B 3B=8A 5A=4B 3B=10A
 Not stable.
 ***********************************************************************

 **********************************************************************

            Population analysis using the SCF density.

 **********************************************************************

 Orbital symmetries:
 Alpha Orbitals:
       Occupied  (AG) (BU) (AG) (BU) (BU) (AG) (BU)
       Virtual   (AG) (BU) (AG)
 Beta  Orbitals:
       Occupied  (AG) (BU) (AG)
       Virtual   (BU) (BU) (AG) (AG) (BU) (BU) (AG)
 The electronic state is 5-BU.
 Alpha  occ. eigenvalues --   -0.89630  -0.78331  -0.65462  -0.49843  -0.36533
 Alpha  occ. eigenvalues --   -0.34655  -0.18471
 Alpha virt. eigenvalues --    0.12977   0.36065   0.44619
  Beta  occ. eigenvalues --   -0.75354  -0.66247  -0.46102
  Beta virt. eigenvalues --    0.02880   0.08337   0.20829   0.25122   0.38819
  Beta virt. eigenvalues --    0.44218   0.68717
          Condensed to atoms (all electrons):
               1          2          3          4          5          6
     1  H    1.467540  -0.313761  -0.174733   0.231744  -0.014697  -0.133833
     2  H   -0.313761   1.291852  -0.001895   0.050932   0.004761  -0.003322
     3  H   -0.174733  -0.001895   1.140912  -0.045052   0.138353   0.056774
     4  H    0.231744   0.050932  -0.045052   0.668828  -0.063465   0.069792
     5  H   -0.014697   0.004761   0.138353  -0.063465   1.114070  -0.128758
     6  H   -0.133833  -0.003322   0.056774   0.069792  -0.128758   1.114070
     7  H    0.001668   0.000429   0.002178  -0.000489   0.069792  -0.063465
     8  H    0.021637  -0.005340  -0.196887   0.002178   0.056774   0.138353
     9  H    0.000202  -0.000026  -0.005340   0.000429  -0.003322   0.004761
    10  H   -0.001779   0.000202   0.021637   0.001668  -0.133833  -0.014697
               7          8          9         10
     1  H    0.001668   0.021637   0.000202  -0.001779
     2  H    0.000429  -0.005340  -0.000026   0.000202
     3  H    0.002178  -0.196887  -0.005340   0.021637
     4  H   -0.000489   0.002178   0.000429   0.001668
     5  H    0.069792   0.056774  -0.003322  -0.133833
     6  H   -0.063465   0.138353   0.004761  -0.014697
     7  H    0.668828  -0.045052   0.050932   0.231744
     8  H   -0.045052   1.140912  -0.001895  -0.174733
     9  H    0.050932  -0.001895   1.291852  -0.313761
    10  H    0.231744  -0.174733  -0.313761   1.467540
          Atomic-Atomic Spin Densities.
               1          2          3          4          5          6
     1  H    1.264860  -0.360194  -0.164626  -0.039978   0.006776  -0.103318
     2  H   -0.360194   1.243597   0.003089  -0.043792   0.007922   0.007090
     3  H   -0.164626   0.003089   0.966304  -0.065808   0.037358  -0.102140
     4  H   -0.039978  -0.043792  -0.065808  -0.327283  -0.017163   0.138790
     5  H    0.006776   0.007922   0.037358  -0.017163   0.692519  -0.317535
     6  H   -0.103318   0.007090  -0.102140   0.138790  -0.317535   0.692519
     7  H   -0.000390   0.000107   0.025712  -0.004483   0.138790  -0.017163
     8  H    0.028048  -0.004150  -0.222362   0.025712  -0.102140   0.037358
     9  H    0.000085  -0.000040  -0.004150   0.000107   0.007090   0.007922
    10  H   -0.002412   0.000085   0.028048  -0.000390  -0.103318   0.006776
               7          8          9         10
     1  H   -0.000390   0.028048   0.000085  -0.002412
     2  H    0.000107  -0.004150  -0.000040   0.000085
     3  H    0.025712  -0.222362  -0.004150   0.028048
     4  H   -0.004483   0.025712   0.000107  -0.000390
     5  H    0.138790  -0.102140   0.007090  -0.103318
     6  H   -0.017163   0.037358   0.007922   0.006776
     7  H   -0.327283  -0.065808  -0.043792  -0.039978
     8  H   -0.065808   0.966304   0.003089  -0.164626
     9  H   -0.043792   0.003089   1.243597  -0.360194
    10  H   -0.039978  -0.164626  -0.360194   1.264860
 Mulliken charges and spin densities:
               1          2
     1  H   -0.083986   0.628851
     2  H   -0.023832   0.853714
     3  H    0.064054   0.501425
     4  H    0.083437  -0.334288
     5  H   -0.039673   0.350297
     6  H   -0.039673   0.350297
     7  H    0.083437  -0.334288
     8  H    0.064054   0.501425
     9  H   -0.023832   0.853714
    10  H   -0.083986   0.628851
 Sum of Mulliken charges =  -0.00000   4.00000
 Mulliken charges and spin densities with hydrogens summed into heavy atoms:
               1          2
 Electronic spatial extent (au):  <R**2>=            161.9189
 Charge=              0.0000 electrons
 Dipole moment (field-independent basis, Debye):
    X=             -0.0000    Y=              0.0000    Z=             -0.0000  Tot=              0.0000
 Quadrupole moment (field-independent basis, Debye-Ang):
   XX=            -16.5150   YY=            -16.6472   ZZ=            -12.5877
   XY=              2.6920   XZ=              0.0000   YZ=             -0.0000
 Traceless Quadrupole moment (field-independent basis, Debye-Ang):
   XX=             -1.2650   YY=             -1.3973   ZZ=              2.6623
   XY=              2.6920   XZ=              0.0000   YZ=             -0.0000
 Octapole moment (field-independent basis, Debye-Ang**2):
  XXX=             -0.0000  YYY=              0.0000  ZZZ=             -0.0000  XYY=             -0.0000
  XXY=              0.0000  XXZ=             -0.0000  XZZ=             -0.0000  YZZ=              0.0000
  YYZ=             -0.0000  XYZ=              0.0000
 Hexadecapole moment (field-independent basis, Debye-Ang**3):
 XXXX=           -164.0501 YYYY=           -210.9761 ZZZZ=            -15.0107 XXXY=             76.5561
 XXXZ=              0.0000 YYYX=             89.3062 YYYZ=             -0.0000 ZZZX=              0.0000
 ZZZY=             -0.0000 XXYY=            -70.6070 XXZZ=            -27.0846 YYZZ=            -30.9061
 XXYZ=             -0.0000 YYXZ=              0.0000 ZZXY=             20.9144
 N-N= 1.259048507285D+01 E-N=-3.473595827377D+01  KE= 5.719731652956D+00
 Symmetry AG   KE= 2.401922271135D+00
 Symmetry BG   KE= 0.000000000000D+00
 Symmetry AU   KE= 0.000000000000D+00
 Symmetry BU   KE= 3.317809381821D+00
                          Isotropic Fermi Contact Couplings
        Atom                 a.u.       MegaHertz       Gauss      10(-4) cm-1
     1  H(1)               0.32229     360.15399     128.51190     120.13444
     2  H(1)               0.34248     382.71182     136.56109     127.65892
     3  H(1)               0.25204     281.65246     100.50060      93.94915
     4  H(1)              -0.10149    -113.40658     -40.46629     -37.82836
     5  H(1)               0.17837     199.31755      71.12146      66.48518
     6  H(1)               0.17837     199.31755      71.12146      66.48518
     7  H(1)              -0.10149    -113.40658     -40.46629     -37.82836
     8  H(1)               0.25204     281.65246     100.50060      93.94915
     9  H(1)               0.34248     382.71182     136.56109     127.65892
    10  H(1)               0.32229     360.15399     128.51190     120.13444
 --------------------------------------------------------
       Center         ----  Spin Dipole Couplings  ----
                      3XX-RR        3YY-RR        3ZZ-RR
 --------------------------------------------------------
     1   Atom       -0.047356      0.079162     -0.031806
     2   Atom       -0.030689      0.042576     -0.011887
     3   Atom        0.081311     -0.007795     -0.073516
     4   Atom        0.104965      0.056163     -0.161128
     5   Atom        0.111773     -0.022034     -0.089739
     6   Atom        0.111773     -0.022034     -0.089739
     7   Atom        0.104965      0.056163     -0.161128
     8   Atom        0.081311     -0.007795     -0.073516
     9   Atom       -0.030689      0.042576     -0.011887
    10   Atom       -0.047356      0.079162     -0.031806
 --------------------------------------------------------
                        XY            XZ            YZ
 --------------------------------------------------------
     1   Atom       -0.079503      0.000000     -0.000000
     2   Atom        0.021346     -0.000000      0.000000
     3   Atom       -0.037399      0.000000      0.000000
     4   Atom       -0.045530      0.000000     -0.000000
     5   Atom        0.001446     -0.000000     -0.000000
     6   Atom        0.001446      0.000000     -0.000000
     7   Atom       -0.045530     -0.000000      0.000000
     8   Atom       -0.037399     -0.000000      0.000000
     9   Atom        0.021346      0.000000      0.000000
    10   Atom       -0.079503      0.000000     -0.000000
 --------------------------------------------------------


 ---------------------------------------------------------------------------------
              Anisotropic Spin Dipole Couplings in Principal Axis System
 ---------------------------------------------------------------------------------

       Atom             a.u.   MegaHertz   Gauss  10(-4) cm-1        Axes

              Baa    -0.0857   -45.724   -16.315   -15.252  0.9007  0.4344  0.0000
     1 H(1)   Bbb    -0.0318   -16.970    -6.055    -5.661  0.0000  0.0000  1.0000
              Bcc     0.1175    62.694    22.371    20.912 -0.4344  0.9007  0.0000
 
              Baa    -0.0365   -19.450    -6.940    -6.488  0.9654 -0.2608  0.0000
     2 H(1)   Bbb    -0.0119    -6.342    -2.263    -2.116  0.0000  0.0000  1.0000
              Bcc     0.0483    25.793     9.203     8.604  0.2608  0.9654  0.0000
 
              Baa    -0.0735   -39.224   -13.996   -13.084  0.0000  0.0000  1.0000
     3 H(1)   Bbb    -0.0214   -11.424    -4.076    -3.811  0.3421  0.9397 -0.0000
              Bcc     0.0949    50.649    18.073    16.895  0.9397 -0.3421  0.0000
 
              Baa    -0.1611   -85.970   -30.676   -28.677  0.0000  0.0000  1.0000
     4 H(1)   Bbb     0.0289    15.424     5.504     5.145  0.5136  0.8580  0.0000
              Bcc     0.1322    70.547    25.173    23.532  0.8580 -0.5136  0.0000
 
              Baa    -0.0897   -47.880   -17.085   -15.971  0.0000  0.0000  1.0000
     5 H(1)   Bbb    -0.0220   -11.765    -4.198    -3.924 -0.0108  0.9999 -0.0000
              Bcc     0.1118    59.645    21.283    19.895  0.9999  0.0108  0.0000
 
              Baa    -0.0897   -47.880   -17.085   -15.971  0.0000  0.0000  1.0000
     6 H(1)   Bbb    -0.0220   -11.765    -4.198    -3.924 -0.0108  0.9999  0.0000
              Bcc     0.1118    59.645    21.283    19.895  0.9999  0.0108  0.0000
 
              Baa    -0.1611   -85.970   -30.676   -28.677  0.0000  0.0000  1.0000
     7 H(1)   Bbb     0.0289    15.424     5.504     5.145  0.5136  0.8580  0.0000
              Bcc     0.1322    70.547    25.173    23.532  0.8580 -0.5136  0.0000
 
              Baa    -0.0735   -39.224   -13.996   -13.084  0.0000  0.0000  1.0000
     8 H(1)   Bbb    -0.0214   -11.424    -4.076    -3.811  0.3421  0.9397  0.0000
              Bcc     0.0949    50.649    18.073    16.895  0.9397 -0.3421  0.0000
 
              Baa    -0.0365   -19.450    -6.940    -6.488  0.9654 -0.2608  0.0000
     9 H(1)   Bbb    -0.0119    -6.342    -2.263    -2.116  0.0000  0.0000  1.0000
              Bcc     0.0483    25.793     9.203     8.604  0.2608  0.9654  0.0000
 
              Baa    -0.0857   -45.724   -16.315   -15.252  0.9007  0.4344  0.0000
    10 H(1)   Bbb    -0.0318   -16.970    -6.055    -5.661  0.0000  0.0000  1.0000
              Bcc     0.1175    62.694    22.371    20.912 -0.4344  0.9007  0.0000
 

 ---------------------------------------------------------------------------------


 Test job not archived.
 1\1\GINC-SULU\Stability\UHF\Gen\H10(5)\LCJ1\23-Feb-2017\0\\#uhf/gen sc
 f(tight,novaracc,noincfock,fulldiag, ) stable(crhf) guess=read geom=no
 crowd test\\hf stability analysis of h10 triangular lattice, y= 0.4980
 4543867587991 alpha= 23.250000000000000\\0,5\H\H,1,1.2616926585\H,1,1.
 2616926585,2,133.5\H,2,1.2616926585,1,46.5,3,0.,0\H,3,1.2616926585,1,1
 80.,2,0.,0\H,4,1.2616926585,2,180.,1,0.,0\H,5,1.2616926585,3,180.,2,0.
 ,0\H,6,1.2616926585,4,180.,1,0.,0\H,7,1.2616926585,5,180.,2,0.,0\H,8,1
 .2616926585,6,180.,1,0.,0\\Version=ES64L-G09RevE.01\State=5-BU\HF=-4.7
 20766\MP2=-4.7656439\PUHF=-4.7290276\PMP2-0=-4.7723227\S2=6.15868\S2-1
 =6.096531\S2A=6.004694\RMSD=2.732e-09\Dipole=0.,0.,0.\Quadrupole=-0.94
 05173,1.9793392,-1.0388219,0.,2.0014307,0.\PG=C02H [SGH(H10)]\\@


 EDUCATION WITHOUT COMMON SENSE IS A LOAD OF BOOKS ON THE BACK OF AN ASS.
 Job cpu time:       0 days  0 hours  0 minutes  1.0 seconds.
 File lengths (MBytes):  RWF=     94 Int=      0 D2E=      0 Chk=      2 Scr=      2
 Normal termination of Gaussian 09 at Thu Feb 23 12:44:14 2017.
