 Entering Gaussian System, Link 0=g09
 AtFile(1): H.gbs
            H     0
            S   10   1.00
               1000.000000000000            0.000068713567
                316.227766000000            0.000169141320
                100.000000000000            0.000823394812
                 31.622776600000            0.003425569236
                 10.000000000000            0.013951996000
                  3.162277660000            0.056909313560
                  1.000000000000            0.198286399900
                  0.316227766000            0.496922426700
                  0.100000000000            0.369846276400
                  0.031622776600            0.003752720039
            ****
 Initial command:
 /projects/guscus/apps/gau/g09-e1/g09/l1.exe "/users/lcj1/gaussian/h10/2rows_uhf/ag2bu3/quintet/Gau-17832.inp" -scrdir="/users/lcj1/gaussian/h10/2rows_uhf/ag2bu3/quintet/"
 Entering Link 1 = /projects/guscus/apps/gau/g09-e1/g09/l1.exe PID=     17833.
  
 Copyright (c) 1988,1990,1992,1993,1995,1998,2003,2009,2015,
            Gaussian, Inc.  All Rights Reserved.
  
 This is part of the Gaussian(R) 09 program.  It is based on
 the Gaussian(R) 03 system (copyright 2003, Gaussian, Inc.),
 the Gaussian(R) 98 system (copyright 1998, Gaussian, Inc.),
 the Gaussian(R) 94 system (copyright 1995, Gaussian, Inc.),
 the Gaussian 92(TM) system (copyright 1992, Gaussian, Inc.),
 the Gaussian 90(TM) system (copyright 1990, Gaussian, Inc.),
 the Gaussian 88(TM) system (copyright 1988, Gaussian, Inc.),
 the Gaussian 86(TM) system (copyright 1986, Carnegie Mellon
 University), and the Gaussian 82(TM) system (copyright 1983,
 Carnegie Mellon University). Gaussian is a federally registered
 trademark of Gaussian, Inc.
  
 This software contains proprietary and confidential information,
 including trade secrets, belonging to Gaussian, Inc.
  
 This software is provided under written license and may be
 used, copied, transmitted, or stored only in accord with that
 written license.
  
 The following legend is applicable only to US Government
 contracts under FAR:
  
                    RESTRICTED RIGHTS LEGEND
  
 Use, reproduction and disclosure by the US Government is
 subject to restrictions as set forth in subparagraphs (a)
 and (c) of the Commercial Computer Software - Restricted
 Rights clause in FAR 52.227-19.
  
 Gaussian, Inc.
 340 Quinnipiac St., Bldg. 40, Wallingford CT 06492
  
  
 ---------------------------------------------------------------
 Warning -- This program may not be used in any manner that
 competes with the business of Gaussian, Inc. or will provide
 assistance to any competitor of Gaussian, Inc.  The licensee
 of this program is prohibited from giving any competitor of
 Gaussian, Inc. access to this program.  By using this program,
 the user acknowledges that Gaussian, Inc. is engaged in the
 business of creating and licensing software in the field of
 computational chemistry and represents and warrants to the
 licensee that it is not a competitor of Gaussian, Inc. and that
 it will not use this program in any manner prohibited above.
 ---------------------------------------------------------------
  

 Cite this work as:
 Gaussian 09, Revision E.01,
 M. J. Frisch, G. W. Trucks, H. B. Schlegel, G. E. Scuseria, 
 M. A. Robb, J. R. Cheeseman, G. Scalmani, V. Barone, B. Mennucci, 
 G. A. Petersson, H. Nakatsuji, M. Caricato, X. Li, H. P. Hratchian, 
 A. F. Izmaylov, J. Bloino, G. Zheng, J. L. Sonnenberg, M. Hada, 
 M. Ehara, K. Toyota, R. Fukuda, J. Hasegawa, M. Ishida, T. Nakajima, 
 Y. Honda, O. Kitao, H. Nakai, T. Vreven, J. A. Montgomery, Jr., 
 J. E. Peralta, F. Ogliaro, M. Bearpark, J. J. Heyd, E. Brothers, 
 K. N. Kudin, V. N. Staroverov, T. Keith, R. Kobayashi, J. Normand, 
 K. Raghavachari, A. Rendell, J. C. Burant, S. S. Iyengar, J. Tomasi, 
 M. Cossi, N. Rega, J. M. Millam, M. Klene, J. E. Knox, J. B. Cross, 
 V. Bakken, C. Adamo, J. Jaramillo, R. Gomperts, R. E. Stratmann, 
 O. Yazyev, A. J. Austin, R. Cammi, C. Pomelli, J. W. Ochterski, 
 R. L. Martin, K. Morokuma, V. G. Zakrzewski, G. A. Voth, 
 P. Salvador, J. J. Dannenberg, S. Dapprich, A. D. Daniels, 
 O. Farkas, J. B. Foresman, J. V. Ortiz, J. Cioslowski, 
 and D. J. Fox, Gaussian, Inc., Wallingford CT, 2013.
 
 ******************************************
 Gaussian 09:  ES64L-G09RevE.01 30-Nov-2015
                23-Feb-2017 
 ******************************************
 %chk=h10.chk
 ----------------------------------------------------------------------
 #uhf/gen scf(tight,novaracc,noincfock,fulldiag, ) stable(crhf) guess=r
 ead geom=nocrowd test
 ----------------------------------------------------------------------
 1/38=1/1;
 2/12=1,17=6,18=5,40=1/2;
 3/5=7,16=1,25=1,30=1,116=2/1,2,3;
 4/5=1/1;
 5/5=100002,16=1,32=2,38=6/2;
 8/6=1,10=90,11=11/1,4;
 9/8=4,13=1/2;
 6/7=2,8=2,9=2,10=2,28=1/1;
 99/5=1,9=1/99;
 ----------------------------------------------------------------------
 hf stability analysis of h10 triangular lattice, y= 1.0475506882612993
  alpha= 62.250000000000000
 ----------------------------------------------------------------------
 Symbolic Z-matrix:
 Charge =  0 Multiplicity = 5
 H
 H                    1     1.18369 
 H                    1     1.18369  2     55.5 
 H                    2     1.18369  1     124.5    3     0.       0
 H                    3     1.18369  1     180.     2     0.       0
 H                    4     1.18369  2     180.     1     0.       0
 H                    5     1.18369  3     180.     2     0.       0
 H                    6     1.18369  4     180.     1     0.       0
 H                    7     1.18369  5     180.     2     0.       0
 H                    8     1.18369  6     180.     1     0.       0
 
                          Input orientation:                          
 ---------------------------------------------------------------------
 Center     Atomic      Atomic             Coordinates (Angstroms)
 Number     Number       Type             X           Y           Z
 ---------------------------------------------------------------------
      1          1           0        0.000000    0.000000    0.000000
      2          1           0        0.000000    0.000000    1.183690
      3          1           0        0.975510    0.000000    0.670449
      4          1           0        0.975510    0.000000    1.854139
      5          1           0        1.951019    0.000000    1.340898
      6          1           0        1.951019    0.000000    2.524588
      7          1           0        2.926529    0.000000    2.011348
      8          1           0        2.926529    0.000000    3.195037
      9          1           0        3.902038    0.000000    2.681797
     10          1           0        3.902038    0.000000    3.865486
 ---------------------------------------------------------------------
                    Distance matrix (angstroms):
                    1          2          3          4          5
     1  H    0.000000
     2  H    1.183690   0.000000
     3  H    1.183690   1.102286   0.000000
     4  H    2.095101   1.183690   1.183690   0.000000
     5  H    2.367379   1.957343   1.183690   1.102286   0.000000
     6  H    3.190614   2.367379   2.095101   1.183690   1.183690
     7  H    3.551069   3.041314   2.367379   1.957343   1.183690
     8  H    4.332763   3.551069   3.190614   2.367379   2.095101
     9  H    4.734758   4.179740   3.551069   3.041314   2.367379
    10  H    5.492530   4.734758   4.332763   3.551069   3.190614
                    6          7          8          9         10
     6  H    0.000000
     7  H    1.102286   0.000000
     8  H    1.183690   1.183690   0.000000
     9  H    1.957343   1.183690   1.102286   0.000000
    10  H    2.367379   2.095101   1.183690   1.183690   0.000000
 Stoichiometry    H10(5)
 Framework group  C2H[SGH(H10)]
 Deg. of freedom     9
 Full point group                 C2H     NOp   4
 Largest Abelian subgroup         C2H     NOp   4
 Largest concise Abelian subgroup C2      NOp   2
                         Standard orientation:                         
 ---------------------------------------------------------------------
 Center     Atomic      Atomic             Coordinates (Angstroms)
 Number     Number       Type             X           Y           Z
 ---------------------------------------------------------------------
      1          1           0        1.951019    1.932743    0.000000
      2          1           0        1.951019    0.749054    0.000000
      3          1           0        0.975510    1.262294    0.000000
      4          1           0        0.975510    0.078604    0.000000
      5          1           0        0.000000    0.591845    0.000000
      6          1           0       -0.000000   -0.591845   -0.000000
      7          1           0       -0.975510   -0.078604   -0.000000
      8          1           0       -0.975510   -1.262294   -0.000000
      9          1           0       -1.951019   -0.749054   -0.000000
     10          1           0       -1.951019   -1.932743   -0.000000
 ---------------------------------------------------------------------
 Rotational constants (GHZ):    219.9809572     17.1462930     15.9064719
 General basis read from cards:  (5D, 7F)
 There are     5 symmetry adapted cartesian basis functions of AG  symmetry.
 There are     0 symmetry adapted cartesian basis functions of BG  symmetry.
 There are     0 symmetry adapted cartesian basis functions of AU  symmetry.
 There are     5 symmetry adapted cartesian basis functions of BU  symmetry.
 There are     5 symmetry adapted basis functions of AG  symmetry.
 There are     0 symmetry adapted basis functions of BG  symmetry.
 There are     0 symmetry adapted basis functions of AU  symmetry.
 There are     5 symmetry adapted basis functions of BU  symmetry.
    10 basis functions,   100 primitive gaussians,    10 cartesian basis functions
     7 alpha electrons        3 beta electrons
       nuclear repulsion energy        13.0269651074 Hartrees.
 NAtoms=   10 NActive=   10 NUniq=    5 SFac= 4.00D+00 NAtFMM=   60 NAOKFM=F Big=F
 Integral buffers will be    131072 words long.
 Regular integral format.
 Two-electron integral symmetry is turned on.
 One-electron integrals computed using PRISM.
 NBasis=    10 RedAO= T EigKep=  1.95D-01  NBF=     5     0     0     5
 NBsUse=    10 1.00D-06 EigRej= -1.00D+00 NBFU=     5     0     0     5
 Initial guess from the checkpoint file:  "h10.chk"
 B after Tr=    -0.000000   -0.000000   -0.000000
         Rot=    0.999992   -0.000000   -0.000000   -0.003879 Ang=  -0.44 deg.
 Initial guess orbital symmetries:
 Alpha Orbitals:
       Occupied  (AG) (BU) (AG) (BU) (BU) (AG) (BU)
       Virtual   (AG) (AG) (BU)
 Beta  Orbitals:
       Occupied  (AG) (BU) (AG)
       Virtual   (BU) (BU) (AG) (AG) (BU) (BU) (AG)
 Initial guess <Sx>= 0.0000 <Sy>= 0.0000 <Sz>= 2.0000 <S**2>= 6.0963 S= 2.0192
 Keep R1 and R2 ints in memory in symmetry-blocked form, NReq=878739.
 Requested convergence on RMS density matrix=1.00D-08 within 128 cycles.
 Requested convergence on MAX density matrix=1.00D-06.
 Requested convergence on             energy=1.00D-06.
 No special actions if energy rises.
 SCF Done:  E(UHF) =  -4.69711282538     A.U. after   11 cycles
            NFock= 11  Conv=0.12D-08     -V/T= 1.8274
 <Sx>= 0.0000 <Sy>= 0.0000 <Sz>= 2.0000 <S**2>= 6.1022 S= 2.0204
 <L.S>= 0.000000000000E+00
 Annihilation of the first spin contaminant:
 S**2 before annihilation     6.1022,   after     6.0016
 Range of M.O.s used for correlation:     1    10
 NBasis=    10 NAE=     7 NBE=     3 NFC=     0 NFV=     0
 NROrb=     10 NOA=     7 NOB=     3 NVA=     3 NVB=     7
 Semi-Direct transformation.
 ModeAB=           4 MOrb=             7 LenV=     134107161
 LASXX=         1176 LTotXX=        1176 LenRXX=        3283
 LTotAB=        2107 MaxLAS=        2100 LenRXY=           0
 NonZer=        4459 LenScr=      655360 LnRSAI=        2100
 LnScr1=      655360 LExtra=           0 Total=      1316103
 MaxDsk=          -1 SrtSym=           T ITran=            3
 JobTyp=1 Pass  1:  I=   1 to   7.
 (rs|ai) integrals will be sorted in core.
 ModeAB=           4 MOrb=             3 LenV=     134107161
 LASXX=          573 LTotXX=         573 LenRXX=         609
 LTotAB=          36 MaxLAS=         900 LenRXY=           0
 NonZer=        1182 LenScr=      655360 LnRSAI=         900
 LnScr1=      655360 LExtra=           0 Total=      1312229
 MaxDsk=          -1 SrtSym=           T ITran=            3
 JobTyp=2 Pass  1:  I=   1 to   3.
 (rs|ai) integrals will be sorted in core.
 Spin components of T(2) and E(2):
     alpha-alpha T2 =       0.3150668343D-02 E2=     -0.4167204201D-02
     alpha-beta  T2 =       0.2903987867D-01 E2=     -0.4374681829D-01
     beta-beta   T2 =       0.1511224553D-02 E2=     -0.2465347179D-02
 ANorm=    0.1016711253D+01
 E2 =    -0.5037936967D-01 EUMP2 =    -0.47474921950451D+01
 (S**2,0)=  0.61022D+01           (S**2,1)=  0.60577D+01
 E(PUHF)=      -0.47025421870D+01        E(PMP2)=      -0.47517537536D+01
 Second order stability test of a single determinant UHF wave function:
 Stabil:  MDV=134217728
 ***********************************************************************
 Matrix         Lowest Root    Major Pairs
 ***********************************************************************
 Internal UHF     0.0031648    Stable
 RUHF --> CUHF (A)0.039166     Stable
 RUHF --> CUHF (B)0.1930867    Stable
 RUHF --> GHF    -0.1686678    7A=4B
 Not stable.
 ***********************************************************************

 **********************************************************************

            Population analysis using the SCF density.

 **********************************************************************

 Orbital symmetries:
 Alpha Orbitals:
       Occupied  (AG) (BU) (AG) (BU) (BU) (AG) (BU)
       Virtual   (AG) (AG) (BU)
 Beta  Orbitals:
       Occupied  (AG) (BU) (AG)
       Virtual   (BU) (BU) (AG) (AG) (BU) (BU) (AG)
 The electronic state is 5-BU.
 Alpha  occ. eigenvalues --   -0.92304  -0.80294  -0.64694  -0.48974  -0.40757
 Alpha  occ. eigenvalues --   -0.35677  -0.15185
 Alpha virt. eigenvalues --    0.15325   0.39369   0.44130
  Beta  occ. eigenvalues --   -0.77266  -0.65588  -0.44783
  Beta virt. eigenvalues --    0.01951   0.03778   0.17714   0.27491   0.40109
  Beta virt. eigenvalues --    0.54477   0.67323
          Condensed to atoms (all electrons):
               1          2          3          4          5          6
     1  H    1.078494  -0.247206   0.232708  -0.043084  -0.042297   0.010778
     2  H   -0.247206   1.677951  -0.097966  -0.127869  -0.061058  -0.062051
     3  H    0.232708  -0.097966   0.752656   0.047893   0.112861  -0.058826
     4  H   -0.043084  -0.127869   0.047893   1.070100  -0.047823   0.174002
     5  H   -0.042297  -0.061058   0.112861  -0.047823   1.108443  -0.104768
     6  H    0.010778  -0.062051  -0.058826   0.174002  -0.104768   1.108443
     7  H   -0.006340   0.030789  -0.038648  -0.140594   0.174002  -0.047823
     8  H    0.001268   0.004526  -0.003052  -0.038648  -0.058826   0.112861
     9  H    0.000605  -0.003612   0.004526   0.030789  -0.062051  -0.061058
    10  H   -0.000145   0.000605   0.001268  -0.006340   0.010778  -0.042297
               7          8          9         10
     1  H   -0.006340   0.001268   0.000605  -0.000145
     2  H    0.030789   0.004526  -0.003612   0.000605
     3  H   -0.038648  -0.003052   0.004526   0.001268
     4  H   -0.140594  -0.038648   0.030789  -0.006340
     5  H    0.174002  -0.058826  -0.062051   0.010778
     6  H   -0.047823   0.112861  -0.061058  -0.042297
     7  H    1.070100   0.047893  -0.127869  -0.043084
     8  H    0.047893   0.752656  -0.097966   0.232708
     9  H   -0.127869  -0.097966   1.677951  -0.247206
    10  H   -0.043084   0.232708  -0.247206   1.078494
          Atomic-Atomic Spin Densities.
               1          2          3          4          5          6
     1  H    0.940506  -0.327274   0.069587  -0.038605  -0.020953   0.019520
     2  H   -0.327274   1.505197  -0.305232  -0.126561  -0.028938  -0.034871
     3  H    0.069587  -0.305232  -0.097996  -0.005301   0.186168  -0.001049
     4  H   -0.038605  -0.126561  -0.005301   0.906632  -0.184266   0.077464
     5  H   -0.020953  -0.028938   0.186168  -0.184266   0.640261  -0.333644
     6  H    0.019520  -0.034871  -0.001049   0.077464  -0.333644   0.640261
     7  H   -0.003837   0.036633  -0.013018  -0.153962   0.077464  -0.184266
     8  H    0.000384   0.002013  -0.006726  -0.013018  -0.001049   0.186168
     9  H    0.000290  -0.004347   0.002013   0.036633  -0.034871  -0.028938
    10  H   -0.000232   0.000290   0.000384  -0.003837   0.019520  -0.020953
               7          8          9         10
     1  H   -0.003837   0.000384   0.000290  -0.000232
     2  H    0.036633   0.002013  -0.004347   0.000290
     3  H   -0.013018  -0.006726   0.002013   0.000384
     4  H   -0.153962  -0.013018   0.036633  -0.003837
     5  H    0.077464  -0.001049  -0.034871   0.019520
     6  H   -0.184266   0.186168  -0.028938  -0.020953
     7  H    0.906632  -0.005301  -0.126561  -0.038605
     8  H   -0.005301  -0.097996  -0.305232   0.069587
     9  H   -0.126561  -0.305232   1.505197  -0.327274
    10  H   -0.038605   0.069587  -0.327274   0.940506
 Mulliken charges and spin densities:
               1          2
     1  H    0.015220   0.639387
     2  H   -0.114109   0.716911
     3  H    0.046579  -0.171170
     4  H    0.081573   0.495179
     5  H   -0.029263   0.319692
     6  H   -0.029263   0.319692
     7  H    0.081573   0.495179
     8  H    0.046579  -0.171170
     9  H   -0.114109   0.716911
    10  H    0.015220   0.639387
 Sum of Mulliken charges =   0.00000   4.00000
 Mulliken charges and spin densities with hydrogens summed into heavy atoms:
               1          2
 Electronic spatial extent (au):  <R**2>=            146.0167
 Charge=              0.0000 electrons
 Dipole moment (field-independent basis, Debye):
    X=             -0.0000    Y=             -0.0000    Z=              0.0000  Tot=              0.0000
 Quadrupole moment (field-independent basis, Debye-Ang):
   XX=            -17.4704   YY=            -14.9003   ZZ=            -12.6046
   XY=             -1.0294   XZ=             -0.0000   YZ=             -0.0000
 Traceless Quadrupole moment (field-independent basis, Debye-Ang):
   XX=             -2.4786   YY=              0.0915   ZZ=              2.3871
   XY=             -1.0294   XZ=             -0.0000   YZ=             -0.0000
 Octapole moment (field-independent basis, Debye-Ang**2):
  XXX=              0.0000  YYY=             -0.0000  ZZZ=              0.0000  XYY=              0.0000
  XXY=              0.0000  XXZ=              0.0000  XZZ=              0.0000  YZZ=             -0.0000
  YYZ=              0.0000  XYZ=              0.0000
 Hexadecapole moment (field-independent basis, Debye-Ang**3):
 XXXX=           -194.3453 YYYY=           -131.7933 ZZZZ=            -15.0177 XXXY=            -57.6583
 XXXZ=             -0.0000 YYYX=            -59.6286 YYYZ=             -0.0000 ZZZX=             -0.0000
 ZZZY=             -0.0000 XXYY=            -52.0143 XXZZ=            -30.4158 YYZZ=            -22.2618
 XXYZ=             -0.0000 YYXZ=             -0.0000 ZZXY=            -17.1729
 N-N= 1.302696510744D+01 E-N=-3.546967303892D+01  KE= 5.676739031434D+00
 Symmetry AG   KE= 2.368527242196D+00
 Symmetry BG   KE= 0.000000000000D+00
 Symmetry AU   KE= 0.000000000000D+00
 Symmetry BU   KE= 3.308211789238D+00
                          Isotropic Fermi Contact Couplings
        Atom                 a.u.       MegaHertz       Gauss      10(-4) cm-1
     1  H(1)               0.25859     288.96264     103.10905      96.38756
     2  H(1)               0.37256     416.32325     148.55448     138.87049
     3  H(1)              -0.03895     -43.52785     -15.53182     -14.51933
     4  H(1)               0.24004     268.23507      95.71294      89.47359
     5  H(1)               0.16297     182.11883      64.98453      60.74830
     6  H(1)               0.16297     182.11883      64.98453      60.74830
     7  H(1)               0.24004     268.23507      95.71294      89.47359
     8  H(1)              -0.03895     -43.52785     -15.53182     -14.51933
     9  H(1)               0.37256     416.32325     148.55448     138.87049
    10  H(1)               0.25859     288.96264     103.10905      96.38756
 --------------------------------------------------------
       Center         ----  Spin Dipole Couplings  ----
                      3XX-RR        3YY-RR        3ZZ-RR
 --------------------------------------------------------
     1   Atom       -0.028260      0.063264     -0.035005
     2   Atom       -0.016463      0.054925     -0.038463
     3   Atom        0.098875      0.055077     -0.153952
     4   Atom        0.096820     -0.012436     -0.084384
     5   Atom        0.118522     -0.021862     -0.096661
     6   Atom        0.118522     -0.021862     -0.096661
     7   Atom        0.096820     -0.012436     -0.084384
     8   Atom        0.098875      0.055077     -0.153952
     9   Atom       -0.016463      0.054925     -0.038463
    10   Atom       -0.028260      0.063264     -0.035005
 --------------------------------------------------------
                        XY            XZ            YZ
 --------------------------------------------------------
     1   Atom       -0.013783      0.000000      0.000000
     2   Atom        0.084171      0.000000      0.000000
     3   Atom        0.061265      0.000000      0.000000
     4   Atom        0.060448      0.000000      0.000000
     5   Atom        0.025899      0.000000      0.000000
     6   Atom        0.025899      0.000000     -0.000000
     7   Atom        0.060448      0.000000      0.000000
     8   Atom        0.061265      0.000000      0.000000
     9   Atom        0.084171      0.000000      0.000000
    10   Atom       -0.013783      0.000000     -0.000000
 --------------------------------------------------------


 ---------------------------------------------------------------------------------
              Anisotropic Spin Dipole Couplings in Principal Axis System
 ---------------------------------------------------------------------------------

       Atom             a.u.   MegaHertz   Gauss  10(-4) cm-1        Axes

              Baa    -0.0350   -18.677    -6.664    -6.230  0.0000  0.0000  1.0000
     1 H(1)   Bbb    -0.0303   -16.162    -5.767    -5.391  0.9893  0.1458  0.0000
              Bcc     0.0653    34.838    12.431    11.621 -0.1458  0.9893 -0.0000
 
              Baa    -0.0722   -38.520   -13.745   -12.849  0.8338 -0.5521  0.0000
     2 H(1)   Bbb    -0.0385   -20.522    -7.323    -6.845  0.0000  0.0000  1.0000
              Bcc     0.1107    59.042    21.068    19.694  0.5521  0.8338  0.0000
 
              Baa    -0.1540   -82.141   -29.310   -27.399  0.0000  0.0000  1.0000
     3 H(1)   Bbb     0.0119     6.357     2.268     2.121 -0.5759  0.8175 -0.0000
              Bcc     0.1420    75.784    27.042    25.279  0.8175  0.5759  0.0000
 
              Baa    -0.0844   -45.023   -16.065   -15.018  0.0000  0.0000  1.0000
     4 H(1)   Bbb    -0.0393   -20.960    -7.479    -6.991 -0.4059  0.9139 -0.0000
              Bcc     0.1237    65.983    23.544    22.010  0.9139  0.4059  0.0000
 
              Baa    -0.0967   -51.573   -18.403   -17.203  0.0000  0.0000  1.0000
     5 H(1)   Bbb    -0.0265   -14.132    -5.043    -4.714 -0.1758  0.9844 -0.0000
              Bcc     0.1231    65.706    23.446    21.917  0.9844  0.1758  0.0000
 
              Baa    -0.0967   -51.573   -18.403   -17.203  0.0000  0.0000  1.0000
     6 H(1)   Bbb    -0.0265   -14.132    -5.043    -4.714 -0.1758  0.9844  0.0000
              Bcc     0.1231    65.706    23.446    21.917  0.9844  0.1758  0.0000
 
              Baa    -0.0844   -45.023   -16.065   -15.018  0.0000  0.0000  1.0000
     7 H(1)   Bbb    -0.0393   -20.960    -7.479    -6.991 -0.4059  0.9139 -0.0000
              Bcc     0.1237    65.983    23.544    22.010  0.9139  0.4059  0.0000
 
              Baa    -0.1540   -82.141   -29.310   -27.399  0.0000  0.0000  1.0000
     8 H(1)   Bbb     0.0119     6.357     2.268     2.121 -0.5759  0.8175 -0.0000
              Bcc     0.1420    75.784    27.042    25.279  0.8175  0.5759  0.0000
 
              Baa    -0.0722   -38.520   -13.745   -12.849  0.8338 -0.5521  0.0000
     9 H(1)   Bbb    -0.0385   -20.522    -7.323    -6.845  0.0000  0.0000  1.0000
              Bcc     0.1107    59.042    21.068    19.694  0.5521  0.8338  0.0000
 
              Baa    -0.0350   -18.677    -6.664    -6.230  0.0000  0.0000  1.0000
    10 H(1)   Bbb    -0.0303   -16.162    -5.767    -5.391  0.9893  0.1458  0.0000
              Bcc     0.0653    34.838    12.431    11.621 -0.1458  0.9893  0.0000
 

 ---------------------------------------------------------------------------------


 Test job not archived.
 1\1\GINC-SULU\Stability\UHF\Gen\H10(5)\LCJ1\23-Feb-2017\0\\#uhf/gen sc
 f(tight,novaracc,noincfock,fulldiag, ) stable(crhf) guess=read geom=no
 crowd test\\hf stability analysis of h10 triangular lattice, y= 1.0475
 506882612993 alpha= 62.250000000000000\\0,5\H\H,1,1.1836896102\H,1,1.1
 836896102,2,55.5\H,2,1.1836896102,1,124.5,3,0.,0\H,3,1.1836896102,1,18
 0.,2,0.,0\H,4,1.1836896102,2,180.,1,0.,0\H,5,1.1836896102,3,180.,2,0.,
 0\H,6,1.1836896102,4,180.,1,0.,0\H,7,1.1836896102,5,180.,2,0.,0\H,8,1.
 1836896102,6,180.,1,0.,0\\Version=ES64L-G09RevE.01\State=5-BU\HF=-4.69
 71128\MP2=-4.7474922\PUHF=-4.7025422\PMP2-0=-4.7517538\S2=6.102169\S2-
 1=6.057697\S2A=6.001618\RMSD=1.155e-09\Dipole=0.,0.,0.\Quadrupole=-1.8
 427815,1.7747867,0.0679948,0.,-0.7653412,0.\PG=C02H [SGH(H10)]\\@


 I FIND THAT THE THREE TRULY GREAT TIMES FOR THINKING THOUGHTS
 ARE WHEN I AM STANDING IN THE SHOWER, SITTING ON THE JOHN, OR WALKING.

                                    -- COLIN FLETCHER
 Job cpu time:       0 days  0 hours  0 minutes  1.0 seconds.
 File lengths (MBytes):  RWF=     94 Int=      0 D2E=      0 Chk=      2 Scr=      2
 Normal termination of Gaussian 09 at Thu Feb 23 12:50:50 2017.
