 Entering Gaussian System, Link 0=g09
 AtFile(1): H.gbs
            H     0
            S   10   1.00
               1000.000000000000            0.000068713567
                316.227766000000            0.000169141320
                100.000000000000            0.000823394812
                 31.622776600000            0.003425569236
                 10.000000000000            0.013951996000
                  3.162277660000            0.056909313560
                  1.000000000000            0.198286399900
                  0.316227766000            0.496922426700
                  0.100000000000            0.369846276400
                  0.031622776600            0.003752720039
            ****
 Initial command:
 /projects/guscus/apps/gau/g09-e1/g09/l1.exe "/users/lcj1/gaussian/h10/2rows_uhf/ag2bu3/quintet/Gau-21982.inp" -scrdir="/users/lcj1/gaussian/h10/2rows_uhf/ag2bu3/quintet/"
 Entering Link 1 = /projects/guscus/apps/gau/g09-e1/g09/l1.exe PID=     21985.
  
 Copyright (c) 1988,1990,1992,1993,1995,1998,2003,2009,2015,
            Gaussian, Inc.  All Rights Reserved.
  
 This is part of the Gaussian(R) 09 program.  It is based on
 the Gaussian(R) 03 system (copyright 2003, Gaussian, Inc.),
 the Gaussian(R) 98 system (copyright 1998, Gaussian, Inc.),
 the Gaussian(R) 94 system (copyright 1995, Gaussian, Inc.),
 the Gaussian 92(TM) system (copyright 1992, Gaussian, Inc.),
 the Gaussian 90(TM) system (copyright 1990, Gaussian, Inc.),
 the Gaussian 88(TM) system (copyright 1988, Gaussian, Inc.),
 the Gaussian 86(TM) system (copyright 1986, Carnegie Mellon
 University), and the Gaussian 82(TM) system (copyright 1983,
 Carnegie Mellon University). Gaussian is a federally registered
 trademark of Gaussian, Inc.
  
 This software contains proprietary and confidential information,
 including trade secrets, belonging to Gaussian, Inc.
  
 This software is provided under written license and may be
 used, copied, transmitted, or stored only in accord with that
 written license.
  
 The following legend is applicable only to US Government
 contracts under FAR:
  
                    RESTRICTED RIGHTS LEGEND
  
 Use, reproduction and disclosure by the US Government is
 subject to restrictions as set forth in subparagraphs (a)
 and (c) of the Commercial Computer Software - Restricted
 Rights clause in FAR 52.227-19.
  
 Gaussian, Inc.
 340 Quinnipiac St., Bldg. 40, Wallingford CT 06492
  
  
 ---------------------------------------------------------------
 Warning -- This program may not be used in any manner that
 competes with the business of Gaussian, Inc. or will provide
 assistance to any competitor of Gaussian, Inc.  The licensee
 of this program is prohibited from giving any competitor of
 Gaussian, Inc. access to this program.  By using this program,
 the user acknowledges that Gaussian, Inc. is engaged in the
 business of creating and licensing software in the field of
 computational chemistry and represents and warrants to the
 licensee that it is not a competitor of Gaussian, Inc. and that
 it will not use this program in any manner prohibited above.
 ---------------------------------------------------------------
  

 Cite this work as:
 Gaussian 09, Revision E.01,
 M. J. Frisch, G. W. Trucks, H. B. Schlegel, G. E. Scuseria, 
 M. A. Robb, J. R. Cheeseman, G. Scalmani, V. Barone, B. Mennucci, 
 G. A. Petersson, H. Nakatsuji, M. Caricato, X. Li, H. P. Hratchian, 
 A. F. Izmaylov, J. Bloino, G. Zheng, J. L. Sonnenberg, M. Hada, 
 M. Ehara, K. Toyota, R. Fukuda, J. Hasegawa, M. Ishida, T. Nakajima, 
 Y. Honda, O. Kitao, H. Nakai, T. Vreven, J. A. Montgomery, Jr., 
 J. E. Peralta, F. Ogliaro, M. Bearpark, J. J. Heyd, E. Brothers, 
 K. N. Kudin, V. N. Staroverov, T. Keith, R. Kobayashi, J. Normand, 
 K. Raghavachari, A. Rendell, J. C. Burant, S. S. Iyengar, J. Tomasi, 
 M. Cossi, N. Rega, J. M. Millam, M. Klene, J. E. Knox, J. B. Cross, 
 V. Bakken, C. Adamo, J. Jaramillo, R. Gomperts, R. E. Stratmann, 
 O. Yazyev, A. J. Austin, R. Cammi, C. Pomelli, J. W. Ochterski, 
 R. L. Martin, K. Morokuma, V. G. Zakrzewski, G. A. Voth, 
 P. Salvador, J. J. Dannenberg, S. Dapprich, A. D. Daniels, 
 O. Farkas, J. B. Foresman, J. V. Ortiz, J. Cioslowski, 
 and D. J. Fox, Gaussian, Inc., Wallingford CT, 2013.
 
 ******************************************
 Gaussian 09:  ES64L-G09RevE.01 30-Nov-2015
                23-Feb-2017 
 ******************************************
 %chk=h10.chk
 ----------------------------------------------------------------------
 #uhf/gen scf(tight,novaracc,noincfock,fulldiag, ) stable(crhf) guess=r
 ead geom=nocrowd test
 ----------------------------------------------------------------------
 1/38=1/1;
 2/12=1,17=6,18=5,40=1/2;
 3/5=7,16=1,25=1,30=1,116=2/1,2,3;
 4/5=1/1;
 5/5=100002,16=1,32=2,38=6/2;
 8/6=1,10=90,11=11/1,4;
 9/8=4,13=1/2;
 6/7=2,8=2,9=2,10=2,28=1/1;
 99/5=1,9=1/99;
 ----------------------------------------------------------------------
 hf stability analysis of h10 triangular lattice, y= 1.7234297938777567
  alpha= 79.000000000000000
 ----------------------------------------------------------------------
 Symbolic Z-matrix:
 Charge =  0 Multiplicity = 5
 H
 H                    1     1.75569 
 H                    1     1.75569  2     22. 
 H                    2     1.75569  1     158.     3     0.       0
 H                    3     1.75569  1     180.     2     0.       0
 H                    4     1.75569  2     180.     1     0.       0
 H                    5     1.75569  3     180.     2     0.       0
 H                    6     1.75569  4     180.     1     0.       0
 H                    7     1.75569  5     180.     2     0.       0
 H                    8     1.75569  6     180.     1     0.       0
 
                          Input orientation:                          
 ---------------------------------------------------------------------
 Center     Atomic      Atomic             Coordinates (Angstroms)
 Number     Number       Type             X           Y           Z
 ---------------------------------------------------------------------
      1          1           0        0.000000    0.000000    0.000000
      2          1           0        0.000000    0.000000    1.755687
      3          1           0        0.657692    0.000000    1.627844
      4          1           0        0.657692    0.000000    3.383531
      5          1           0        1.315384    0.000000    3.255689
      6          1           0        1.315384    0.000000    5.011375
      7          1           0        1.973075    0.000000    4.883533
      8          1           0        1.973075    0.000000    6.639220
      9          1           0        2.630767    0.000000    6.511377
     10          1           0        2.630767    0.000000    8.267064
 ---------------------------------------------------------------------
                    Distance matrix (angstroms):
                    1          2          3          4          5
     1  H    0.000000
     2  H    1.755687   0.000000
     3  H    1.755687   0.670002   0.000000
     4  H    3.446860   1.755687   1.755687   0.000000
     5  H    3.511373   1.995054   1.755687   0.670002   0.000000
     6  H    5.181131   3.511373   3.446860   1.755687   1.755687
     7  H    5.267060   3.698168   3.511373   1.995054   1.755687
     8  H    6.926201   5.267060   5.181131   3.511373   3.446860
     9  H    7.022747   5.434844   5.267060   3.698168   3.511373
    10  H    8.675557   7.022747   6.926201   5.267060   5.181131
                    6          7          8          9         10
     6  H    0.000000
     7  H    0.670002   0.000000
     8  H    1.755687   1.755687   0.000000
     9  H    1.995054   1.755687   0.670002   0.000000
    10  H    3.511373   3.446860   1.755687   1.755687   0.000000
 Stoichiometry    H10(5)
 Framework group  C2H[SGH(H10)]
 Deg. of freedom     9
 Full point group                 C2H     NOp   4
 Largest Abelian subgroup         C2H     NOp   4
 Largest concise Abelian subgroup C2      NOp   2
                         Standard orientation:                         
 ---------------------------------------------------------------------
 Center     Atomic      Atomic             Coordinates (Angstroms)
 Number     Number       Type             X           Y           Z
 ---------------------------------------------------------------------
      1          1           0        1.315384    4.133532   -0.000000
      2          1           0        1.315384    2.377845   -0.000000
      3          1           0        0.657692    2.505688   -0.000000
      4          1           0        0.657692    0.750001   -0.000000
      5          1           0        0.000000    0.877843   -0.000000
      6          1           0       -0.000000   -0.877843   -0.000000
      7          1           0       -0.657692   -0.750001   -0.000000
      8          1           0       -0.657692   -2.505688   -0.000000
      9          1           0       -1.315384   -2.377845   -0.000000
     10          1           0       -1.315384   -4.133532   -0.000000
 ---------------------------------------------------------------------
 Rotational constants (GHZ):    514.3412341      7.3333744      7.2302864
 General basis read from cards:  (5D, 7F)
 There are     5 symmetry adapted cartesian basis functions of AG  symmetry.
 There are     0 symmetry adapted cartesian basis functions of BG  symmetry.
 There are     0 symmetry adapted cartesian basis functions of AU  symmetry.
 There are     5 symmetry adapted cartesian basis functions of BU  symmetry.
 There are     5 symmetry adapted basis functions of AG  symmetry.
 There are     0 symmetry adapted basis functions of BG  symmetry.
 There are     0 symmetry adapted basis functions of AU  symmetry.
 There are     5 symmetry adapted basis functions of BU  symmetry.
    10 basis functions,   100 primitive gaussians,    10 cartesian basis functions
     7 alpha electrons        3 beta electrons
       nuclear repulsion energy        10.8479499739 Hartrees.
 NAtoms=   10 NActive=   10 NUniq=    5 SFac= 4.00D+00 NAtFMM=   60 NAOKFM=F Big=F
 Integral buffers will be    131072 words long.
 Regular integral format.
 Two-electron integral symmetry is turned on.
 One-electron integrals computed using PRISM.
 NBasis=    10 RedAO= T EigKep=  1.55D-01  NBF=     5     0     0     5
 NBsUse=    10 1.00D-06 EigRej= -1.00D+00 NBFU=     5     0     0     5
 Initial guess from the checkpoint file:  "h10.chk"
 B after Tr=     0.000000    0.000000   -0.000000
         Rot=    0.999992   -0.000000   -0.000000   -0.003879 Ang=  -0.44 deg.
 Initial guess orbital symmetries:
 Alpha Orbitals:
       Occupied  (AG) (BU) (AG) (BU) (AG) (BU) (BU)
       Virtual   (AG) (BU) (AG)
 Beta  Orbitals:
       Occupied  (AG) (BU) (AG)
       Virtual   (BU) (AG) (BU) (BU) (AG) (BU) (AG)
 Initial guess <Sx>= 0.0000 <Sy>= 0.0000 <Sz>= 2.0000 <S**2>= 6.0002 S= 2.0000
 Keep R1 and R2 ints in memory in symmetry-blocked form, NReq=873839.
 Requested convergence on RMS density matrix=1.00D-08 within 128 cycles.
 Requested convergence on MAX density matrix=1.00D-06.
 Requested convergence on             energy=1.00D-06.
 No special actions if energy rises.
 SCF Done:  E(UHF) =  -4.70561914746     A.U. after    9 cycles
            NFock=  9  Conv=0.43D-08     -V/T= 1.8832
 <Sx>= 0.0000 <Sy>= 0.0000 <Sz>= 2.0000 <S**2>= 6.0002 S= 2.0000
 <L.S>= 0.000000000000E+00
 Annihilation of the first spin contaminant:
 S**2 before annihilation     6.0002,   after     6.0000
 Range of M.O.s used for correlation:     1    10
 NBasis=    10 NAE=     7 NBE=     3 NFC=     0 NFV=     0
 NROrb=     10 NOA=     7 NOB=     3 NVA=     3 NVB=     7
 Semi-Direct transformation.
 ModeAB=           4 MOrb=             7 LenV=     134111557
 LASXX=         1176 LTotXX=        1176 LenRXX=        3283
 LTotAB=        2107 MaxLAS=        2100 LenRXY=           0
 NonZer=        4459 LenScr=      655360 LnRSAI=        2100
 LnScr1=      655360 LExtra=           0 Total=      1316103
 MaxDsk=          -1 SrtSym=           T ITran=            3
 JobTyp=1 Pass  1:  I=   1 to   7.
 (rs|ai) integrals will be sorted in core.
 ModeAB=           4 MOrb=             3 LenV=     134111557
 LASXX=          573 LTotXX=         573 LenRXX=         609
 LTotAB=          36 MaxLAS=         900 LenRXY=           0
 NonZer=        1182 LenScr=      655360 LnRSAI=         900
 LnScr1=      655360 LExtra=           0 Total=      1312229
 MaxDsk=          -1 SrtSym=           T ITran=            3
 JobTyp=2 Pass  1:  I=   1 to   3.
 (rs|ai) integrals will be sorted in core.
 Spin components of T(2) and E(2):
     alpha-alpha T2 =       0.8738989571D-04 E2=     -0.1884282190D-03
     alpha-beta  T2 =       0.4200328632D-01 E2=     -0.4978621996D-01
     beta-beta   T2 =       0.2087704780D-03 E2=     -0.3384456641D-03
 ANorm=    0.1020930677D+01
 E2 =    -0.5031309384D-01 EUMP2 =    -0.47559322413048D+01
 (S**2,0)=  0.60002D+01           (S**2,1)=  0.60000D+01
 E(PUHF)=      -0.47056395998D+01        E(PMP2)=      -0.47559444641D+01
 Second order stability test of a single determinant UHF wave function:
 Stabil:  MDV=134217728
 ***********************************************************************
 Matrix         Lowest Root    Major Pairs
 ***********************************************************************
 Internal UHF    -0.1362697    3B=4B 7A=8A 7A=10A 1B=4B
 RUHF --> CUHF (A)0.1528284    Stable
 RUHF --> CUHF (B)0.1240989    Stable
 RUHF --> GHF    -0.5230472    7A=4B
 Not stable.
 ***********************************************************************

 **********************************************************************

            Population analysis using the SCF density.

 **********************************************************************

 Orbital symmetries:
 Alpha Orbitals:
       Occupied  (AG) (BU) (AG) (BU) (AG) (BU) (BU)
       Virtual   (AG) (BU) (AG)
 Beta  Orbitals:
       Occupied  (AG) (BU) (AG)
       Virtual   (BU) (AG) (BU) (BU) (AG) (BU) (AG)
 The electronic state is 5-BU.
 Alpha  occ. eigenvalues --   -0.82683  -0.75181  -0.67771  -0.63107  -0.47037
 Alpha  occ. eigenvalues --   -0.46530  -0.06342
 Alpha virt. eigenvalues --    0.30336   0.47576   0.56093
  Beta  occ. eigenvalues --   -0.68374  -0.66502  -0.54087
  Beta virt. eigenvalues --   -0.16158   0.15681   0.16002   0.34685   0.41532
  Beta virt. eigenvalues --    0.55700   0.72429
          Condensed to atoms (all electrons):
               1          2          3          4          5          6
     1  H    1.109497  -0.056472  -0.057575   0.001274   0.001049   0.000005
     2  H   -0.056472   0.665798   0.447157   0.025390  -0.078685   0.005055
     3  H   -0.057575   0.447157   0.703594  -0.105573   0.033544  -0.009064
     4  H    0.001274   0.025390  -0.105573   1.331014  -0.347105   0.263400
     5  H    0.001049  -0.078685   0.033544  -0.347105   1.401744  -0.264341
     6  H    0.000005   0.005055  -0.009064   0.263400  -0.264341   1.401744
     7  H   -0.000038  -0.004943   0.006192  -0.194630   0.263400  -0.347105
     8  H    0.000001   0.000111  -0.000087   0.006192  -0.009064   0.033544
     9  H    0.000000  -0.000034   0.000111  -0.004943   0.005055  -0.078685
    10  H   -0.000000   0.000000   0.000001  -0.000038   0.000005   0.001049
               7          8          9         10
     1  H   -0.000038   0.000001   0.000000  -0.000000
     2  H   -0.004943   0.000111  -0.000034   0.000000
     3  H    0.006192  -0.000087   0.000111   0.000001
     4  H   -0.194630   0.006192  -0.004943  -0.000038
     5  H    0.263400  -0.009064   0.005055   0.000005
     6  H   -0.347105   0.033544  -0.078685   0.001049
     7  H    1.331014  -0.105573   0.025390   0.001274
     8  H   -0.105573   0.703594   0.447157  -0.057575
     9  H    0.025390   0.447157   0.665798  -0.056472
    10  H    0.001274  -0.057575  -0.056472   1.109497
          Atomic-Atomic Spin Densities.
               1          2          3          4          5          6
     1  H    1.109131  -0.054380  -0.055374   0.001498   0.001263   0.000015
     2  H   -0.054380   0.114013   0.001477   0.035419  -0.066616   0.008385
     3  H   -0.055374   0.001477   0.126005  -0.097002   0.047979  -0.005486
     4  H    0.001498   0.035419  -0.097002   1.113142  -0.534506   0.197196
     5  H    0.001263  -0.066616   0.047979  -0.534506   1.142643  -0.337246
     6  H    0.000015   0.008385  -0.005486   0.197196  -0.337246   1.142643
     7  H   -0.000030  -0.002655   0.009173  -0.240248   0.197196  -0.534506
     8  H    0.000000   0.000044  -0.000160   0.009173  -0.005486   0.047979
     9  H   -0.000000  -0.000086   0.000044  -0.002655   0.008385  -0.066616
    10  H   -0.000000  -0.000000   0.000000  -0.000030   0.000015   0.001263
               7          8          9         10
     1  H   -0.000030   0.000000  -0.000000  -0.000000
     2  H   -0.002655   0.000044  -0.000086  -0.000000
     3  H    0.009173  -0.000160   0.000044   0.000000
     4  H   -0.240248   0.009173  -0.002655  -0.000030
     5  H    0.197196  -0.005486   0.008385   0.000015
     6  H   -0.534506   0.047979  -0.066616   0.001263
     7  H    1.113142  -0.097002   0.035419   0.001498
     8  H   -0.097002   0.126005   0.001477  -0.055374
     9  H    0.035419   0.001477   0.114013  -0.054380
    10  H    0.001498  -0.055374  -0.054380   1.109131
 Mulliken charges and spin densities:
               1          2
     1  H    0.002259   1.002123
     2  H   -0.003377   0.035602
     3  H   -0.018299   0.026658
     4  H    0.025019   0.481988
     5  H   -0.005602   0.453630
     6  H   -0.005602   0.453630
     7  H    0.025019   0.481988
     8  H   -0.018299   0.026658
     9  H   -0.003377   0.035602
    10  H    0.002259   1.002123
 Sum of Mulliken charges =  -0.00000   4.00000
 Mulliken charges and spin densities with hydrogens summed into heavy atoms:
               1          2
 Electronic spatial extent (au):  <R**2>=            279.4734
 Charge=             -0.0000 electrons
 Dipole moment (field-independent basis, Debye):
    X=             -0.0000    Y=             -0.0000    Z=              0.0000  Tot=              0.0000
 Quadrupole moment (field-independent basis, Debye-Ang):
   XX=            -13.5807   YY=            -16.1779   ZZ=            -13.0174
   XY=             -0.4153   XZ=             -0.0000   YZ=              0.0000
 Traceless Quadrupole moment (field-independent basis, Debye-Ang):
   XX=              0.6780   YY=             -1.9192   ZZ=              1.2413
   XY=             -0.4153   XZ=             -0.0000   YZ=              0.0000
 Octapole moment (field-independent basis, Debye-Ang**2):
  XXX=              0.0000  YYY=             -0.0000  ZZZ=              0.0000  XYY=             -0.0000
  XXY=             -0.0000  XXZ=              0.0000  XZZ=             -0.0000  YZZ=             -0.0000
  YYZ=              0.0000  XYZ=              0.0000
 Hexadecapole moment (field-independent basis, Debye-Ang**3):
 XXXX=            -83.5980 YYYY=           -601.0014 ZZZZ=            -15.9298 XXXY=            -83.6975
 XXXZ=              0.0000 YYYX=           -115.6586 YYYZ=              0.0000 ZZZX=              0.0000
 ZZZY=              0.0000 XXYY=           -103.8185 XXZZ=            -16.9388 YYZZ=            -85.8375
 XXYZ=              0.0000 YYXZ=              0.0000 ZZXY=            -28.2018
 N-N= 1.084794997393D+01 E-N=-3.065907566647D+01  KE= 5.328076809687D+00
 Symmetry AG   KE= 2.210110817113D+00
 Symmetry BG   KE= 0.000000000000D+00
 Symmetry AU   KE= 0.000000000000D+00
 Symmetry BU   KE= 3.117965992574D+00
                          Isotropic Fermi Contact Couplings
        Atom                 a.u.       MegaHertz       Gauss      10(-4) cm-1
     1  H(1)               0.33779     377.46725     134.68970     125.90952
     2  H(1)               0.03146      35.15014      12.54244      11.72482
     3  H(1)               0.03301      36.89075      13.16354      12.30543
     4  H(1)               0.24591     274.80181      98.05612      91.66402
     5  H(1)               0.24934     278.62846      99.42156      92.94045
     6  H(1)               0.24934     278.62846      99.42156      92.94045
     7  H(1)               0.24591     274.80181      98.05612      91.66402
     8  H(1)               0.03301      36.89075      13.16354      12.30543
     9  H(1)               0.03146      35.15014      12.54244      11.72482
    10  H(1)               0.33779     377.46725     134.68970     125.90952
 --------------------------------------------------------
       Center         ----  Spin Dipole Couplings  ----
                      3XX-RR        3YY-RR        3ZZ-RR
 --------------------------------------------------------
     1   Atom       -0.000541      0.001879     -0.001338
     2   Atom       -0.006143      0.059064     -0.052921
     3   Atom       -0.005909      0.061907     -0.055998
     4   Atom        0.109147     -0.026606     -0.082541
     5   Atom        0.116145     -0.031787     -0.084358
     6   Atom        0.116145     -0.031787     -0.084358
     7   Atom        0.109147     -0.026606     -0.082541
     8   Atom       -0.005909      0.061907     -0.055998
     9   Atom       -0.006143      0.059064     -0.052921
    10   Atom       -0.000541      0.001879     -0.001338
 --------------------------------------------------------
                        XY            XZ            YZ
 --------------------------------------------------------
     1   Atom        0.001888     -0.000000     -0.000000
     2   Atom        0.016523     -0.000000     -0.000000
     3   Atom        0.028437     -0.000000     -0.000000
     4   Atom       -0.031038     -0.000000      0.000000
     5   Atom       -0.020510      0.000000      0.000000
     6   Atom       -0.020510      0.000000     -0.000000
     7   Atom       -0.031038     -0.000000      0.000000
     8   Atom        0.028437      0.000000      0.000000
     9   Atom        0.016523      0.000000     -0.000000
    10   Atom        0.001888     -0.000000     -0.000000
 --------------------------------------------------------


 ---------------------------------------------------------------------------------
              Anisotropic Spin Dipole Couplings in Principal Axis System
 ---------------------------------------------------------------------------------

       Atom             a.u.   MegaHertz   Gauss  10(-4) cm-1        Axes

              Baa    -0.0016    -0.839    -0.300    -0.280  0.8773 -0.4799  0.0000
     1 H(1)   Bbb    -0.0013    -0.714    -0.255    -0.238  0.0000  0.0000  1.0000
              Bcc     0.0029     1.554     0.554     0.518  0.4799  0.8773  0.0000
 
              Baa    -0.0529   -28.236   -10.075    -9.419  0.0000  0.0000  1.0000
     2 H(1)   Bbb    -0.0101    -5.384    -1.921    -1.796  0.9726 -0.2324  0.0000
              Bcc     0.0630    33.620    11.997    11.215  0.2324  0.9726  0.0000
 
              Baa    -0.0560   -29.878   -10.661    -9.966  0.0000  0.0000  1.0000
     3 H(1)   Bbb    -0.0163    -8.673    -3.095    -2.893  0.9397 -0.3419  0.0000
              Bcc     0.0723    38.551    13.756    12.859  0.3419  0.9397  0.0000
 
              Baa    -0.0825   -44.040   -15.715   -14.690  0.0000  0.0000  1.0000
     4 H(1)   Bbb    -0.0334   -17.803    -6.352    -5.938  0.2128  0.9771  0.0000
              Bcc     0.1159    61.843    22.067    20.628  0.9771 -0.2128  0.0000
 
              Baa    -0.0844   -45.009   -16.060   -15.014  0.0000  0.0000  1.0000
     5 H(1)   Bbb    -0.0346   -18.449    -6.583    -6.154  0.1348  0.9909 -0.0000
              Bcc     0.1189    63.459    22.644    21.168  0.9909 -0.1348  0.0000
 
              Baa    -0.0844   -45.009   -16.060   -15.014  0.0000  0.0000  1.0000
     6 H(1)   Bbb    -0.0346   -18.449    -6.583    -6.154  0.1348  0.9909  0.0000
              Bcc     0.1189    63.459    22.644    21.168  0.9909 -0.1348  0.0000
 
              Baa    -0.0825   -44.040   -15.715   -14.690  0.0000  0.0000  1.0000
     7 H(1)   Bbb    -0.0334   -17.803    -6.352    -5.938  0.2128  0.9771  0.0000
              Bcc     0.1159    61.843    22.067    20.628  0.9771 -0.2128  0.0000
 
              Baa    -0.0560   -29.878   -10.661    -9.966  0.0000  0.0000  1.0000
     8 H(1)   Bbb    -0.0163    -8.673    -3.095    -2.893  0.9397 -0.3419  0.0000
              Bcc     0.0723    38.551    13.756    12.859  0.3419  0.9397 -0.0000
 
              Baa    -0.0529   -28.236   -10.075    -9.419  0.0000  0.0000  1.0000
     9 H(1)   Bbb    -0.0101    -5.384    -1.921    -1.796  0.9726 -0.2324  0.0000
              Bcc     0.0630    33.620    11.997    11.215  0.2324  0.9726  0.0000
 
              Baa    -0.0016    -0.839    -0.300    -0.280  0.8773 -0.4799  0.0000
    10 H(1)   Bbb    -0.0013    -0.714    -0.255    -0.238  0.0000  0.0000  1.0000
              Bcc     0.0029     1.554     0.554     0.518  0.4799  0.8773  0.0000
 

 ---------------------------------------------------------------------------------


 Test job not archived.
 1\1\GINC-SULU\Stability\UHF\Gen\H10(5)\LCJ1\23-Feb-2017\0\\#uhf/gen sc
 f(tight,novaracc,noincfock,fulldiag, ) stable(crhf) guess=read geom=no
 crowd test\\hf stability analysis of h10 triangular lattice, y= 1.7234
 297938777567 alpha= 79.000000000000000\\0,5\H\H,1,1.7556866905\H,1,1.7
 556866905,2,22.\H,2,1.7556866905,1,158.,3,0.,0\H,3,1.7556866905,1,180.
 ,2,0.,0\H,4,1.7556866905,2,180.,1,0.,0\H,5,1.7556866905,3,180.,2,0.,0\
 H,6,1.7556866905,4,180.,1,0.,0\H,7,1.7556866905,5,180.,2,0.,0\H,8,1.75
 56866905,6,180.,1,0.,0\\Version=ES64L-G09RevE.01\State=5-BU\HF=-4.7056
 191\MP2=-4.7559322\PUHF=-4.7056396\PMP2-0=-4.7559445\S2=6.000228\S2-1=
 6.000045\S2A=6.\RMSD=4.347e-09\Dipole=0.,0.,0.\Quadrupole=0.5040518,0.
 9228517,-1.4269035,0.,-0.3087924,0.\PG=C02H [SGH(H10)]\\@


 KNOWLEDGE IS EXPERIMENT'S DAUGHTER.
 -- LEONARDO DA VINCI, IN "PENSIERI" CA. 1492
 Job cpu time:       0 days  0 hours  0 minutes  0.9 seconds.
 File lengths (MBytes):  RWF=     94 Int=      0 D2E=      0 Chk=      2 Scr=      2
 Normal termination of Gaussian 09 at Thu Feb 23 12:53:38 2017.
