 Entering Gaussian System, Link 0=g09
 AtFile(1): H.gbs
            H     0
            S   10   1.00
               1000.000000000000            0.000068713567
                316.227766000000            0.000169141320
                100.000000000000            0.000823394812
                 31.622776600000            0.003425569236
                 10.000000000000            0.013951996000
                  3.162277660000            0.056909313560
                  1.000000000000            0.198286399900
                  0.316227766000            0.496922426700
                  0.100000000000            0.369846276400
                  0.031622776600            0.003752720039
            ****
 Initial command:
 /projects/guscus/apps/gau/g09-e1/g09/l1.exe "/users/lcj1/gaussian/h10/2rows_uhf/ag2bu3/quintet/Gau-9164.inp" -scrdir="/users/lcj1/gaussian/h10/2rows_uhf/ag2bu3/quintet/"
 Entering Link 1 = /projects/guscus/apps/gau/g09-e1/g09/l1.exe PID=      9165.
  
 Copyright (c) 1988,1990,1992,1993,1995,1998,2003,2009,2015,
            Gaussian, Inc.  All Rights Reserved.
  
 This is part of the Gaussian(R) 09 program.  It is based on
 the Gaussian(R) 03 system (copyright 2003, Gaussian, Inc.),
 the Gaussian(R) 98 system (copyright 1998, Gaussian, Inc.),
 the Gaussian(R) 94 system (copyright 1995, Gaussian, Inc.),
 the Gaussian 92(TM) system (copyright 1992, Gaussian, Inc.),
 the Gaussian 90(TM) system (copyright 1990, Gaussian, Inc.),
 the Gaussian 88(TM) system (copyright 1988, Gaussian, Inc.),
 the Gaussian 86(TM) system (copyright 1986, Carnegie Mellon
 University), and the Gaussian 82(TM) system (copyright 1983,
 Carnegie Mellon University). Gaussian is a federally registered
 trademark of Gaussian, Inc.
  
 This software contains proprietary and confidential information,
 including trade secrets, belonging to Gaussian, Inc.
  
 This software is provided under written license and may be
 used, copied, transmitted, or stored only in accord with that
 written license.
  
 The following legend is applicable only to US Government
 contracts under FAR:
  
                    RESTRICTED RIGHTS LEGEND
  
 Use, reproduction and disclosure by the US Government is
 subject to restrictions as set forth in subparagraphs (a)
 and (c) of the Commercial Computer Software - Restricted
 Rights clause in FAR 52.227-19.
  
 Gaussian, Inc.
 340 Quinnipiac St., Bldg. 40, Wallingford CT 06492
  
  
 ---------------------------------------------------------------
 Warning -- This program may not be used in any manner that
 competes with the business of Gaussian, Inc. or will provide
 assistance to any competitor of Gaussian, Inc.  The licensee
 of this program is prohibited from giving any competitor of
 Gaussian, Inc. access to this program.  By using this program,
 the user acknowledges that Gaussian, Inc. is engaged in the
 business of creating and licensing software in the field of
 computational chemistry and represents and warrants to the
 licensee that it is not a competitor of Gaussian, Inc. and that
 it will not use this program in any manner prohibited above.
 ---------------------------------------------------------------
  

 Cite this work as:
 Gaussian 09, Revision E.01,
 M. J. Frisch, G. W. Trucks, H. B. Schlegel, G. E. Scuseria, 
 M. A. Robb, J. R. Cheeseman, G. Scalmani, V. Barone, B. Mennucci, 
 G. A. Petersson, H. Nakatsuji, M. Caricato, X. Li, H. P. Hratchian, 
 A. F. Izmaylov, J. Bloino, G. Zheng, J. L. Sonnenberg, M. Hada, 
 M. Ehara, K. Toyota, R. Fukuda, J. Hasegawa, M. Ishida, T. Nakajima, 
 Y. Honda, O. Kitao, H. Nakai, T. Vreven, J. A. Montgomery, Jr., 
 J. E. Peralta, F. Ogliaro, M. Bearpark, J. J. Heyd, E. Brothers, 
 K. N. Kudin, V. N. Staroverov, T. Keith, R. Kobayashi, J. Normand, 
 K. Raghavachari, A. Rendell, J. C. Burant, S. S. Iyengar, J. Tomasi, 
 M. Cossi, N. Rega, J. M. Millam, M. Klene, J. E. Knox, J. B. Cross, 
 V. Bakken, C. Adamo, J. Jaramillo, R. Gomperts, R. E. Stratmann, 
 O. Yazyev, A. J. Austin, R. Cammi, C. Pomelli, J. W. Ochterski, 
 R. L. Martin, K. Morokuma, V. G. Zakrzewski, G. A. Voth, 
 P. Salvador, J. J. Dannenberg, S. Dapprich, A. D. Daniels, 
 O. Farkas, J. B. Foresman, J. V. Ortiz, J. Cioslowski, 
 and D. J. Fox, Gaussian, Inc., Wallingford CT, 2013.
 
 ******************************************
 Gaussian 09:  ES64L-G09RevE.01 30-Nov-2015
                23-Feb-2017 
 ******************************************
 %chk=h10.chk
 ----------------------------------------------------------------------
 #uhf/gen scf(tight,novaracc,noincfock,fulldiag, ) stable(crhf) guess=r
 ead geom=nocrowd test
 ----------------------------------------------------------------------
 1/38=1/1;
 2/12=1,17=6,18=5,40=1/2;
 3/5=7,16=1,25=1,30=1,116=2/1,2,3;
 4/5=1/1;
 5/5=100002,16=1,32=2,38=6/2;
 8/6=1,10=90,11=11/1,4;
 9/8=4,13=1/2;
 6/7=2,8=2,9=2,10=2,28=1/1;
 99/5=1,9=1/99;
 ----------------------------------------------------------------------
 hf stability analysis of h10 triangular lattice, y= 0.4521619835073459
 3 alpha= 19.500000000000000
 ----------------------------------------------------------------------
 Symbolic Z-matrix:
 Charge =  0 Multiplicity = 5
 H
 H                    1     1.35456 
 H                    1     1.35456  2     141. 
 H                    2     1.35456  1     39.      3     0.       0
 H                    3     1.35456  1     180.     2     0.       0
 H                    4     1.35456  2     180.     1     0.       0
 H                    5     1.35456  3     180.     2     0.       0
 H                    6     1.35456  4     180.     1     0.       0
 H                    7     1.35456  5     180.     2     0.       0
 H                    8     1.35456  6     180.     1     0.       0
 
                          Input orientation:                          
 ---------------------------------------------------------------------
 Center     Atomic      Atomic             Coordinates (Angstroms)
 Number     Number       Type             X           Y           Z
 ---------------------------------------------------------------------
      1          1           0        0.000000    0.000000    0.000000
      2          1           0        0.000000    0.000000    1.354562
      3          1           0        0.852453    0.000000   -1.052692
      4          1           0        0.852453    0.000000    0.301870
      5          1           0        1.704907    0.000000   -2.105384
      6          1           0        1.704907    0.000000   -0.750823
      7          1           0        2.557360    0.000000   -3.158076
      8          1           0        2.557360    0.000000   -1.803515
      9          1           0        3.409813    0.000000   -4.210768
     10          1           0        3.409813    0.000000   -2.856207
 ---------------------------------------------------------------------
                    Distance matrix (angstroms):
                    1          2          3          4          5
     1  H    0.000000
     2  H    1.354562   0.000000
     3  H    1.354562   2.553732   0.000000
     4  H    0.904324   1.354562   1.354562   0.000000
     5  H    2.709123   3.857192   1.354562   2.553732   0.000000
     6  H    1.862912   2.709123   0.904324   1.354562   1.354562
     7  H    4.063685   5.186906   2.709123   3.857192   1.354562
     8  H    3.129338   4.063685   1.862912   2.709123   0.904324
     9  H    5.418247   6.526846   4.063685   5.186906   2.709123
    10  H    4.448004   5.418247   3.129338   4.063685   1.862912
                    6          7          8          9         10
     6  H    0.000000
     7  H    2.553732   0.000000
     8  H    1.354562   1.354562   0.000000
     9  H    3.857192   1.354562   2.553732   0.000000
    10  H    2.709123   0.904324   1.354562   1.354562   0.000000
 Stoichiometry    H10(5)
 Framework group  C2H[SGH(H10)]
 Deg. of freedom     9
 Full point group                 C2H     NOp   4
 Largest Abelian subgroup         C2H     NOp   4
 Largest concise Abelian subgroup C2      NOp   2
                         Standard orientation:                         
 ---------------------------------------------------------------------
 Center     Atomic      Atomic             Coordinates (Angstroms)
 Number     Number       Type             X           Y           Z
 ---------------------------------------------------------------------
      1          1           0        1.704907   -1.428103    0.000000
      2          1           0        1.704907   -2.782665    0.000000
      3          1           0        0.852453   -0.375411    0.000000
      4          1           0        0.852453   -1.729973    0.000000
      5          1           0       -0.000000    0.677281   -0.000000
      6          1           0       -0.000000   -0.677281   -0.000000
      7          1           0       -0.852453    1.729973    0.000000
      8          1           0       -0.852453    0.375411    0.000000
      9          1           0       -1.704907    2.782665    0.000000
     10          1           0       -1.704907    1.428103    0.000000
 ---------------------------------------------------------------------
 Rotational constants (GHZ):    297.8669915     12.6628950     12.1465231
 General basis read from cards:  (5D, 7F)
 There are     5 symmetry adapted cartesian basis functions of AG  symmetry.
 There are     0 symmetry adapted cartesian basis functions of BG  symmetry.
 There are     0 symmetry adapted cartesian basis functions of AU  symmetry.
 There are     5 symmetry adapted cartesian basis functions of BU  symmetry.
 There are     5 symmetry adapted basis functions of AG  symmetry.
 There are     0 symmetry adapted basis functions of BG  symmetry.
 There are     0 symmetry adapted basis functions of AU  symmetry.
 There are     5 symmetry adapted basis functions of BU  symmetry.
    10 basis functions,   100 primitive gaussians,    10 cartesian basis functions
     7 alpha electrons        3 beta electrons
       nuclear repulsion energy        12.1423953597 Hartrees.
 NAtoms=   10 NActive=   10 NUniq=    5 SFac= 4.00D+00 NAtFMM=   60 NAOKFM=F Big=F
 Integral buffers will be    131072 words long.
 Regular integral format.
 Two-electron integral symmetry is turned on.
 One-electron integrals computed using PRISM.
 NBasis=    10 RedAO= T EigKep=  1.85D-01  NBF=     5     0     0     5
 NBsUse=    10 1.00D-06 EigRej= -1.00D+00 NBFU=     5     0     0     5
 Initial guess from the checkpoint file:  "h10.chk"
 B after Tr=     0.000000   -0.000000   -0.000000
         Rot=    0.999992    0.000000    0.000000   -0.003879 Ang=  -0.44 deg.
 Initial guess orbital symmetries:
 Alpha Orbitals:
       Occupied  (AG) (BU) (AG) (BU) (AG) (BU) (BU)
       Virtual   (AG) (BU) (AG)
 Beta  Orbitals:
       Occupied  (AG) (BU) (AG)
       Virtual   (BU) (BU) (AG) (AG) (BU) (BU) (AG)
 Initial guess <Sx>= 0.0000 <Sy>= 0.0000 <Sz>= 2.0000 <S**2>= 6.0219 S= 2.0044
 Keep R1 and R2 ints in memory in symmetry-blocked form, NReq=876919.
 Requested convergence on RMS density matrix=1.00D-08 within 128 cycles.
 Requested convergence on MAX density matrix=1.00D-06.
 Requested convergence on             energy=1.00D-06.
 No special actions if energy rises.
 SCF Done:  E(UHF) =  -4.79660336934     A.U. after   11 cycles
            NFock= 11  Conv=0.26D-08     -V/T= 1.8546
 <Sx>= 0.0000 <Sy>= 0.0000 <Sz>= 2.0000 <S**2>= 6.0263 S= 2.0053
 <L.S>= 0.000000000000E+00
 Annihilation of the first spin contaminant:
 S**2 before annihilation     6.0263,   after     6.0001
 Range of M.O.s used for correlation:     1    10
 NBasis=    10 NAE=     7 NBE=     3 NFC=     0 NFV=     0
 NROrb=     10 NOA=     7 NOB=     3 NVA=     3 NVB=     7
 Semi-Direct transformation.
 ModeAB=           4 MOrb=             7 LenV=     134109247
 LASXX=         1176 LTotXX=        1176 LenRXX=        3283
 LTotAB=        2107 MaxLAS=        2100 LenRXY=           0
 NonZer=        4459 LenScr=      655360 LnRSAI=        2100
 LnScr1=      655360 LExtra=           0 Total=      1316103
 MaxDsk=          -1 SrtSym=           T ITran=            3
 JobTyp=1 Pass  1:  I=   1 to   7.
 (rs|ai) integrals will be sorted in core.
 ModeAB=           4 MOrb=             3 LenV=     134109247
 LASXX=          573 LTotXX=         573 LenRXX=         609
 LTotAB=          36 MaxLAS=         900 LenRXY=           0
 NonZer=        1182 LenScr=      655360 LnRSAI=         900
 LnScr1=      655360 LExtra=           0 Total=      1312229
 MaxDsk=          -1 SrtSym=           T ITran=            3
 JobTyp=2 Pass  1:  I=   1 to   3.
 (rs|ai) integrals will be sorted in core.
 Spin components of T(2) and E(2):
     alpha-alpha T2 =       0.5586328635D-03 E2=     -0.8574202955D-03
     alpha-beta  T2 =       0.3165643996D-01 E2=     -0.4821040299D-01
     beta-beta   T2 =       0.8965142480D-03 E2=     -0.1455706192D-02
 ANorm=    0.1016420969D+01
 E2 =    -0.5052352948D-01 EUMP2 =    -0.48471268988189D+01
 (S**2,0)=  0.60263D+01           (S**2,1)=  0.60143D+01
 E(PUHF)=      -0.47981961494D+01        E(PMP2)=      -0.48483586934D+01
 Second order stability test of a single determinant UHF wave function:
 Stabil:  MDV=134217728
 ***********************************************************************
 Matrix         Lowest Root    Major Pairs
 ***********************************************************************
 Internal UHF     0.0150656    Stable
 RUHF --> CUHF (A)0.1347994    Stable
 RUHF --> CUHF (B)0.23544      Stable
 RUHF --> GHF    -0.1466457    7A=4B
 Not stable.
 ***********************************************************************

 **********************************************************************

            Population analysis using the SCF density.

 **********************************************************************

 Orbital symmetries:
 Alpha Orbitals:
       Occupied  (AG) (BU) (AG) (BU) (AG) (BU) (BU)
       Virtual   (AG) (BU) (AG)
 Beta  Orbitals:
       Occupied  (AG) (BU) (AG)
       Virtual   (BU) (BU) (AG) (AG) (BU) (BU) (AG)
 The electronic state is 5-BU.
 Alpha  occ. eigenvalues --   -0.87221  -0.76937  -0.65680  -0.52705  -0.36930
 Alpha  occ. eigenvalues --   -0.30237  -0.24836
 Alpha virt. eigenvalues --    0.13891   0.35014   0.50199
  Beta  occ. eigenvalues --   -0.72255  -0.64998  -0.47347
  Beta virt. eigenvalues --    0.00482   0.13965   0.21957   0.26024   0.30192
  Beta virt. eigenvalues --    0.45997   0.69181
          Condensed to atoms (all electrons):
               1          2          3          4          5          6
     1  H    0.988695  -0.207530  -0.089036   0.457422   0.005874  -0.140096
     2  H   -0.207530   1.332654   0.008838  -0.103540   0.000769   0.008581
     3  H   -0.089036   0.008838   1.100462  -0.137252   0.144743   0.094263
     4  H    0.457422  -0.103540  -0.137252   0.764700  -0.038793  -0.001499
     5  H    0.005874   0.000769   0.144743  -0.038793   1.168748  -0.208756
     6  H   -0.140096   0.008581   0.094263  -0.001499  -0.208756   1.168748
     7  H    0.000937   0.000103   0.017492  -0.000796  -0.001499  -0.038793
     8  H    0.002118  -0.002083  -0.188050   0.017492   0.094263   0.144743
     9  H    0.000041  -0.000002  -0.002083   0.000103   0.008581   0.000769
    10  H   -0.000357   0.000041   0.002118   0.000937  -0.140096   0.005874
               7          8          9         10
     1  H    0.000937   0.002118   0.000041  -0.000357
     2  H    0.000103  -0.002083  -0.000002   0.000041
     3  H    0.017492  -0.188050  -0.002083   0.002118
     4  H   -0.000796   0.017492   0.000103   0.000937
     5  H   -0.001499   0.094263   0.008581  -0.140096
     6  H   -0.038793   0.144743   0.000769   0.005874
     7  H    0.764700  -0.137252  -0.103540   0.457422
     8  H   -0.137252   1.100462   0.008838  -0.089036
     9  H   -0.103540   0.008838   1.332654  -0.207530
    10  H    0.457422  -0.089036  -0.207530   0.988695
          Atomic-Atomic Spin Densities.
               1          2          3          4          5          6
     1  H    0.591425  -0.243238  -0.082146   0.100700   0.024433  -0.109618
     2  H   -0.243238   1.313470   0.011810  -0.149204   0.001849   0.013444
     3  H   -0.082146   0.011810   0.902589  -0.147791   0.048937  -0.076689
     4  H    0.100700  -0.149204  -0.147791   0.034249  -0.013122   0.044244
     5  H    0.024433   0.001849   0.048937  -0.013122   0.811767  -0.355375
     6  H   -0.109618   0.013444  -0.076689   0.044244  -0.355375   0.811767
     7  H   -0.000323   0.000024   0.032951  -0.002471   0.044244  -0.013122
     8  H    0.009549  -0.001564  -0.223115   0.032951  -0.076689   0.048937
     9  H   -0.000006  -0.000004  -0.001564   0.000024   0.013444   0.001849
    10  H   -0.001011  -0.000006   0.009549  -0.000323  -0.109618   0.024433
               7          8          9         10
     1  H   -0.000323   0.009549  -0.000006  -0.001011
     2  H    0.000024  -0.001564  -0.000004  -0.000006
     3  H    0.032951  -0.223115  -0.001564   0.009549
     4  H   -0.002471   0.032951   0.000024  -0.000323
     5  H    0.044244  -0.076689   0.013444  -0.109618
     6  H   -0.013122   0.048937   0.001849   0.024433
     7  H    0.034249  -0.147791  -0.149204   0.100700
     8  H   -0.147791   0.902589   0.011810  -0.082146
     9  H   -0.149204   0.011810   1.313470  -0.243238
    10  H    0.100700  -0.082146  -0.243238   0.591425
 Mulliken charges and spin densities:
               1          2
     1  H   -0.018069   0.289765
     2  H   -0.037830   0.946579
     3  H    0.048506   0.474531
     4  H    0.041227  -0.100744
     5  H   -0.033834   0.389869
     6  H   -0.033834   0.389869
     7  H    0.041227  -0.100744
     8  H    0.048506   0.474531
     9  H   -0.037830   0.946579
    10  H   -0.018069   0.289765
 Sum of Mulliken charges =   0.00000   4.00000
 Mulliken charges and spin densities with hydrogens summed into heavy atoms:
               1          2
 Electronic spatial extent (au):  <R**2>=            181.3987
 Charge=              0.0000 electrons
 Dipole moment (field-independent basis, Debye):
    X=              0.0000    Y=              0.0000    Z=             -0.0000  Tot=              0.0000
 Quadrupole moment (field-independent basis, Debye-Ang):
   XX=            -14.5043   YY=            -18.5317   ZZ=            -12.6568
   XY=              3.0628   XZ=              0.0000   YZ=             -0.0000
 Traceless Quadrupole moment (field-independent basis, Debye-Ang):
   XX=              0.7266   YY=             -3.3008   ZZ=              2.5742
   XY=              3.0628   XZ=              0.0000   YZ=             -0.0000
 Octapole moment (field-independent basis, Debye-Ang**2):
  XXX=             -0.0000  YYY=              0.0000  ZZZ=             -0.0000  XYY=             -0.0000
  XXY=              0.0000  XXZ=             -0.0000  XZZ=             -0.0000  YZZ=              0.0000
  YYZ=             -0.0000  XYZ=              0.0000
 Hexadecapole moment (field-independent basis, Debye-Ang**3):
 XXXX=           -133.2226 YYYY=           -307.9250 ZZZZ=            -15.1574 XXXY=             82.9711
 XXXZ=              0.0000 YYYX=            116.2094 YYYZ=             -0.0000 ZZZX=              0.0000
 ZZZY=             -0.0000 XXYY=            -84.9218 XXZZ=            -24.1306 YYZZ=            -41.0596
 XXYZ=             -0.0000 YYXZ=              0.0000 ZZXY=             23.7261
 N-N= 1.214239535967D+01 E-N=-3.389947253133D+01  KE= 5.612933409241D+00
 Symmetry AG   KE= 2.362569146161D+00
 Symmetry BG   KE= 0.000000000000D+00
 Symmetry AU   KE= 0.000000000000D+00
 Symmetry BU   KE= 3.250364263080D+00
                          Isotropic Fermi Contact Couplings
        Atom                 a.u.       MegaHertz       Gauss      10(-4) cm-1
     1  H(1)               0.15921     177.91426      63.48423      59.34581
     2  H(1)               0.36972     413.15516     147.42403     137.81373
     3  H(1)               0.23826     266.24383      95.00242      88.80938
     4  H(1)               0.00311       3.47683       1.24062       1.15974
     5  H(1)               0.20873     233.24745      83.22849      77.80298
     6  H(1)               0.20873     233.24745      83.22849      77.80298
     7  H(1)               0.00311       3.47683       1.24062       1.15974
     8  H(1)               0.23826     266.24383      95.00242      88.80938
     9  H(1)               0.36972     413.15516     147.42403     137.81373
    10  H(1)               0.15921     177.91426      63.48423      59.34581
 --------------------------------------------------------
       Center         ----  Spin Dipole Couplings  ----
                      3XX-RR        3YY-RR        3ZZ-RR
 --------------------------------------------------------
     1   Atom       -0.016554      0.075649     -0.059094
     2   Atom       -0.008731      0.012633     -0.003902
     3   Atom        0.072435      0.004049     -0.076484
     4   Atom        0.064649      0.055340     -0.119989
     5   Atom        0.104110     -0.013905     -0.090205
     6   Atom        0.104110     -0.013905     -0.090205
     7   Atom        0.064649      0.055340     -0.119989
     8   Atom        0.072435      0.004049     -0.076484
     9   Atom       -0.008731      0.012633     -0.003902
    10   Atom       -0.016554      0.075649     -0.059094
 --------------------------------------------------------
                        XY            XZ            YZ
 --------------------------------------------------------
     1   Atom       -0.043190      0.000000     -0.000000
     2   Atom        0.003656      0.000000      0.000000
     3   Atom        0.002433      0.000000      0.000000
     4   Atom       -0.045468      0.000000     -0.000000
     5   Atom        0.007240     -0.000000     -0.000000
     6   Atom        0.007240      0.000000      0.000000
     7   Atom       -0.045468     -0.000000      0.000000
     8   Atom        0.002433     -0.000000      0.000000
     9   Atom        0.003656      0.000000     -0.000000
    10   Atom       -0.043190     -0.000000     -0.000000
 --------------------------------------------------------


 ---------------------------------------------------------------------------------
              Anisotropic Spin Dipole Couplings in Principal Axis System
 ---------------------------------------------------------------------------------

       Atom             a.u.   MegaHertz   Gauss  10(-4) cm-1        Axes

              Baa    -0.0591   -31.530   -11.251   -10.517  0.0000  0.0000  1.0000
     1 H(1)   Bbb    -0.0336   -17.941    -6.402    -5.984  0.9300  0.3676  0.0000
              Bcc     0.0927    49.471    17.652    16.502 -0.3676  0.9300  0.0000
 
              Baa    -0.0093    -4.983    -1.778    -1.662  0.9864 -0.1641  0.0000
     2 H(1)   Bbb    -0.0039    -2.082    -0.743    -0.694  0.0000  0.0000  1.0000
              Bcc     0.0132     7.065     2.521     2.357  0.1641  0.9864  0.0000
 
              Baa    -0.0765   -40.808   -14.561   -13.612  0.0000  0.0000  1.0000
     3 H(1)   Bbb     0.0040     2.114     0.754     0.705 -0.0355  0.9994 -0.0000
              Bcc     0.0725    38.694    13.807    12.907  0.9994  0.0355  0.0000
 
              Baa    -0.1200   -64.020   -22.844   -21.355  0.0000  0.0000  1.0000
     4 H(1)   Bbb     0.0143     7.624     2.720     2.543  0.6701  0.7422  0.0000
              Bcc     0.1057    56.397    20.124    18.812  0.7422 -0.6701  0.0000
 
              Baa    -0.0902   -48.129   -17.174   -16.054  0.0000  0.0000  1.0000
     5 H(1)   Bbb    -0.0143    -7.655    -2.731    -2.553 -0.0610  0.9981 -0.0000
              Bcc     0.1046    55.784    19.905    18.608  0.9981  0.0610  0.0000
 
              Baa    -0.0902   -48.129   -17.174   -16.054  0.0000  0.0000  1.0000
     6 H(1)   Bbb    -0.0143    -7.655    -2.731    -2.553 -0.0610  0.9981 -0.0000
              Bcc     0.1046    55.784    19.905    18.608  0.9981  0.0610  0.0000
 
              Baa    -0.1200   -64.020   -22.844   -21.355  0.0000  0.0000  1.0000
     7 H(1)   Bbb     0.0143     7.624     2.720     2.543  0.6701  0.7422  0.0000
              Bcc     0.1057    56.397    20.124    18.812  0.7422 -0.6701  0.0000
 
              Baa    -0.0765   -40.808   -14.561   -13.612  0.0000  0.0000  1.0000
     8 H(1)   Bbb     0.0040     2.114     0.754     0.705 -0.0355  0.9994  0.0000
              Bcc     0.0725    38.694    13.807    12.907  0.9994  0.0355  0.0000
 
              Baa    -0.0093    -4.983    -1.778    -1.662  0.9864 -0.1641  0.0000
     9 H(1)   Bbb    -0.0039    -2.082    -0.743    -0.694  0.0000  0.0000  1.0000
              Bcc     0.0132     7.065     2.521     2.357  0.1641  0.9864  0.0000
 
              Baa    -0.0591   -31.530   -11.251   -10.517  0.0000  0.0000  1.0000
    10 H(1)   Bbb    -0.0336   -17.941    -6.402    -5.984  0.9300  0.3676  0.0000
              Bcc     0.0927    49.471    17.652    16.502 -0.3676  0.9300 -0.0000
 

 ---------------------------------------------------------------------------------


 Test job not archived.
 1\1\GINC-SULU\Stability\UHF\Gen\H10(5)\LCJ1\23-Feb-2017\0\\#uhf/gen sc
 f(tight,novaracc,noincfock,fulldiag, ) stable(crhf) guess=read geom=no
 crowd test\\hf stability analysis of h10 triangular lattice, y= 0.4521
 6198350734593 alpha= 19.500000000000000\\0,5\H\H,1,1.3545616542\H,1,1.
 3545616542,2,141.\H,2,1.3545616542,1,39.,3,0.,0\H,3,1.3545616542,1,180
 .,2,0.,0\H,4,1.3545616542,2,180.,1,0.,0\H,5,1.3545616542,3,180.,2,0.,0
 \H,6,1.3545616542,4,180.,1,0.,0\H,7,1.3545616542,5,180.,2,0.,0\H,8,1.3
 545616542,6,180.,1,0.,0\\Version=ES64L-G09RevE.01\State=5-BU\HF=-4.796
 6034\MP2=-4.8471269\PUHF=-4.7981961\PMP2-0=-4.8483587\S2=6.026284\S2-1
 =6.01432\S2A=6.000148\RMSD=2.621e-09\Dipole=0.,0.,0.\Quadrupole=0.5402
 182,1.9138197,-2.4540379,0.,2.2771096,0.\PG=C02H [SGH(H10)]\\@


 MATERIAL COPIED FROM ONE SCHOLARLY BOOK WITHOUT CREDIT COMPRISES PLAGIARISM.
 MATERIAL COPIED FROM TWO SCHOLARLY BOOKS COMPRISES AN ESSAY.
 MATERIAL COPIED FROM THREE SCHOLARLY BOOKS COMPRISES A DISSERTATION.
 MATERIAL COPIED FROM FOUR SCHOLARLY BOOKS COMPRISES A FIFTH SCHOLARLY BOOK.

                               -- C&EN, 25 FEB 1980
 Job cpu time:       0 days  0 hours  0 minutes  0.9 seconds.
 File lengths (MBytes):  RWF=     94 Int=      0 D2E=      0 Chk=      2 Scr=      2
 Normal termination of Gaussian 09 at Thu Feb 23 12:43:37 2017.
