 Entering Gaussian System, Link 0=g09
 AtFile(1): H.gbs
            H     0
            S   10   1.00
               1000.000000000000            0.000068713567
                316.227766000000            0.000169141320
                100.000000000000            0.000823394812
                 31.622776600000            0.003425569236
                 10.000000000000            0.013951996000
                  3.162277660000            0.056909313560
                  1.000000000000            0.198286399900
                  0.316227766000            0.496922426700
                  0.100000000000            0.369846276400
                  0.031622776600            0.003752720039
            ****
 Initial command:
 /projects/guscus/apps/gau/g09-e1/g09/l1.exe "/users/lcj1/gaussian/h10/2rows_uhf/ag2bu3/quintet/Gau-7879.inp" -scrdir="/users/lcj1/gaussian/h10/2rows_uhf/ag2bu3/quintet/"
 Entering Link 1 = /projects/guscus/apps/gau/g09-e1/g09/l1.exe PID=      7880.
  
 Copyright (c) 1988,1990,1992,1993,1995,1998,2003,2009,2015,
            Gaussian, Inc.  All Rights Reserved.
  
 This is part of the Gaussian(R) 09 program.  It is based on
 the Gaussian(R) 03 system (copyright 2003, Gaussian, Inc.),
 the Gaussian(R) 98 system (copyright 1998, Gaussian, Inc.),
 the Gaussian(R) 94 system (copyright 1995, Gaussian, Inc.),
 the Gaussian 92(TM) system (copyright 1992, Gaussian, Inc.),
 the Gaussian 90(TM) system (copyright 1990, Gaussian, Inc.),
 the Gaussian 88(TM) system (copyright 1988, Gaussian, Inc.),
 the Gaussian 86(TM) system (copyright 1986, Carnegie Mellon
 University), and the Gaussian 82(TM) system (copyright 1983,
 Carnegie Mellon University). Gaussian is a federally registered
 trademark of Gaussian, Inc.
  
 This software contains proprietary and confidential information,
 including trade secrets, belonging to Gaussian, Inc.
  
 This software is provided under written license and may be
 used, copied, transmitted, or stored only in accord with that
 written license.
  
 The following legend is applicable only to US Government
 contracts under FAR:
  
                    RESTRICTED RIGHTS LEGEND
  
 Use, reproduction and disclosure by the US Government is
 subject to restrictions as set forth in subparagraphs (a)
 and (c) of the Commercial Computer Software - Restricted
 Rights clause in FAR 52.227-19.
  
 Gaussian, Inc.
 340 Quinnipiac St., Bldg. 40, Wallingford CT 06492
  
  
 ---------------------------------------------------------------
 Warning -- This program may not be used in any manner that
 competes with the business of Gaussian, Inc. or will provide
 assistance to any competitor of Gaussian, Inc.  The licensee
 of this program is prohibited from giving any competitor of
 Gaussian, Inc. access to this program.  By using this program,
 the user acknowledges that Gaussian, Inc. is engaged in the
 business of creating and licensing software in the field of
 computational chemistry and represents and warrants to the
 licensee that it is not a competitor of Gaussian, Inc. and that
 it will not use this program in any manner prohibited above.
 ---------------------------------------------------------------
  

 Cite this work as:
 Gaussian 09, Revision E.01,
 M. J. Frisch, G. W. Trucks, H. B. Schlegel, G. E. Scuseria, 
 M. A. Robb, J. R. Cheeseman, G. Scalmani, V. Barone, B. Mennucci, 
 G. A. Petersson, H. Nakatsuji, M. Caricato, X. Li, H. P. Hratchian, 
 A. F. Izmaylov, J. Bloino, G. Zheng, J. L. Sonnenberg, M. Hada, 
 M. Ehara, K. Toyota, R. Fukuda, J. Hasegawa, M. Ishida, T. Nakajima, 
 Y. Honda, O. Kitao, H. Nakai, T. Vreven, J. A. Montgomery, Jr., 
 J. E. Peralta, F. Ogliaro, M. Bearpark, J. J. Heyd, E. Brothers, 
 K. N. Kudin, V. N. Staroverov, T. Keith, R. Kobayashi, J. Normand, 
 K. Raghavachari, A. Rendell, J. C. Burant, S. S. Iyengar, J. Tomasi, 
 M. Cossi, N. Rega, J. M. Millam, M. Klene, J. E. Knox, J. B. Cross, 
 V. Bakken, C. Adamo, J. Jaramillo, R. Gomperts, R. E. Stratmann, 
 O. Yazyev, A. J. Austin, R. Cammi, C. Pomelli, J. W. Ochterski, 
 R. L. Martin, K. Morokuma, V. G. Zakrzewski, G. A. Voth, 
 P. Salvador, J. J. Dannenberg, S. Dapprich, A. D. Daniels, 
 O. Farkas, J. B. Foresman, J. V. Ortiz, J. Cioslowski, 
 and D. J. Fox, Gaussian, Inc., Wallingford CT, 2013.
 
 ******************************************
 Gaussian 09:  ES64L-G09RevE.01 30-Nov-2015
                23-Feb-2017 
 ******************************************
 %chk=h10.chk
 ----------------------------------------------------------------------
 #uhf/gen scf(tight,novaracc,noincfock,fulldiag, ) stable(crhf) guess=r
 ead geom=nocrowd test
 ----------------------------------------------------------------------
 1/38=1/1;
 2/12=1,17=6,18=5,40=1/2;
 3/5=7,16=1,25=1,30=1,116=2/1,2,3;
 4/5=1/1;
 5/5=100002,16=1,32=2,38=6/2;
 8/6=1,10=90,11=11/1,4;
 9/8=4,13=1/2;
 6/7=2,8=2,9=2,10=2,28=1/1;
 99/5=1,9=1/99;
 ----------------------------------------------------------------------
 hf stability analysis of h10 triangular lattice, y= 0.3650915174764740
 0 alpha= 13.000000000000000
 ----------------------------------------------------------------------
 Symbolic Z-matrix:
 Charge =  0 Multiplicity = 5
 H
 H                    1     1.62298 
 H                    1     1.62298  2     154. 
 H                    2     1.62298  1     26.      3     0.       0
 H                    3     1.62298  1     180.     2     0.       0
 H                    4     1.62298  2     180.     1     0.       0
 H                    5     1.62298  3     180.     2     0.       0
 H                    6     1.62298  4     180.     1     0.       0
 H                    7     1.62298  5     180.     2     0.       0
 H                    8     1.62298  6     180.     1     0.       0
 
                          Input orientation:                          
 ---------------------------------------------------------------------
 Center     Atomic      Atomic             Coordinates (Angstroms)
 Number     Number       Type             X           Y           Z
 ---------------------------------------------------------------------
      1          1           0        0.000000    0.000000    0.000000
      2          1           0        0.000000    0.000000    1.622982
      3          1           0        0.711468    0.000000   -1.458727
      4          1           0        0.711468    0.000000    0.164255
      5          1           0        1.422937    0.000000   -2.917453
      6          1           0        1.422937    0.000000   -1.294471
      7          1           0        2.134405    0.000000   -4.376180
      8          1           0        2.134405    0.000000   -2.753198
      9          1           0        2.845874    0.000000   -5.834906
     10          1           0        2.845874    0.000000   -4.211924
 ---------------------------------------------------------------------
                    Distance matrix (angstroms):
                    1          2          3          4          5
     1  H    0.000000
     2  H    1.622982   0.000000
     3  H    1.622982   3.162770   0.000000
     4  H    0.730183   1.622982   1.622982   0.000000
     5  H    3.245964   4.758182   1.622982   3.162770   0.000000
     6  H    1.923644   3.245964   0.730183   1.622982   1.622982
     7  H    4.868946   6.367545   3.245964   4.758182   1.622982
     8  H    3.483645   4.868946   1.923644   3.245964   0.730183
     9  H    6.491928   7.982424   4.868946   6.367545   3.245964
    10  H    5.083238   6.491928   3.483645   4.868946   1.923644
                    6          7          8          9         10
     6  H    0.000000
     7  H    3.162770   0.000000
     8  H    1.622982   1.622982   0.000000
     9  H    4.758182   1.622982   3.162770   0.000000
    10  H    3.245964   0.730183   1.622982   1.622982   0.000000
 Stoichiometry    H10(5)
 Framework group  C2H[SGH(H10)]
 Deg. of freedom     9
 Full point group                 C2H     NOp   4
 Largest Abelian subgroup         C2H     NOp   4
 Largest concise Abelian subgroup C2      NOp   2
                         Standard orientation:                         
 ---------------------------------------------------------------------
 Center     Atomic      Atomic             Coordinates (Angstroms)
 Number     Number       Type             X           Y           Z
 ---------------------------------------------------------------------
      1          1           0        1.422937   -2.105962   -0.000000
      2          1           0        1.422937   -3.728944   -0.000000
      3          1           0        0.711468   -0.647236   -0.000000
      4          1           0        0.711468   -2.270218   -0.000000
      5          1           0        0.000000    0.811491    0.000000
      6          1           0       -0.000000   -0.811491    0.000000
      7          1           0       -0.711468    2.270218   -0.000000
      8          1           0       -0.711468    0.647236   -0.000000
      9          1           0       -1.422937    3.728944   -0.000000
     10          1           0       -1.422937    2.105962   -0.000000
 ---------------------------------------------------------------------
 Rotational constants (GHZ):    437.1650062      8.6279972      8.4610087
 General basis read from cards:  (5D, 7F)
 There are     5 symmetry adapted cartesian basis functions of AG  symmetry.
 There are     0 symmetry adapted cartesian basis functions of BG  symmetry.
 There are     0 symmetry adapted cartesian basis functions of AU  symmetry.
 There are     5 symmetry adapted cartesian basis functions of BU  symmetry.
 There are     5 symmetry adapted basis functions of AG  symmetry.
 There are     0 symmetry adapted basis functions of BG  symmetry.
 There are     0 symmetry adapted basis functions of AU  symmetry.
 There are     5 symmetry adapted basis functions of BU  symmetry.
    10 basis functions,   100 primitive gaussians,    10 cartesian basis functions
     7 alpha electrons        3 beta electrons
       nuclear repulsion energy        11.1820620535 Hartrees.
 NAtoms=   10 NActive=   10 NUniq=    5 SFac= 4.00D+00 NAtFMM=   60 NAOKFM=F Big=F
 Integral buffers will be    131072 words long.
 Regular integral format.
 Two-electron integral symmetry is turned on.
 One-electron integrals computed using PRISM.
 NBasis=    10 RedAO= T EigKep=  1.65D-01  NBF=     5     0     0     5
 NBsUse=    10 1.00D-06 EigRej= -1.00D+00 NBFU=     5     0     0     5
 Initial guess from the checkpoint file:  "h10.chk"
 B after Tr=     0.000000   -0.000000   -0.000000
         Rot=    0.999992    0.000000   -0.000000   -0.003879 Ang=  -0.44 deg.
 Initial guess orbital symmetries:
 Alpha Orbitals:
       Occupied  (AG) (BU) (AG) (BU) (AG) (BU) (BU)
       Virtual   (AG) (BU) (AG)
 Beta  Orbitals:
       Occupied  (AG) (BU) (AG)
       Virtual   (BU) (AG) (BU) (BU) (AG) (BU) (AG)
 Initial guess <Sx>= 0.0000 <Sy>= 0.0000 <Sz>= 2.0000 <S**2>= 6.0004 S= 2.0001
 Keep R1 and R2 ints in memory in symmetry-blocked form, NReq=874455.
 Requested convergence on RMS density matrix=1.00D-08 within 128 cycles.
 Requested convergence on MAX density matrix=1.00D-06.
 Requested convergence on             energy=1.00D-06.
 No special actions if energy rises.
 SCF Done:  E(UHF) =  -4.80359432561     A.U. after    9 cycles
            NFock=  9  Conv=0.45D-08     -V/T= 1.8954
 <Sx>= 0.0000 <Sy>= 0.0000 <Sz>= 2.0000 <S**2>= 6.0004 S= 2.0001
 <L.S>= 0.000000000000E+00
 Annihilation of the first spin contaminant:
 S**2 before annihilation     6.0004,   after     6.0000
 Range of M.O.s used for correlation:     1    10
 NBasis=    10 NAE=     7 NBE=     3 NFC=     0 NFV=     0
 NROrb=     10 NOA=     7 NOB=     3 NVA=     3 NVB=     7
 Semi-Direct transformation.
 ModeAB=           4 MOrb=             7 LenV=     134111277
 LASXX=         1176 LTotXX=        1176 LenRXX=        3283
 LTotAB=        2107 MaxLAS=        2100 LenRXY=           0
 NonZer=        4459 LenScr=      655360 LnRSAI=        2100
 LnScr1=      655360 LExtra=           0 Total=      1316103
 MaxDsk=          -1 SrtSym=           T ITran=            3
 JobTyp=1 Pass  1:  I=   1 to   7.
 (rs|ai) integrals will be sorted in core.
 ModeAB=           4 MOrb=             3 LenV=     134111277
 LASXX=          573 LTotXX=         573 LenRXX=         609
 LTotAB=          36 MaxLAS=         900 LenRXY=           0
 NonZer=        1182 LenScr=      655360 LnRSAI=         900
 LnScr1=      655360 LExtra=           0 Total=      1312229
 MaxDsk=          -1 SrtSym=           T ITran=            3
 JobTyp=2 Pass  1:  I=   1 to   3.
 (rs|ai) integrals will be sorted in core.
 Spin components of T(2) and E(2):
     alpha-alpha T2 =       0.1464166824D-03 E2=     -0.2952298566D-03
     alpha-beta  T2 =       0.3566634393D-01 E2=     -0.4749337270D-01
     beta-beta   T2 =       0.3451509945D-03 E2=     -0.5541493609D-03
 ANorm=    0.1017918421D+01
 E2 =    -0.4834275192D-01 EUMP2 =    -0.48519370775319D+01
 (S**2,0)=  0.60004D+01           (S**2,1)=  0.60001D+01
 E(PUHF)=      -0.48036333006D+01        E(PMP2)=      -0.48519616544D+01
 Second order stability test of a single determinant UHF wave function:
 Stabil:  MDV=134217728
 ***********************************************************************
 Matrix         Lowest Root    Major Pairs
 ***********************************************************************
 Internal UHF    -0.0863245    3B=4B 7A=8A 7A=10A 1B=4B
 RUHF --> CUHF (A)0.1616109    Stable
 RUHF --> CUHF (B)0.1578902    Stable
 RUHF --> GHF    -0.4082567    7A=4B
 Not stable.
 ***********************************************************************

 **********************************************************************

            Population analysis using the SCF density.

 **********************************************************************

 Orbital symmetries:
 Alpha Orbitals:
       Occupied  (AG) (BU) (AG) (BU) (AG) (BU) (BU)
       Virtual   (AG) (BU) (AG)
 Beta  Orbitals:
       Occupied  (AG) (BU) (AG)
       Virtual   (BU) (AG) (BU) (BU) (AG) (BU) (AG)
 The electronic state is 5-BU.
 Alpha  occ. eigenvalues --   -0.83560  -0.75251  -0.66975  -0.59626  -0.44997
 Alpha  occ. eigenvalues --   -0.43466  -0.12379
 Alpha virt. eigenvalues --    0.25430   0.43607   0.54928
  Beta  occ. eigenvalues --   -0.68843  -0.65611  -0.52337
  Beta virt. eigenvalues --   -0.11012   0.17139   0.17984   0.28708   0.36583
  Beta virt. eigenvalues --    0.52662   0.71545
          Condensed to atoms (all electrons):
               1          2          3          4          5          6
     1  H    0.704665  -0.079510   0.011909   0.454402   0.006433  -0.092196
     2  H   -0.079510   1.157478   0.002553  -0.078957   0.000012   0.002249
     3  H    0.011909   0.002553   1.202102  -0.123279   0.239223  -0.181553
     4  H    0.454402  -0.078957  -0.123279   0.742878  -0.013843   0.023596
     5  H    0.006433   0.000012   0.239223  -0.013843   1.286908  -0.258255
     6  H   -0.092196   0.002249  -0.181553   0.023596  -0.258255   1.286908
     7  H    0.000252   0.000003   0.008794  -0.000185   0.023596  -0.013843
     8  H   -0.005974  -0.000133  -0.183500   0.008794  -0.181553   0.239223
     9  H    0.000001  -0.000000  -0.000133   0.000003   0.002249   0.000012
    10  H   -0.000051   0.000001  -0.005974   0.000252  -0.092196   0.006433
               7          8          9         10
     1  H    0.000252  -0.005974   0.000001  -0.000051
     2  H    0.000003  -0.000133  -0.000000   0.000001
     3  H    0.008794  -0.183500  -0.000133  -0.005974
     4  H   -0.000185   0.008794   0.000003   0.000252
     5  H    0.023596  -0.181553   0.002249  -0.092196
     6  H   -0.013843   0.239223   0.000012   0.006433
     7  H    0.742878  -0.123279  -0.078957   0.454402
     8  H   -0.123279   1.202102   0.002553   0.011909
     9  H   -0.078957   0.002553   1.157478  -0.079510
    10  H    0.454402   0.011909  -0.079510   0.704665
          Atomic-Atomic Spin Densities.
               1          2          3          4          5          6
     1  H    0.160931  -0.083626   0.021609   0.025893   0.012682  -0.075854
     2  H   -0.083626   1.156547   0.003143  -0.083031   0.000066   0.002868
     3  H    0.021609   0.003143   0.986942  -0.116827   0.163485  -0.365630
     4  H    0.025893  -0.083031  -0.116827   0.155439  -0.007018   0.043355
     5  H    0.012682   0.000066   0.163485  -0.007018   1.010856  -0.346425
     6  H   -0.075854   0.002868  -0.365630   0.043355  -0.346425   1.010856
     7  H    0.000058   0.000001   0.014114  -0.000402   0.043355  -0.007018
     8  H   -0.002132  -0.000096  -0.229812   0.014114  -0.365630   0.163485
     9  H   -0.000001  -0.000000  -0.000096   0.000001   0.002868   0.000066
    10  H   -0.000195  -0.000001  -0.002132   0.000058  -0.075854   0.012682
               7          8          9         10
     1  H    0.000058  -0.002132  -0.000001  -0.000195
     2  H    0.000001  -0.000096  -0.000000  -0.000001
     3  H    0.014114  -0.229812  -0.000096  -0.002132
     4  H   -0.000402   0.014114   0.000001   0.000058
     5  H    0.043355  -0.365630   0.002868  -0.075854
     6  H   -0.007018   0.163485   0.000066   0.012682
     7  H    0.155439  -0.116827  -0.083031   0.025893
     8  H   -0.116827   0.986942   0.003143   0.021609
     9  H   -0.083031   0.003143   1.156547  -0.083626
    10  H    0.025893   0.021609  -0.083626   0.160931
 Mulliken charges and spin densities:
               1          2
     1  H    0.000071   0.059365
     2  H   -0.003695   0.995871
     3  H    0.029859   0.474796
     4  H   -0.013661   0.031583
     5  H   -0.012574   0.438384
     6  H   -0.012574   0.438384
     7  H   -0.013661   0.031583
     8  H    0.029859   0.474796
     9  H   -0.003695   0.995871
    10  H    0.000071   0.059365
 Sum of Mulliken charges =  -0.00000   4.00000
 Mulliken charges and spin densities with hydrogens summed into heavy atoms:
               1          2
 Electronic spatial extent (au):  <R**2>=            243.8686
 Charge=              0.0000 electrons
 Dipole moment (field-independent basis, Debye):
    X=             -0.0000    Y=              0.0000    Z=              0.0000  Tot=              0.0000
 Quadrupole moment (field-independent basis, Debye-Ang):
   XX=            -13.4312   YY=            -16.9848   ZZ=            -12.9260
   XY=              0.8614   XZ=             -0.0000   YZ=              0.0000
 Traceless Quadrupole moment (field-independent basis, Debye-Ang):
   XX=              1.0161   YY=             -2.5375   ZZ=              1.5213
   XY=              0.8614   XZ=             -0.0000   YZ=              0.0000
 Octapole moment (field-independent basis, Debye-Ang**2):
  XXX=             -0.0000  YYY=              0.0000  ZZZ=              0.0000  XYY=             -0.0000
  XXY=              0.0000  XXZ=              0.0000  XZZ=             -0.0000  YZZ=              0.0000
  YYZ=              0.0000  XYZ=             -0.0000
 Hexadecapole moment (field-independent basis, Debye-Ang**3):
 XXXX=            -94.0804 YYYY=           -509.0600 ZZZZ=            -15.7220 XXXY=             82.4624
 XXXZ=             -0.0000 YYYX=            119.3982 YYYZ=              0.0000 ZZZX=             -0.0000
 ZZZY=              0.0000 XXYY=            -94.6657 XXZZ=            -18.6949 YYZZ=            -70.4081
 XXYZ=              0.0000 YYXZ=             -0.0000 ZZXY=             27.2682
 N-N= 1.118206205346D+01 E-N=-3.160549189495D+01  KE= 5.364634386684D+00
 Symmetry AG   KE= 2.242326841608D+00
 Symmetry BG   KE= 0.000000000000D+00
 Symmetry AU   KE= 0.000000000000D+00
 Symmetry BU   KE= 3.122307545077D+00
                          Isotropic Fermi Contact Couplings
        Atom                 a.u.       MegaHertz       Gauss      10(-4) cm-1
     1  H(1)               0.04604      51.44637      18.35734      17.16066
     2  H(1)               0.34698     387.74314     138.35639     129.33719
     3  H(1)               0.23660     264.39349      94.34217      88.19218
     4  H(1)               0.04180      46.70622      16.66594      15.57952
     5  H(1)               0.23738     265.26797      94.65420      88.48387
     6  H(1)               0.23738     265.26797      94.65420      88.48387
     7  H(1)               0.04180      46.70622      16.66594      15.57952
     8  H(1)               0.23660     264.39349      94.34217      88.19218
     9  H(1)               0.34698     387.74314     138.35639     129.33719
    10  H(1)               0.04604      51.44637      18.35734      17.16066
 --------------------------------------------------------
       Center         ----  Spin Dipole Couplings  ----
                      3XX-RR        3YY-RR        3ZZ-RR
 --------------------------------------------------------
     1   Atom       -0.002677      0.063759     -0.061082
     2   Atom       -0.000394      0.001806     -0.001412
     3   Atom        0.094975     -0.014858     -0.080117
     4   Atom        0.004323      0.064193     -0.068516
     5   Atom        0.107603     -0.023196     -0.084407
     6   Atom        0.107603     -0.023196     -0.084407
     7   Atom        0.004323      0.064193     -0.068516
     8   Atom        0.094975     -0.014858     -0.080117
     9   Atom       -0.000394      0.001806     -0.001412
    10   Atom       -0.002677      0.063759     -0.061082
 --------------------------------------------------------
                        XY            XZ            YZ
 --------------------------------------------------------
     1   Atom       -0.019705     -0.000000      0.000000
     2   Atom       -0.002308     -0.000000     -0.000000
     3   Atom        0.029387     -0.000000     -0.000000
     4   Atom       -0.035780     -0.000000      0.000000
     5   Atom        0.018035      0.000000      0.000000
     6   Atom        0.018035      0.000000      0.000000
     7   Atom       -0.035780      0.000000     -0.000000
     8   Atom        0.029387     -0.000000     -0.000000
     9   Atom       -0.002308     -0.000000      0.000000
    10   Atom       -0.019705      0.000000     -0.000000
 --------------------------------------------------------


 ---------------------------------------------------------------------------------
              Anisotropic Spin Dipole Couplings in Principal Axis System
 ---------------------------------------------------------------------------------

       Atom             a.u.   MegaHertz   Gauss  10(-4) cm-1        Axes

              Baa    -0.0611   -32.590   -11.629   -10.871  0.0000  0.0000  1.0000
     1 H(1)   Bbb    -0.0081    -4.312    -1.539    -1.438  0.9644  0.2645  0.0000
              Bcc     0.0692    36.902    13.168    12.309 -0.2645  0.9644  0.0000
 
              Baa    -0.0019    -0.987    -0.352    -0.329  0.8456  0.5338  0.0000
     2 H(1)   Bbb    -0.0014    -0.754    -0.269    -0.251  0.0000  0.0000  1.0000
              Bcc     0.0033     1.741     0.621     0.581 -0.5338  0.8456 -0.0000
 
              Baa    -0.0801   -42.747   -15.253   -14.259  0.0000  0.0000  1.0000
     3 H(1)   Bbb    -0.0222   -11.859    -4.232    -3.956 -0.2432  0.9700  0.0000
              Bcc     0.1023    54.605    19.485    18.214  0.9700  0.2432  0.0000
 
              Baa    -0.0685   -36.557   -13.044   -12.194  0.0000  0.0000  1.0000
     4 H(1)   Bbb    -0.0124    -6.612    -2.359    -2.206  0.9060  0.4233  0.0000
              Bcc     0.0809    43.169    15.404    14.400 -0.4233  0.9060  0.0000
 
              Baa    -0.0844   -45.036   -16.070   -15.022  0.0000  0.0000  1.0000
     5 H(1)   Bbb    -0.0256   -13.679    -4.881    -4.563 -0.1341  0.9910 -0.0000
              Bcc     0.1100    58.714    20.951    19.585  0.9910  0.1341  0.0000
 
              Baa    -0.0844   -45.036   -16.070   -15.022  0.0000  0.0000  1.0000
     6 H(1)   Bbb    -0.0256   -13.679    -4.881    -4.563 -0.1341  0.9910 -0.0000
              Bcc     0.1100    58.714    20.951    19.585  0.9910  0.1341  0.0000
 
              Baa    -0.0685   -36.557   -13.044   -12.194  0.0000  0.0000  1.0000
     7 H(1)   Bbb    -0.0124    -6.612    -2.359    -2.206  0.9060  0.4233  0.0000
              Bcc     0.0809    43.169    15.404    14.400 -0.4233  0.9060  0.0000
 
              Baa    -0.0801   -42.747   -15.253   -14.259  0.0000  0.0000  1.0000
     8 H(1)   Bbb    -0.0222   -11.859    -4.232    -3.956 -0.2432  0.9700 -0.0000
              Bcc     0.1023    54.605    19.485    18.214  0.9700  0.2432  0.0000
 
              Baa    -0.0019    -0.987    -0.352    -0.329  0.8456  0.5338  0.0000
     9 H(1)   Bbb    -0.0014    -0.754    -0.269    -0.251  0.0000  0.0000  1.0000
              Bcc     0.0033     1.741     0.621     0.581 -0.5338  0.8456  0.0000
 
              Baa    -0.0611   -32.590   -11.629   -10.871  0.0000  0.0000  1.0000
    10 H(1)   Bbb    -0.0081    -4.312    -1.539    -1.438  0.9644  0.2645  0.0000
              Bcc     0.0692    36.902    13.168    12.309 -0.2645  0.9644  0.0000
 

 ---------------------------------------------------------------------------------


 Test job not archived.
 1\1\GINC-SULU\Stability\UHF\Gen\H10(5)\LCJ1\23-Feb-2017\0\\#uhf/gen sc
 f(tight,novaracc,noincfock,fulldiag, ) stable(crhf) guess=read geom=no
 crowd test\\hf stability analysis of h10 triangular lattice, y= 0.3650
 9151747647400 alpha= 13.000000000000000\\0,5\H\H,1,1.6229819796\H,1,1.
 6229819796,2,154.\H,2,1.6229819796,1,26.,3,0.,0\H,3,1.6229819796,1,180
 .,2,0.,0\H,4,1.6229819796,2,180.,1,0.,0\H,5,1.6229819796,3,180.,2,0.,0
 \H,6,1.6229819796,4,180.,1,0.,0\H,7,1.6229819796,5,180.,2,0.,0\H,8,1.6
 229819796,6,180.,1,0.,0\\Version=ES64L-G09RevE.01\State=5-BU\HF=-4.803
 5943\MP2=-4.8519371\PUHF=-4.8036333\PMP2-0=-4.8519617\S2=6.000441\S2-1
 =6.000115\S2A=6.\RMSD=4.537e-09\Dipole=0.,0.,0.\Quadrupole=0.7554748,1
 .1310712,-1.886546,0.,0.6404409,0.\PG=C02H [SGH(H10)]\\@


 ONE BIG VICE IN A MAN IS APT TO KEEP OUT MANY SMALLER ONES.

                           -- BRET HARTE
 Job cpu time:       0 days  0 hours  0 minutes  0.9 seconds.
 File lengths (MBytes):  RWF=     94 Int=      0 D2E=      0 Chk=      2 Scr=      2
 Normal termination of Gaussian 09 at Thu Feb 23 12:42:35 2017.
