 Entering Gaussian System, Link 0=g09
 AtFile(1): H.gbs
            H     0
            S   10   1.00
               1000.000000000000            0.000068713567
                316.227766000000            0.000169141320
                100.000000000000            0.000823394812
                 31.622776600000            0.003425569236
                 10.000000000000            0.013951996000
                  3.162277660000            0.056909313560
                  1.000000000000            0.198286399900
                  0.316227766000            0.496922426700
                  0.100000000000            0.369846276400
                  0.031622776600            0.003752720039
            ****
 Initial command:
 /projects/guscus/apps/gau/g09-e1/g09/l1.exe "/users/lcj1/gaussian/h10/2rows_uhf/ag2bu3/quintet/Gau-10348.inp" -scrdir="/users/lcj1/gaussian/h10/2rows_uhf/ag2bu3/quintet/"
 Entering Link 1 = /projects/guscus/apps/gau/g09-e1/g09/l1.exe PID=     10349.
  
 Copyright (c) 1988,1990,1992,1993,1995,1998,2003,2009,2015,
            Gaussian, Inc.  All Rights Reserved.
  
 This is part of the Gaussian(R) 09 program.  It is based on
 the Gaussian(R) 03 system (copyright 2003, Gaussian, Inc.),
 the Gaussian(R) 98 system (copyright 1998, Gaussian, Inc.),
 the Gaussian(R) 94 system (copyright 1995, Gaussian, Inc.),
 the Gaussian 92(TM) system (copyright 1992, Gaussian, Inc.),
 the Gaussian 90(TM) system (copyright 1990, Gaussian, Inc.),
 the Gaussian 88(TM) system (copyright 1988, Gaussian, Inc.),
 the Gaussian 86(TM) system (copyright 1986, Carnegie Mellon
 University), and the Gaussian 82(TM) system (copyright 1983,
 Carnegie Mellon University). Gaussian is a federally registered
 trademark of Gaussian, Inc.
  
 This software contains proprietary and confidential information,
 including trade secrets, belonging to Gaussian, Inc.
  
 This software is provided under written license and may be
 used, copied, transmitted, or stored only in accord with that
 written license.
  
 The following legend is applicable only to US Government
 contracts under FAR:
  
                    RESTRICTED RIGHTS LEGEND
  
 Use, reproduction and disclosure by the US Government is
 subject to restrictions as set forth in subparagraphs (a)
 and (c) of the Commercial Computer Software - Restricted
 Rights clause in FAR 52.227-19.
  
 Gaussian, Inc.
 340 Quinnipiac St., Bldg. 40, Wallingford CT 06492
  
  
 ---------------------------------------------------------------
 Warning -- This program may not be used in any manner that
 competes with the business of Gaussian, Inc. or will provide
 assistance to any competitor of Gaussian, Inc.  The licensee
 of this program is prohibited from giving any competitor of
 Gaussian, Inc. access to this program.  By using this program,
 the user acknowledges that Gaussian, Inc. is engaged in the
 business of creating and licensing software in the field of
 computational chemistry and represents and warrants to the
 licensee that it is not a competitor of Gaussian, Inc. and that
 it will not use this program in any manner prohibited above.
 ---------------------------------------------------------------
  

 Cite this work as:
 Gaussian 09, Revision E.01,
 M. J. Frisch, G. W. Trucks, H. B. Schlegel, G. E. Scuseria, 
 M. A. Robb, J. R. Cheeseman, G. Scalmani, V. Barone, B. Mennucci, 
 G. A. Petersson, H. Nakatsuji, M. Caricato, X. Li, H. P. Hratchian, 
 A. F. Izmaylov, J. Bloino, G. Zheng, J. L. Sonnenberg, M. Hada, 
 M. Ehara, K. Toyota, R. Fukuda, J. Hasegawa, M. Ishida, T. Nakajima, 
 Y. Honda, O. Kitao, H. Nakai, T. Vreven, J. A. Montgomery, Jr., 
 J. E. Peralta, F. Ogliaro, M. Bearpark, J. J. Heyd, E. Brothers, 
 K. N. Kudin, V. N. Staroverov, T. Keith, R. Kobayashi, J. Normand, 
 K. Raghavachari, A. Rendell, J. C. Burant, S. S. Iyengar, J. Tomasi, 
 M. Cossi, N. Rega, J. M. Millam, M. Klene, J. E. Knox, J. B. Cross, 
 V. Bakken, C. Adamo, J. Jaramillo, R. Gomperts, R. E. Stratmann, 
 O. Yazyev, A. J. Austin, R. Cammi, C. Pomelli, J. W. Ochterski, 
 R. L. Martin, K. Morokuma, V. G. Zakrzewski, G. A. Voth, 
 P. Salvador, J. J. Dannenberg, S. Dapprich, A. D. Daniels, 
 O. Farkas, J. B. Foresman, J. V. Ortiz, J. Cioslowski, 
 and D. J. Fox, Gaussian, Inc., Wallingford CT, 2013.
 
 ******************************************
 Gaussian 09:  ES64L-G09RevE.01 30-Nov-2015
                23-Feb-2017 
 ******************************************
 %chk=h10.chk
 ----------------------------------------------------------------------
 #uhf/gen scf(tight,novaracc,noincfock,fulldiag, ) stable(crhf) guess=r
 ead geom=nocrowd test
 ----------------------------------------------------------------------
 1/38=1/1;
 2/12=1,17=6,18=5,40=1/2;
 3/5=7,16=1,25=1,30=1,116=2/1,2,3;
 4/5=1/1;
 5/5=100002,16=1,32=2,38=6/2;
 8/6=1,10=90,11=11/1,4;
 9/8=4,13=1/2;
 6/7=2,8=2,9=2,10=2,28=1/1;
 99/5=1,9=1/99;
 ----------------------------------------------------------------------
 hf stability analysis of h10 triangular lattice, y= 0.5247684832164858
 4 alpha= 25.500000000000000
 ----------------------------------------------------------------------
 Symbolic Z-matrix:
 Charge =  0 Multiplicity = 5
 H
 H                    1     1.21894 
 H                    1     1.21894  2     129. 
 H                    2     1.21894  1     51.      3     0.       0
 H                    3     1.21894  1     180.     2     0.       0
 H                    4     1.21894  2     180.     1     0.       0
 H                    5     1.21894  3     180.     2     0.       0
 H                    6     1.21894  4     180.     1     0.       0
 H                    7     1.21894  5     180.     2     0.       0
 H                    8     1.21894  6     180.     1     0.       0
 
                          Input orientation:                          
 ---------------------------------------------------------------------
 Center     Atomic      Atomic             Coordinates (Angstroms)
 Number     Number       Type             X           Y           Z
 ---------------------------------------------------------------------
      1          1           0        0.000000    0.000000    0.000000
      2          1           0        0.000000    0.000000    1.218943
      3          1           0        0.947297    0.000000   -0.767106
      4          1           0        0.947297    0.000000    0.451837
      5          1           0        1.894593    0.000000   -1.534211
      6          1           0        1.894593    0.000000   -0.315268
      7          1           0        2.841890    0.000000   -2.301317
      8          1           0        2.841890    0.000000   -1.082374
      9          1           0        3.789186    0.000000   -3.068423
     10          1           0        3.789186    0.000000   -1.849480
 ---------------------------------------------------------------------
                    Distance matrix (angstroms):
                    1          2          3          4          5
     1  H    0.000000
     2  H    1.218943   0.000000
     3  H    1.218943   2.200400   0.000000
     4  H    1.049537   1.218943   1.218943   0.000000
     5  H    2.437886   3.342057   1.218943   2.200400   0.000000
     6  H    1.920645   2.437886   1.049537   1.218943   1.218943
     7  H    3.656829   4.524220   2.437886   3.342057   1.218943
     8  H    3.041031   3.656829   1.920645   2.437886   1.049537
     9  H    4.875772   5.721839   3.656829   4.524220   2.437886
    10  H    4.216457   4.875772   3.041031   3.656829   1.920645
                    6          7          8          9         10
     6  H    0.000000
     7  H    2.200400   0.000000
     8  H    1.218943   1.218943   0.000000
     9  H    3.342057   1.218943   2.200400   0.000000
    10  H    2.437886   1.049537   1.218943   1.218943   0.000000
 Stoichiometry    H10(5)
 Framework group  C2H[SGH(H10)]
 Deg. of freedom     9
 Full point group                 C2H     NOp   4
 Largest Abelian subgroup         C2H     NOp   4
 Largest concise Abelian subgroup C2      NOp   2
                         Standard orientation:                         
 ---------------------------------------------------------------------
 Center     Atomic      Atomic             Coordinates (Angstroms)
 Number     Number       Type             X           Y           Z
 ---------------------------------------------------------------------
      1          1           0        1.894593   -0.924740    0.000000
      2          1           0        1.894593   -2.143683    0.000000
      3          1           0        0.947297   -0.157634    0.000000
      4          1           0        0.947297   -1.376577    0.000000
      5          1           0        0.000000    0.609471   -0.000000
      6          1           0       -0.000000   -0.609471   -0.000000
      7          1           0       -0.947297    1.376577    0.000000
      8          1           0       -0.947297    0.157634   -0.000000
      9          1           0       -1.894593    2.143683    0.000000
     10          1           0       -1.894593    0.924740    0.000000
 ---------------------------------------------------------------------
 Rotational constants (GHZ):    235.4418000     16.0203431     14.9997068
 General basis read from cards:  (5D, 7F)
 There are     5 symmetry adapted cartesian basis functions of AG  symmetry.
 There are     0 symmetry adapted cartesian basis functions of BG  symmetry.
 There are     0 symmetry adapted cartesian basis functions of AU  symmetry.
 There are     5 symmetry adapted cartesian basis functions of BU  symmetry.
 There are     5 symmetry adapted basis functions of AG  symmetry.
 There are     0 symmetry adapted basis functions of BG  symmetry.
 There are     0 symmetry adapted basis functions of AU  symmetry.
 There are     5 symmetry adapted basis functions of BU  symmetry.
    10 basis functions,   100 primitive gaussians,    10 cartesian basis functions
     7 alpha electrons        3 beta electrons
       nuclear repulsion energy        12.8222368601 Hartrees.
 NAtoms=   10 NActive=   10 NUniq=    5 SFac= 4.00D+00 NAtFMM=   60 NAOKFM=F Big=F
 Integral buffers will be    131072 words long.
 Regular integral format.
 Two-electron integral symmetry is turned on.
 One-electron integrals computed using PRISM.
 NBasis=    10 RedAO= T EigKep=  1.93D-01  NBF=     5     0     0     5
 NBsUse=    10 1.00D-06 EigRej= -1.00D+00 NBFU=     5     0     0     5
 Initial guess from the checkpoint file:  "h10.chk"
 B after Tr=    -0.000000   -0.000000    0.000000
         Rot=    0.999992    0.000000   -0.000000   -0.003879 Ang=  -0.44 deg.
 Initial guess orbital symmetries:
 Alpha Orbitals:
       Occupied  (AG) (BU) (AG) (BU) (BU) (AG) (BU)
       Virtual   (AG) (BU) (AG)
 Beta  Orbitals:
       Occupied  (AG) (BU) (AG)
       Virtual   (BU) (BU) (AG) (AG) (BU) (BU) (AG)
 Initial guess <Sx>= 0.0000 <Sy>= 0.0000 <Sz>= 2.0000 <S**2>= 6.1625 S= 2.0323
 Keep R1 and R2 ints in memory in symmetry-blocked form, NReq=878543.
 Requested convergence on RMS density matrix=1.00D-08 within 128 cycles.
 Requested convergence on MAX density matrix=1.00D-06.
 Requested convergence on             energy=1.00D-06.
 No special actions if energy rises.
 SCF Done:  E(UHF) =  -4.69990431411     A.U. after   11 cycles
            NFock= 11  Conv=0.14D-08     -V/T= 1.8230
 <Sx>= 0.0000 <Sy>= 0.0000 <Sz>= 2.0000 <S**2>= 6.1582 S= 2.0314
 <L.S>= 0.000000000000E+00
 Annihilation of the first spin contaminant:
 S**2 before annihilation     6.1582,   after     6.0043
 Range of M.O.s used for correlation:     1    10
 NBasis=    10 NAE=     7 NBE=     3 NFC=     0 NFV=     0
 NROrb=     10 NOA=     7 NOB=     3 NVA=     3 NVB=     7
 Semi-Direct transformation.
 ModeAB=           4 MOrb=             7 LenV=     134107973
 LASXX=         1176 LTotXX=        1176 LenRXX=        3283
 LTotAB=        2107 MaxLAS=        2100 LenRXY=           0
 NonZer=        4459 LenScr=      655360 LnRSAI=        2100
 LnScr1=      655360 LExtra=           0 Total=      1316103
 MaxDsk=          -1 SrtSym=           T ITran=            3
 JobTyp=1 Pass  1:  I=   1 to   7.
 (rs|ai) integrals will be sorted in core.
 ModeAB=           4 MOrb=             3 LenV=     134107973
 LASXX=          573 LTotXX=         573 LenRXX=         609
 LTotAB=          36 MaxLAS=         900 LenRXY=           0
 NonZer=        1182 LenScr=      655360 LnRSAI=         900
 LnScr1=      655360 LExtra=           0 Total=      1312229
 MaxDsk=          -1 SrtSym=           T ITran=            3
 JobTyp=2 Pass  1:  I=   1 to   3.
 (rs|ai) integrals will be sorted in core.
 Spin components of T(2) and E(2):
     alpha-alpha T2 =       0.2269527770D-02 E2=     -0.2987773306D-02
     alpha-beta  T2 =       0.2650222964D-01 E2=     -0.4056438362D-01
     beta-beta   T2 =       0.1339143998D-02 E2=     -0.2189143883D-02
 ANorm=    0.1014943792D+01
 E2 =    -0.4574130081D-01 EUMP2 =    -0.47456456149149D+01
 (S**2,0)=  0.61582D+01           (S**2,1)=  0.60947D+01
 E(PUHF)=      -0.47080775620D+01        E(PMP2)=      -0.47522103686D+01
 Second order stability test of a single determinant UHF wave function:
 Stabil:  MDV=134217728
 ***********************************************************************
 Matrix         Lowest Root    Major Pairs
 ***********************************************************************
 Internal UHF     0.0044721    Stable
 RUHF --> CUHF (A)0.035579     Stable
 RUHF --> CUHF (B)0.2207833    Stable

 RUHF --> GHF    -0.1645831    7A=4B 7A=5B 6A=7B 4A=5B 4A=8B 3B=8A 4A=9B
 Not stable.
 ***********************************************************************

 **********************************************************************

            Population analysis using the SCF density.

 **********************************************************************

 Orbital symmetries:
 Alpha Orbitals:
       Occupied  (AG) (BU) (AG) (BU) (BU) (AG) (BU)
       Virtual   (AG) (BU) (AG)
 Beta  Orbitals:
       Occupied  (AG) (BU) (AG)
       Virtual   (BU) (BU) (AG) (AG) (BU) (BU) (AG)
 The electronic state is 5-BU.
 Alpha  occ. eigenvalues --   -0.91024  -0.79308  -0.65154  -0.48461  -0.39925
 Alpha  occ. eigenvalues --   -0.34770  -0.16136
 Alpha virt. eigenvalues --    0.13959   0.39469   0.41458
  Beta  occ. eigenvalues --   -0.76625  -0.66229  -0.45466
  Beta virt. eigenvalues --    0.02768   0.05679   0.19413   0.25804   0.41161
  Beta virt. eigenvalues --    0.47304   0.68206
          Condensed to atoms (all electrons):
               1          2          3          4          5          6
     1  H    1.650549  -0.302533  -0.168850   0.038258  -0.038497  -0.099326
     2  H   -0.302533   1.180893  -0.021343   0.161596   0.008154  -0.021607
     3  H   -0.168850  -0.021343   1.117293   0.016782   0.158269  -0.006427
     4  H    0.038258   0.161596   0.016782   0.690298  -0.066419   0.104888
     5  H   -0.038497   0.008154   0.158269  -0.066419   1.098153  -0.101527
     6  H   -0.099326  -0.021607  -0.006427   0.104888  -0.101527   1.098153
     7  H    0.003012   0.000783  -0.018919  -0.001169   0.104888  -0.066419
     8  H    0.029426  -0.006469  -0.173840  -0.018919  -0.006427   0.158269
     9  H    0.000385  -0.000070  -0.006469   0.000783  -0.021607   0.008154
    10  H   -0.002905   0.000385   0.029426   0.003012  -0.099326  -0.038497
               7          8          9         10
     1  H    0.003012   0.029426   0.000385  -0.002905
     2  H    0.000783  -0.006469  -0.000070   0.000385
     3  H   -0.018919  -0.173840  -0.006469   0.029426
     4  H   -0.001169  -0.018919   0.000783   0.003012
     5  H    0.104888  -0.006427  -0.021607  -0.099326
     6  H   -0.066419   0.158269   0.008154  -0.038497
     7  H    0.690298   0.016782   0.161596   0.038258
     8  H    0.016782   1.117293  -0.021343  -0.168850
     9  H    0.161596  -0.021343   1.180893  -0.302533
    10  H    0.038258  -0.168850  -0.302533   1.650549
          Atomic-Atomic Spin Densities.
               1          2          3          4          5          6
     1  H    1.482040  -0.361980  -0.161161  -0.193984  -0.014748  -0.068506
     2  H   -0.361980   1.096245  -0.015758   0.029948   0.013651  -0.006209
     3  H   -0.161161  -0.015758   0.951242  -0.017539   0.058083  -0.155285
     4  H   -0.193984   0.029948  -0.017539  -0.290178  -0.011297   0.180204
     5  H   -0.014748   0.013651   0.058083  -0.011297   0.647587  -0.312476
     6  H   -0.068506  -0.006209  -0.155285   0.180204  -0.312476   0.647587
     7  H    0.000636   0.000196   0.006918  -0.005731   0.180204  -0.011297
     8  H    0.035414  -0.004669  -0.193278   0.006918  -0.155285   0.058083
     9  H    0.000191  -0.000107  -0.004669   0.000196  -0.006209   0.013651
    10  H   -0.003558   0.000191   0.035414   0.000636  -0.068506  -0.014748
               7          8          9         10
     1  H    0.000636   0.035414   0.000191  -0.003558
     2  H    0.000196  -0.004669  -0.000107   0.000191
     3  H    0.006918  -0.193278  -0.004669   0.035414
     4  H   -0.005731   0.006918   0.000196   0.000636
     5  H    0.180204  -0.155285  -0.006209  -0.068506
     6  H   -0.011297   0.058083   0.013651  -0.014748
     7  H   -0.290178  -0.017539   0.029948  -0.193984
     8  H   -0.017539   0.951242  -0.015758  -0.161161
     9  H    0.029948  -0.015758   1.096245  -0.361980
    10  H   -0.193984  -0.161161  -0.361980   1.482040
 Mulliken charges and spin densities:
               1          2
     1  H   -0.109519   0.714344
     2  H    0.000212   0.751509
     3  H    0.074078   0.503969
     4  H    0.070890  -0.300827
     5  H   -0.035660   0.331006
     6  H   -0.035660   0.331006
     7  H    0.070890  -0.300827
     8  H    0.074078   0.503969
     9  H    0.000212   0.751509
    10  H   -0.109519   0.714344
 Sum of Mulliken charges =  -0.00000   4.00000
 Mulliken charges and spin densities with hydrogens summed into heavy atoms:
               1          2
 Electronic spatial extent (au):  <R**2>=            153.0039
 Charge=             -0.0000 electrons
 Dipole moment (field-independent basis, Debye):
    X=             -0.0000    Y=             -0.0000    Z=              0.0000  Tot=              0.0000
 Quadrupole moment (field-independent basis, Debye-Ang):
   XX=            -17.2006   YY=            -15.4258   ZZ=            -12.5931
   XY=              1.7044   XZ=             -0.0000   YZ=              0.0000
 Traceless Quadrupole moment (field-independent basis, Debye-Ang):
   XX=             -2.1274   YY=             -0.3526   ZZ=              2.4800
   XY=              1.7044   XZ=             -0.0000   YZ=              0.0000
 Octapole moment (field-independent basis, Debye-Ang**2):
  XXX=             -0.0000  YYY=              0.0000  ZZZ=             -0.0000  XYY=             -0.0000
  XXY=              0.0000  XXZ=             -0.0000  XZZ=             -0.0000  YZZ=             -0.0000
  YYZ=             -0.0000  XYZ=              0.0000
 Hexadecapole moment (field-independent basis, Debye-Ang**3):
 XXXX=           -180.7904 YYYY=           -164.7156 ZZZZ=            -15.0088 XXXY=             67.1289
 XXXZ=             -0.0000 YYYX=             71.5710 YYYZ=              0.0000 ZZZX=             -0.0000
 ZZZY=              0.0000 XXYY=            -59.2850 XXZZ=            -28.7937 YYZZ=            -26.1722
 XXYZ=              0.0000 YYXZ=             -0.0000 ZZXY=             19.0467
 N-N= 1.282223686006D+01 E-N=-3.512406043559D+01  KE= 5.710748792256D+00
 Symmetry AG   KE= 2.390972657540D+00
 Symmetry BG   KE= 0.000000000000D+00
 Symmetry AU   KE= 0.000000000000D+00
 Symmetry BU   KE= 3.319776134716D+00
                          Isotropic Fermi Contact Couplings
        Atom                 a.u.       MegaHertz       Gauss      10(-4) cm-1
     1  H(1)               0.36972     413.14584     147.42070     137.81062
     2  H(1)               0.30147     336.88472     120.20884     112.37265
     3  H(1)               0.24880     278.02476      99.20614      92.73908
     4  H(1)              -0.09242    -103.27553     -36.85128     -34.44901
     5  H(1)               0.16603     185.53594      66.20384      61.88813
     6  H(1)               0.16603     185.53594      66.20384      61.88813
     7  H(1)              -0.09242    -103.27553     -36.85128     -34.44901
     8  H(1)               0.24880     278.02476      99.20614      92.73908
     9  H(1)               0.30147     336.88472     120.20884     112.37265
    10  H(1)               0.36972     413.14584     147.42070     137.81062
 --------------------------------------------------------
       Center         ----  Spin Dipole Couplings  ----
                      3XX-RR        3YY-RR        3ZZ-RR
 --------------------------------------------------------
     1   Atom       -0.038670      0.069406     -0.030736
     2   Atom       -0.034943      0.057404     -0.022461
     3   Atom        0.088846     -0.011782     -0.077064
     4   Atom        0.104572      0.058789     -0.163361
     5   Atom        0.113386     -0.021665     -0.091721
     6   Atom        0.113386     -0.021665     -0.091721
     7   Atom        0.104572      0.058789     -0.163361
     8   Atom        0.088846     -0.011782     -0.077064
     9   Atom       -0.034943      0.057404     -0.022461
    10   Atom       -0.038670      0.069406     -0.030736
 --------------------------------------------------------
                        XY            XZ            YZ
 --------------------------------------------------------
     1   Atom       -0.087575      0.000000     -0.000000
     2   Atom        0.021497     -0.000000      0.000000
     3   Atom       -0.053937      0.000000     -0.000000
     4   Atom       -0.054454      0.000000     -0.000000
     5   Atom       -0.010964      0.000000     -0.000000
     6   Atom       -0.010964      0.000000     -0.000000
     7   Atom       -0.054454     -0.000000      0.000000
     8   Atom       -0.053937      0.000000     -0.000000
     9   Atom        0.021497     -0.000000      0.000000
    10   Atom       -0.087575     -0.000000     -0.000000
 --------------------------------------------------------


 ---------------------------------------------------------------------------------
              Anisotropic Spin Dipole Couplings in Principal Axis System
 ---------------------------------------------------------------------------------

       Atom             a.u.   MegaHertz   Gauss  10(-4) cm-1        Axes

              Baa    -0.0875   -46.706   -16.666   -15.579  0.8732  0.4873  0.0000
     1 H(1)   Bbb    -0.0307   -16.399    -5.852    -5.470  0.0000  0.0000  1.0000
              Bcc     0.1183    63.105    22.517    21.050 -0.4873  0.8732  0.0000
 
              Baa    -0.0397   -21.183    -7.559    -7.066  0.9764 -0.2161  0.0000
     2 H(1)   Bbb    -0.0225   -11.984    -4.276    -3.998  0.0000  0.0000  1.0000
              Bcc     0.0622    33.167    11.835    11.063  0.2161  0.9764  0.0000
 
              Baa    -0.0771   -41.118   -14.672   -13.715  0.0000  0.0000  1.0000
     3 H(1)   Bbb    -0.0352   -18.796    -6.707    -6.270  0.3987  0.9171  0.0000
              Bcc     0.1123    59.914    21.379    19.985  0.9171 -0.3987  0.0000
 
              Baa    -0.1634   -87.162   -31.102   -29.074  0.0000  0.0000  1.0000
     4 H(1)   Bbb     0.0226    12.064     4.305     4.024  0.5534  0.8329  0.0000
              Bcc     0.1408    75.098    26.797    25.050  0.8329 -0.5534  0.0000
 
              Baa    -0.0917   -48.938   -17.462   -16.324  0.0000  0.0000  1.0000
     5 H(1)   Bbb    -0.0225   -12.031    -4.293    -4.013  0.0804  0.9968  0.0000
              Bcc     0.1143    60.969    21.755    20.337  0.9968 -0.0804  0.0000
 
              Baa    -0.0917   -48.938   -17.462   -16.324  0.0000  0.0000  1.0000
     6 H(1)   Bbb    -0.0225   -12.031    -4.293    -4.013  0.0804  0.9968  0.0000
              Bcc     0.1143    60.969    21.755    20.337  0.9968 -0.0804  0.0000
 
              Baa    -0.1634   -87.162   -31.102   -29.074  0.0000  0.0000  1.0000
     7 H(1)   Bbb     0.0226    12.064     4.305     4.024  0.5534  0.8329  0.0000
              Bcc     0.1408    75.098    26.797    25.050  0.8329 -0.5534  0.0000
 
              Baa    -0.0771   -41.118   -14.672   -13.715  0.0000  0.0000  1.0000
     8 H(1)   Bbb    -0.0352   -18.796    -6.707    -6.270  0.3987  0.9171  0.0000
              Bcc     0.1123    59.914    21.379    19.985  0.9171 -0.3987  0.0000
 
              Baa    -0.0397   -21.183    -7.559    -7.066  0.9764 -0.2161  0.0000
     9 H(1)   Bbb    -0.0225   -11.984    -4.276    -3.998  0.0000  0.0000  1.0000
              Bcc     0.0622    33.167    11.835    11.063  0.2161  0.9764  0.0000
 
              Baa    -0.0875   -46.706   -16.666   -15.579  0.8732  0.4873  0.0000
    10 H(1)   Bbb    -0.0307   -16.399    -5.852    -5.470  0.0000  0.0000  1.0000
              Bcc     0.1183    63.105    22.517    21.050 -0.4873  0.8732 -0.0000
 

 ---------------------------------------------------------------------------------


 Test job not archived.
 1\1\GINC-SULU\Stability\UHF\Gen\H10(5)\LCJ1\23-Feb-2017\0\\#uhf/gen sc
 f(tight,novaracc,noincfock,fulldiag, ) stable(crhf) guess=read geom=no
 crowd test\\hf stability analysis of h10 triangular lattice, y= 0.5247
 6848321648584 alpha= 25.500000000000000\\0,5\H\H,1,1.2189429575\H,1,1.
 2189429575,2,129.\H,2,1.2189429575,1,51.,3,0.,0\H,3,1.2189429575,1,180
 .,2,0.,0\H,4,1.2189429575,2,180.,1,0.,0\H,5,1.2189429575,3,180.,2,0.,0
 \H,6,1.2189429575,4,180.,1,0.,0\H,7,1.2189429575,5,180.,2,0.,0\H,8,1.2
 189429575,6,180.,1,0.,0\\Version=ES64L-G09RevE.01\State=5-BU\HF=-4.699
 9043\MP2=-4.7456456\PUHF=-4.7080776\PMP2-0=-4.7522104\S2=6.158213\S2-1
 =6.094673\S2A=6.004298\RMSD=1.360e-09\Dipole=0.,0.,0.\Quadrupole=-1.58
 16916,1.8438509,-0.2621593,0.,1.2671983,0.\PG=C02H [SGH(H10)]\\@


 A MUSTACHE HAIR ACROSS A CHIP IS LIKE A REDWOOD
 TREE FALLING THROUGH A HOUSING PROJECT.
 - AN IBM MANAGER IN EAST FISHKILL, NEW YORK
   AS QUOTED IN "FROM SANDS TO CIRCUITS", IBM INNOVATION JANUARY 1985.
 Job cpu time:       0 days  0 hours  0 minutes  0.9 seconds.
 File lengths (MBytes):  RWF=     94 Int=      0 D2E=      0 Chk=      2 Scr=      2
 Normal termination of Gaussian 09 at Thu Feb 23 12:44:36 2017.
