 Entering Gaussian System, Link 0=g09
 AtFile(1): H.gbs
            H     0
            S   10   1.00
               1000.000000000000            0.000068713567
                316.227766000000            0.000169141320
                100.000000000000            0.000823394812
                 31.622776600000            0.003425569236
                 10.000000000000            0.013951996000
                  3.162277660000            0.056909313560
                  1.000000000000            0.198286399900
                  0.316227766000            0.496922426700
                  0.100000000000            0.369846276400
                  0.031622776600            0.003752720039
            ****
 Initial command:
 /projects/guscus/apps/gau/g09-e1/g09/l1.exe "/users/lcj1/gaussian/h10/2rows_uhf/ag2bu3/quintet/Gau-10593.inp" -scrdir="/users/lcj1/gaussian/h10/2rows_uhf/ag2bu3/quintet/"
 Entering Link 1 = /projects/guscus/apps/gau/g09-e1/g09/l1.exe PID=     10594.
  
 Copyright (c) 1988,1990,1992,1993,1995,1998,2003,2009,2015,
            Gaussian, Inc.  All Rights Reserved.
  
 This is part of the Gaussian(R) 09 program.  It is based on
 the Gaussian(R) 03 system (copyright 2003, Gaussian, Inc.),
 the Gaussian(R) 98 system (copyright 1998, Gaussian, Inc.),
 the Gaussian(R) 94 system (copyright 1995, Gaussian, Inc.),
 the Gaussian 92(TM) system (copyright 1992, Gaussian, Inc.),
 the Gaussian 90(TM) system (copyright 1990, Gaussian, Inc.),
 the Gaussian 88(TM) system (copyright 1988, Gaussian, Inc.),
 the Gaussian 86(TM) system (copyright 1986, Carnegie Mellon
 University), and the Gaussian 82(TM) system (copyright 1983,
 Carnegie Mellon University). Gaussian is a federally registered
 trademark of Gaussian, Inc.
  
 This software contains proprietary and confidential information,
 including trade secrets, belonging to Gaussian, Inc.
  
 This software is provided under written license and may be
 used, copied, transmitted, or stored only in accord with that
 written license.
  
 The following legend is applicable only to US Government
 contracts under FAR:
  
                    RESTRICTED RIGHTS LEGEND
  
 Use, reproduction and disclosure by the US Government is
 subject to restrictions as set forth in subparagraphs (a)
 and (c) of the Commercial Computer Software - Restricted
 Rights clause in FAR 52.227-19.
  
 Gaussian, Inc.
 340 Quinnipiac St., Bldg. 40, Wallingford CT 06492
  
  
 ---------------------------------------------------------------
 Warning -- This program may not be used in any manner that
 competes with the business of Gaussian, Inc. or will provide
 assistance to any competitor of Gaussian, Inc.  The licensee
 of this program is prohibited from giving any competitor of
 Gaussian, Inc. access to this program.  By using this program,
 the user acknowledges that Gaussian, Inc. is engaged in the
 business of creating and licensing software in the field of
 computational chemistry and represents and warrants to the
 licensee that it is not a competitor of Gaussian, Inc. and that
 it will not use this program in any manner prohibited above.
 ---------------------------------------------------------------
  

 Cite this work as:
 Gaussian 09, Revision E.01,
 M. J. Frisch, G. W. Trucks, H. B. Schlegel, G. E. Scuseria, 
 M. A. Robb, J. R. Cheeseman, G. Scalmani, V. Barone, B. Mennucci, 
 G. A. Petersson, H. Nakatsuji, M. Caricato, X. Li, H. P. Hratchian, 
 A. F. Izmaylov, J. Bloino, G. Zheng, J. L. Sonnenberg, M. Hada, 
 M. Ehara, K. Toyota, R. Fukuda, J. Hasegawa, M. Ishida, T. Nakajima, 
 Y. Honda, O. Kitao, H. Nakai, T. Vreven, J. A. Montgomery, Jr., 
 J. E. Peralta, F. Ogliaro, M. Bearpark, J. J. Heyd, E. Brothers, 
 K. N. Kudin, V. N. Staroverov, T. Keith, R. Kobayashi, J. Normand, 
 K. Raghavachari, A. Rendell, J. C. Burant, S. S. Iyengar, J. Tomasi, 
 M. Cossi, N. Rega, J. M. Millam, M. Klene, J. E. Knox, J. B. Cross, 
 V. Bakken, C. Adamo, J. Jaramillo, R. Gomperts, R. E. Stratmann, 
 O. Yazyev, A. J. Austin, R. Cammi, C. Pomelli, J. W. Ochterski, 
 R. L. Martin, K. Morokuma, V. G. Zakrzewski, G. A. Voth, 
 P. Salvador, J. J. Dannenberg, S. Dapprich, A. D. Daniels, 
 O. Farkas, J. B. Foresman, J. V. Ortiz, J. Cioslowski, 
 and D. J. Fox, Gaussian, Inc., Wallingford CT, 2013.
 
 ******************************************
 Gaussian 09:  ES64L-G09RevE.01 30-Nov-2015
                23-Feb-2017 
 ******************************************
 %chk=h10.chk
 ----------------------------------------------------------------------
 #uhf/gen scf(tight,novaracc,noincfock,fulldiag, ) stable(crhf) guess=r
 ead geom=nocrowd test
 ----------------------------------------------------------------------
 1/38=1/1;
 2/12=1,17=6,18=5,40=1/2;
 3/5=7,16=1,25=1,30=1,116=2/1,2,3;
 4/5=1/1;
 5/5=100002,16=1,32=2,38=6/2;
 8/6=1,10=90,11=11/1,4;
 9/8=4,13=1/2;
 6/7=2,8=2,9=2,10=2,28=1/1;
 99/5=1,9=1/99;
 ----------------------------------------------------------------------
 hf stability analysis of h10 triangular lattice, y= 0.5394520384962004
 9 alpha= 26.750000000000000
 ----------------------------------------------------------------------
 Symbolic Z-matrix:
 Charge =  0 Multiplicity = 5
 H
 H                    1     1.19852 
 H                    1     1.19852  2     126.5 
 H                    2     1.19852  1     53.5     3     0.       0
 H                    3     1.19852  1     180.     2     0.       0
 H                    4     1.19852  2     180.     1     0.       0
 H                    5     1.19852  3     180.     2     0.       0
 H                    6     1.19852  4     180.     1     0.       0
 H                    7     1.19852  5     180.     2     0.       0
 H                    8     1.19852  6     180.     1     0.       0
 
                          Input orientation:                          
 ---------------------------------------------------------------------
 Center     Atomic      Atomic             Coordinates (Angstroms)
 Number     Number       Type             X           Y           Z
 ---------------------------------------------------------------------
      1          1           0        0.000000    0.000000    0.000000
      2          1           0        0.000000    0.000000    1.198520
      3          1           0        0.963439    0.000000   -0.712907
      4          1           0        0.963439    0.000000    0.485613
      5          1           0        1.926877    0.000000   -1.425814
      6          1           0        1.926877    0.000000   -0.227294
      7          1           0        2.890316    0.000000   -2.138721
      8          1           0        2.890316    0.000000   -0.940201
      9          1           0        3.853754    0.000000   -2.851628
     10          1           0        3.853754    0.000000   -1.653108
 ---------------------------------------------------------------------
                    Distance matrix (angstroms):
                    1          2          3          4          5
     1  H    0.000000
     2  H    1.198520   0.000000
     3  H    1.198520   2.140506   0.000000
     4  H    1.078904   1.198520   1.198520   0.000000
     5  H    2.397040   3.255762   1.198520   2.140506   0.000000
     6  H    1.940237   2.397040   1.078904   1.198520   1.198520
     7  H    3.595560   4.414873   2.397040   3.255762   1.198520
     8  H    3.039392   3.595560   1.940237   2.397040   1.078904
     9  H    4.794080   5.590628   3.595560   4.414873   2.397040
    10  H    4.193351   4.794080   3.039392   3.595560   1.940237
                    6          7          8          9         10
     6  H    0.000000
     7  H    2.140506   0.000000
     8  H    1.198520   1.198520   0.000000
     9  H    3.255762   1.198520   2.140506   0.000000
    10  H    2.397040   1.078904   1.198520   1.198520   0.000000
 Stoichiometry    H10(5)
 Framework group  C2H[SGH(H10)]
 Deg. of freedom     9
 Full point group                 C2H     NOp   4
 Largest Abelian subgroup         C2H     NOp   4
 Largest concise Abelian subgroup C2      NOp   2
                         Standard orientation:                         
 ---------------------------------------------------------------------
 Center     Atomic      Atomic             Coordinates (Angstroms)
 Number     Number       Type             X           Y           Z
 ---------------------------------------------------------------------
      1          1           0        1.926877   -0.826554    0.000000
      2          1           0        1.926877   -2.025074    0.000000
      3          1           0        0.963439   -0.113647    0.000000
      4          1           0        0.963439   -1.312167    0.000000
      5          1           0       -0.000000    0.599260   -0.000000
      6          1           0       -0.000000   -0.599260    0.000000
      7          1           0       -0.963439    1.312167   -0.000000
      8          1           0       -0.963439    0.113647   -0.000000
      9          1           0       -1.926877    2.025074   -0.000000
     10          1           0       -1.926877    0.826554   -0.000000
 ---------------------------------------------------------------------
 Rotational constants (GHZ):    226.4499762     16.6564752     15.5152543
 General basis read from cards:  (5D, 7F)
 There are     5 symmetry adapted cartesian basis functions of AG  symmetry.
 There are     0 symmetry adapted cartesian basis functions of BG  symmetry.
 There are     0 symmetry adapted cartesian basis functions of AU  symmetry.
 There are     5 symmetry adapted cartesian basis functions of BU  symmetry.
 There are     5 symmetry adapted basis functions of AG  symmetry.
 There are     0 symmetry adapted basis functions of BG  symmetry.
 There are     0 symmetry adapted basis functions of AU  symmetry.
 There are     5 symmetry adapted basis functions of BU  symmetry.
    10 basis functions,   100 primitive gaussians,    10 cartesian basis functions
     7 alpha electrons        3 beta electrons
       nuclear repulsion energy        12.9392687995 Hartrees.
 NAtoms=   10 NActive=   10 NUniq=    5 SFac= 4.00D+00 NAtFMM=   60 NAOKFM=F Big=F
 Integral buffers will be    131072 words long.
 Regular integral format.
 Two-electron integral symmetry is turned on.
 One-electron integrals computed using PRISM.
 NBasis=    10 RedAO= T EigKep=  1.94D-01  NBF=     5     0     0     5
 NBsUse=    10 1.00D-06 EigRej= -1.00D+00 NBFU=     5     0     0     5
 Initial guess from the checkpoint file:  "h10.chk"
 B after Tr=     0.000000   -0.000000    0.000000
         Rot=    0.999992   -0.000000   -0.000000   -0.003879 Ang=  -0.44 deg.
 Initial guess orbital symmetries:
 Alpha Orbitals:
       Occupied  (AG) (BU) (AG) (BU) (BU) (AG) (BU)
       Virtual   (AG) (AG) (BU)
 Beta  Orbitals:
       Occupied  (AG) (BU) (AG)
       Virtual   (BU) (BU) (AG) (AG) (BU) (BU) (AG)
 Initial guess <Sx>= 0.0000 <Sy>= 0.0000 <Sz>= 2.0000 <S**2>= 6.1346 S= 2.0268
 Keep R1 and R2 ints in memory in symmetry-blocked form, NReq=878627.
 Requested convergence on RMS density matrix=1.00D-08 within 128 cycles.
 Requested convergence on MAX density matrix=1.00D-06.
 Requested convergence on             energy=1.00D-06.
 No special actions if energy rises.
 SCF Done:  E(UHF) =  -4.69678559749     A.U. after   10 cycles
            NFock= 10  Conv=0.88D-08     -V/T= 1.8252
 <Sx>= 0.0000 <Sy>= 0.0000 <Sz>= 2.0000 <S**2>= 6.1283 S= 2.0255
 <L.S>= 0.000000000000E+00
 Annihilation of the first spin contaminant:
 S**2 before annihilation     6.1283,   after     6.0027
 Range of M.O.s used for correlation:     1    10
 NBasis=    10 NAE=     7 NBE=     3 NFC=     0 NFV=     0
 NROrb=     10 NOA=     7 NOB=     3 NVA=     3 NVB=     7
 Semi-Direct transformation.
 ModeAB=           4 MOrb=             7 LenV=     134107273
 LASXX=         1176 LTotXX=        1176 LenRXX=        3283
 LTotAB=        2107 MaxLAS=        2100 LenRXY=           0
 NonZer=        4459 LenScr=      655360 LnRSAI=        2100
 LnScr1=      655360 LExtra=           0 Total=      1316103
 MaxDsk=          -1 SrtSym=           T ITran=            3
 JobTyp=1 Pass  1:  I=   1 to   7.
 (rs|ai) integrals will be sorted in core.
 ModeAB=           4 MOrb=             3 LenV=     134107273
 LASXX=          573 LTotXX=         573 LenRXX=         609
 LTotAB=          36 MaxLAS=         900 LenRXY=           0
 NonZer=        1182 LenScr=      655360 LnRSAI=         900
 LnScr1=      655360 LExtra=           0 Total=      1312229
 MaxDsk=          -1 SrtSym=           T ITran=            3
 JobTyp=2 Pass  1:  I=   1 to   3.
 (rs|ai) integrals will be sorted in core.
 Spin components of T(2) and E(2):
     alpha-alpha T2 =       0.2789622521D-02 E2=     -0.3680867928D-02
     alpha-beta  T2 =       0.2782176005D-01 E2=     -0.4218639534D-01
     beta-beta   T2 =       0.1440103479D-02 E2=     -0.2350724670D-02
 ANorm=    0.1015899348D+01
 E2 =    -0.4821798793D-01 EUMP2 =    -0.47450035854261D+01
 (S**2,0)=  0.61283D+01           (S**2,1)=  0.60747D+01
 E(PUHF)=      -0.47034942360D+01        E(PMP2)=      -0.47503317205D+01
 Second order stability test of a single determinant UHF wave function:
 Stabil:  MDV=134217728
 ***********************************************************************
 Matrix         Lowest Root    Major Pairs
 ***********************************************************************
 Internal UHF     0.0029035    Stable
 RUHF --> CUHF (A)0.0357824    Stable
 RUHF --> CUHF (B)0.2049119    Stable
 RUHF --> GHF    -0.1669513    7A=4B
 Not stable.
 ***********************************************************************

 **********************************************************************

            Population analysis using the SCF density.

 **********************************************************************

 Orbital symmetries:
 Alpha Orbitals:
       Occupied  (AG) (BU) (AG) (BU) (BU) (AG) (BU)
       Virtual   (AG) (AG) (BU)
 Beta  Orbitals:
       Occupied  (AG) (BU) (AG)
       Virtual   (BU) (BU) (AG) (AG) (BU) (BU) (AG)
 The electronic state is 5-BU.
 Alpha  occ. eigenvalues --   -0.91750  -0.79861  -0.64902  -0.48447  -0.40743
 Alpha  occ. eigenvalues --   -0.35188  -0.15458
 Alpha virt. eigenvalues --    0.14670   0.40160   0.41924
  Beta  occ. eigenvalues --   -0.77030  -0.65897  -0.45070
  Beta virt. eigenvalues --    0.02401   0.04475   0.18509   0.26600   0.40715
  Beta virt. eigenvalues --    0.51095   0.67749
          Condensed to atoms (all electrons):
               1          2          3          4          5          6
     1  H    1.680814  -0.274368  -0.148173  -0.046559  -0.052080  -0.077430
     2  H   -0.274368   1.119199  -0.033649   0.206965   0.009742  -0.033177
     3  H   -0.148173  -0.033649   1.092096   0.037934   0.168179  -0.033350
     4  H   -0.046559   0.206965   0.037934   0.722842  -0.062986   0.112288
     5  H   -0.052080   0.009742   0.168179  -0.062986   1.101167  -0.100238
     6  H   -0.077430  -0.033177  -0.033350   0.112288  -0.100238   1.101167
     7  H    0.003878   0.001039  -0.030484  -0.002120   0.112288  -0.062986
     8  H    0.030836  -0.006535  -0.155441  -0.030484  -0.033350   0.168179
     9  H    0.000504  -0.000108  -0.006535   0.001039  -0.033177   0.009742
    10  H   -0.003361   0.000504   0.030836   0.003878  -0.077430  -0.052080
               7          8          9         10
     1  H    0.003878   0.030836   0.000504  -0.003361
     2  H    0.001039  -0.006535  -0.000108   0.000504
     3  H   -0.030484  -0.155441  -0.006535   0.030836
     4  H   -0.002120  -0.030484   0.001039   0.003878
     5  H    0.112288  -0.033350  -0.033177  -0.077430
     6  H   -0.062986   0.168179   0.009742  -0.052080
     7  H    0.722842   0.037934   0.206965  -0.046559
     8  H    0.037934   1.092096  -0.033649  -0.148173
     9  H    0.206965  -0.033649   1.119199  -0.274368
    10  H   -0.046559  -0.148173  -0.274368   1.680814
          Atomic-Atomic Spin Densities.
               1          2          3          4          5          6
     1  H    1.512584  -0.344701  -0.143633  -0.263912  -0.026514  -0.045968
     2  H   -0.344701   1.006185  -0.028416   0.056343   0.016952  -0.014534
     3  H   -0.143633  -0.028416   0.928053  -0.006675   0.069792  -0.175563
     4  H   -0.263912   0.056343  -0.006675  -0.191824  -0.005727   0.187158
     5  H   -0.026514   0.016952   0.069792  -0.005727   0.639755  -0.321521
     6  H   -0.045968  -0.014534  -0.175563   0.187158  -0.321521   0.639755
     7  H    0.001402   0.000285  -0.004532  -0.006335   0.187158  -0.005727
     8  H    0.036733  -0.004344  -0.171463  -0.004532  -0.175563   0.069792
     9  H    0.000248  -0.000169  -0.004344   0.000285  -0.014534   0.016952
    10  H   -0.004055   0.000248   0.036733   0.001402  -0.045968  -0.026514
               7          8          9         10
     1  H    0.001402   0.036733   0.000248  -0.004055
     2  H    0.000285  -0.004344  -0.000169   0.000248
     3  H   -0.004532  -0.171463  -0.004344   0.036733
     4  H   -0.006335  -0.004532   0.000285   0.001402
     5  H    0.187158  -0.175563  -0.014534  -0.045968
     6  H   -0.005727   0.069792   0.016952  -0.026514
     7  H   -0.191824  -0.006675   0.056343  -0.263912
     8  H   -0.006675   0.928053  -0.028416  -0.143633
     9  H    0.056343  -0.028416   1.006185  -0.344701
    10  H   -0.263912  -0.143633  -0.344701   1.512584
 Mulliken charges and spin densities:
               1          2
     1  H   -0.114063   0.722184
     2  H    0.010388   0.687851
     3  H    0.078586   0.499952
     4  H    0.057203  -0.233818
     5  H   -0.032114   0.323831
     6  H   -0.032114   0.323831
     7  H    0.057203  -0.233818
     8  H    0.078586   0.499952
     9  H    0.010388   0.687851
    10  H   -0.114063   0.722184
 Sum of Mulliken charges =  -0.00000   4.00000
 Mulliken charges and spin densities with hydrogens summed into heavy atoms:
               1          2
 Electronic spatial extent (au):  <R**2>=            148.8922
 Charge=             -0.0000 electrons
 Dipole moment (field-independent basis, Debye):
    X=              0.0000    Y=              0.0000    Z=             -0.0000  Tot=              0.0000
 Quadrupole moment (field-independent basis, Debye-Ang):
   XX=            -17.3723   YY=            -15.0517   ZZ=            -12.6008
   XY=              1.2633   XZ=             -0.0000   YZ=              0.0000
 Traceless Quadrupole moment (field-independent basis, Debye-Ang):
   XX=             -2.3641   YY=             -0.0435   ZZ=              2.4075
   XY=              1.2633   XZ=             -0.0000   YZ=              0.0000
 Octapole moment (field-independent basis, Debye-Ang**2):
  XXX=             -0.0000  YYY=              0.0000  ZZZ=             -0.0000  XYY=             -0.0000
  XXY=              0.0000  XXZ=             -0.0000  XZZ=             -0.0000  YZZ=              0.0000
  YYZ=             -0.0000  XYZ=              0.0000
 Hexadecapole moment (field-independent basis, Debye-Ang**3):
 XXXX=           -188.6074 YYYY=           -144.9797 ZZZZ=            -15.0160 XXXY=             61.6596
 XXXZ=             -0.0000 YYYX=             64.2153 YYYZ=              0.0000 ZZZX=             -0.0000
 ZZZY=              0.0000 XXYY=            -54.6196 XXZZ=            -29.7091 YYZZ=            -23.9107
 XXYZ=              0.0000 YYXZ=             -0.0000 ZZXY=             18.0070
 N-N= 1.293926879954D+01 E-N=-3.532040475271D+01  KE= 5.691756081746D+00
 Symmetry AG   KE= 2.378235175908D+00
 Symmetry BG   KE= 0.000000000000D+00
 Symmetry AU   KE= 0.000000000000D+00
 Symmetry BU   KE= 3.313520905839D+00
                          Isotropic Fermi Contact Couplings
        Atom                 a.u.       MegaHertz       Gauss      10(-4) cm-1
     1  H(1)               0.37513     419.19125     149.57786     139.82715
     2  H(1)               0.27673     309.24155     110.34507     103.15188
     3  H(1)               0.24420     272.88307      97.37146      91.02399
     4  H(1)              -0.06521     -72.87224     -26.00263     -24.30756
     5  H(1)               0.16341     182.60271      65.15718      60.90971
     6  H(1)               0.16341     182.60271      65.15718      60.90971
     7  H(1)              -0.06521     -72.87224     -26.00263     -24.30756
     8  H(1)               0.24420     272.88307      97.37146      91.02399
     9  H(1)               0.27673     309.24155     110.34507     103.15188
    10  H(1)               0.37513     419.19125     149.57786     139.82715
 --------------------------------------------------------
       Center         ----  Spin Dipole Couplings  ----
                      3XX-RR        3YY-RR        3ZZ-RR
 --------------------------------------------------------
     1   Atom       -0.026998      0.061527     -0.034529
     2   Atom       -0.032269      0.061704     -0.029436
     3   Atom        0.093183     -0.012293     -0.080890
     4   Atom        0.101265      0.057507     -0.158772
     5   Atom        0.115580     -0.021354     -0.094225
     6   Atom        0.115580     -0.021354     -0.094225
     7   Atom        0.101265      0.057507     -0.158772
     8   Atom        0.093183     -0.012293     -0.080890
     9   Atom       -0.032269      0.061704     -0.029436
    10   Atom       -0.026998      0.061527     -0.034529
 --------------------------------------------------------
                        XY            XZ            YZ
 --------------------------------------------------------
     1   Atom       -0.086615      0.000000     -0.000000
     2   Atom        0.017693     -0.000000      0.000000
     3   Atom       -0.058648      0.000000      0.000000
     4   Atom       -0.058818      0.000000     -0.000000
     5   Atom       -0.019445      0.000000     -0.000000
     6   Atom       -0.019445      0.000000     -0.000000
     7   Atom       -0.058818      0.000000     -0.000000
     8   Atom       -0.058648      0.000000     -0.000000
     9   Atom        0.017693      0.000000     -0.000000
    10   Atom       -0.086615      0.000000      0.000000
 --------------------------------------------------------


 ---------------------------------------------------------------------------------
              Anisotropic Spin Dipole Couplings in Principal Axis System
 ---------------------------------------------------------------------------------

       Atom             a.u.   MegaHertz   Gauss  10(-4) cm-1        Axes

              Baa    -0.0800   -42.687   -15.232   -14.239  0.8530  0.5220  0.0000
     1 H(1)   Bbb    -0.0345   -18.423    -6.574    -6.145  0.0000  0.0000  1.0000
              Bcc     0.1145    61.110    21.805    20.384 -0.5220  0.8530  0.0000
 
              Baa    -0.0355   -18.936    -6.757    -6.316  0.9838 -0.1791  0.0000
     2 H(1)   Bbb    -0.0294   -15.705    -5.604    -5.239  0.0000  0.0000  1.0000
              Bcc     0.0649    34.641    12.361    11.555  0.1791  0.9838  0.0000
 
              Baa    -0.0809   -43.159   -15.400   -14.396  0.0000  0.0000  1.0000
     3 H(1)   Bbb    -0.0384   -20.503    -7.316    -6.839  0.4070  0.9134 -0.0000
              Bcc     0.1193    63.662    22.716    21.235  0.9134 -0.4070  0.0000
 
              Baa    -0.1588   -84.713   -30.228   -28.257  0.0000  0.0000  1.0000
     4 H(1)   Bbb     0.0166     8.874     3.166     2.960  0.5707  0.8212  0.0000
              Bcc     0.1421    75.840    27.062    25.297  0.8212 -0.5707  0.0000
 
              Baa    -0.0942   -50.274   -17.939   -16.770  0.0000  0.0000  1.0000
     5 H(1)   Bbb    -0.0241   -12.838    -4.581    -4.282  0.1379  0.9904  0.0000
              Bcc     0.1183    63.113    22.520    21.052  0.9904 -0.1379  0.0000
 
              Baa    -0.0942   -50.274   -17.939   -16.770  0.0000  0.0000  1.0000
     6 H(1)   Bbb    -0.0241   -12.838    -4.581    -4.282  0.1379  0.9904  0.0000
              Bcc     0.1183    63.113    22.520    21.052  0.9904 -0.1379  0.0000
 
              Baa    -0.1588   -84.713   -30.228   -28.257  0.0000  0.0000  1.0000
     7 H(1)   Bbb     0.0166     8.874     3.166     2.960  0.5707  0.8212  0.0000
              Bcc     0.1421    75.840    27.062    25.297  0.8212 -0.5707  0.0000
 
              Baa    -0.0809   -43.159   -15.400   -14.396  0.0000  0.0000  1.0000
     8 H(1)   Bbb    -0.0384   -20.503    -7.316    -6.839  0.4070  0.9134  0.0000
              Bcc     0.1193    63.662    22.716    21.235  0.9134 -0.4070  0.0000
 
              Baa    -0.0355   -18.936    -6.757    -6.316  0.9838 -0.1791  0.0000
     9 H(1)   Bbb    -0.0294   -15.705    -5.604    -5.239  0.0000  0.0000  1.0000
              Bcc     0.0649    34.641    12.361    11.555  0.1791  0.9838  0.0000
 
              Baa    -0.0800   -42.687   -15.232   -14.239  0.8530  0.5220  0.0000
    10 H(1)   Bbb    -0.0345   -18.423    -6.574    -6.145  0.0000  0.0000  1.0000
              Bcc     0.1145    61.110    21.805    20.384 -0.5220  0.8530 -0.0000
 

 ---------------------------------------------------------------------------------


 Test job not archived.
 1\1\GINC-SULU\Stability\UHF\Gen\H10(5)\LCJ1\23-Feb-2017\0\\#uhf/gen sc
 f(tight,novaracc,noincfock,fulldiag, ) stable(crhf) guess=read geom=no
 crowd test\\hf stability analysis of h10 triangular lattice, y= 0.5394
 5203849620049 alpha= 26.750000000000000\\0,5\H\H,1,1.1985200912\H,1,1.
 1985200912,2,126.5\H,2,1.1985200912,1,53.5,3,0.,0\H,3,1.1985200912,1,1
 80.,2,0.,0\H,4,1.1985200912,2,180.,1,0.,0\H,5,1.1985200912,3,180.,2,0.
 ,0\H,6,1.1985200912,4,180.,1,0.,0\H,7,1.1985200912,5,180.,2,0.,0\H,8,1
 .1985200912,6,180.,1,0.,0\\Version=ES64L-G09RevE.01\State=5-BU\HF=-4.6
 967856\MP2=-4.7450036\PUHF=-4.7034942\PMP2-0=-4.7503317\S2=6.128273\S2
 -1=6.074657\S2A=6.002673\RMSD=8.756e-09\Dipole=0.,0.,0.\Quadrupole=-1.
 7576248,1.7899369,-0.0323121,0.,0.9391956,0.\PG=C02H [SGH(H10)]\\@


 There was a great rattling of the words for the fewness of ideas.
                   -- Charles Baxter in Gryphon
 Job cpu time:       0 days  0 hours  0 minutes  1.0 seconds.
 File lengths (MBytes):  RWF=     94 Int=      0 D2E=      0 Chk=      2 Scr=      2
 Normal termination of Gaussian 09 at Thu Feb 23 12:44:49 2017.
