 Entering Gaussian System, Link 0=g09
 AtFile(1): H.gbs
            H     0
            S   10   1.00
               1000.000000000000            0.000068713567
                316.227766000000            0.000169141320
                100.000000000000            0.000823394812
                 31.622776600000            0.003425569236
                 10.000000000000            0.013951996000
                  3.162277660000            0.056909313560
                  1.000000000000            0.198286399900
                  0.316227766000            0.496922426700
                  0.100000000000            0.369846276400
                  0.031622776600            0.003752720039
            ****
 Initial command:
 /projects/guscus/apps/gau/g09-e1/g09/l1.exe "/users/lcj1/gaussian/h10/2rows_uhf/ag2bu3/quintet/Gau-16888.inp" -scrdir="/users/lcj1/gaussian/h10/2rows_uhf/ag2bu3/quintet/"
 Entering Link 1 = /projects/guscus/apps/gau/g09-e1/g09/l1.exe PID=     16889.
  
 Copyright (c) 1988,1990,1992,1993,1995,1998,2003,2009,2015,
            Gaussian, Inc.  All Rights Reserved.
  
 This is part of the Gaussian(R) 09 program.  It is based on
 the Gaussian(R) 03 system (copyright 2003, Gaussian, Inc.),
 the Gaussian(R) 98 system (copyright 1998, Gaussian, Inc.),
 the Gaussian(R) 94 system (copyright 1995, Gaussian, Inc.),
 the Gaussian 92(TM) system (copyright 1992, Gaussian, Inc.),
 the Gaussian 90(TM) system (copyright 1990, Gaussian, Inc.),
 the Gaussian 88(TM) system (copyright 1988, Gaussian, Inc.),
 the Gaussian 86(TM) system (copyright 1986, Carnegie Mellon
 University), and the Gaussian 82(TM) system (copyright 1983,
 Carnegie Mellon University). Gaussian is a federally registered
 trademark of Gaussian, Inc.
  
 This software contains proprietary and confidential information,
 including trade secrets, belonging to Gaussian, Inc.
  
 This software is provided under written license and may be
 used, copied, transmitted, or stored only in accord with that
 written license.
  
 The following legend is applicable only to US Government
 contracts under FAR:
  
                    RESTRICTED RIGHTS LEGEND
  
 Use, reproduction and disclosure by the US Government is
 subject to restrictions as set forth in subparagraphs (a)
 and (c) of the Commercial Computer Software - Restricted
 Rights clause in FAR 52.227-19.
  
 Gaussian, Inc.
 340 Quinnipiac St., Bldg. 40, Wallingford CT 06492
  
  
 ---------------------------------------------------------------
 Warning -- This program may not be used in any manner that
 competes with the business of Gaussian, Inc. or will provide
 assistance to any competitor of Gaussian, Inc.  The licensee
 of this program is prohibited from giving any competitor of
 Gaussian, Inc. access to this program.  By using this program,
 the user acknowledges that Gaussian, Inc. is engaged in the
 business of creating and licensing software in the field of
 computational chemistry and represents and warrants to the
 licensee that it is not a competitor of Gaussian, Inc. and that
 it will not use this program in any manner prohibited above.
 ---------------------------------------------------------------
  

 Cite this work as:
 Gaussian 09, Revision E.01,
 M. J. Frisch, G. W. Trucks, H. B. Schlegel, G. E. Scuseria, 
 M. A. Robb, J. R. Cheeseman, G. Scalmani, V. Barone, B. Mennucci, 
 G. A. Petersson, H. Nakatsuji, M. Caricato, X. Li, H. P. Hratchian, 
 A. F. Izmaylov, J. Bloino, G. Zheng, J. L. Sonnenberg, M. Hada, 
 M. Ehara, K. Toyota, R. Fukuda, J. Hasegawa, M. Ishida, T. Nakajima, 
 Y. Honda, O. Kitao, H. Nakai, T. Vreven, J. A. Montgomery, Jr., 
 J. E. Peralta, F. Ogliaro, M. Bearpark, J. J. Heyd, E. Brothers, 
 K. N. Kudin, V. N. Staroverov, T. Keith, R. Kobayashi, J. Normand, 
 K. Raghavachari, A. Rendell, J. C. Burant, S. S. Iyengar, J. Tomasi, 
 M. Cossi, N. Rega, J. M. Millam, M. Klene, J. E. Knox, J. B. Cross, 
 V. Bakken, C. Adamo, J. Jaramillo, R. Gomperts, R. E. Stratmann, 
 O. Yazyev, A. J. Austin, R. Cammi, C. Pomelli, J. W. Ochterski, 
 R. L. Martin, K. Morokuma, V. G. Zakrzewski, G. A. Voth, 
 P. Salvador, J. J. Dannenberg, S. Dapprich, A. D. Daniels, 
 O. Farkas, J. B. Foresman, J. V. Ortiz, J. Cioslowski, 
 and D. J. Fox, Gaussian, Inc., Wallingford CT, 2013.
 
 ******************************************
 Gaussian 09:  ES64L-G09RevE.01 30-Nov-2015
                23-Feb-2017 
 ******************************************
 %chk=h10.chk
 ----------------------------------------------------------------------
 #uhf/gen scf(tight,novaracc,noincfock,fulldiag, ) stable(crhf) guess=r
 ead geom=nocrowd test
 ----------------------------------------------------------------------
 1/38=1/1;
 2/12=1,17=6,18=5,40=1/2;
 3/5=7,16=1,25=1,30=1,116=2/1,2,3;
 4/5=1/1;
 5/5=100002,16=1,32=2,38=6/2;
 8/6=1,10=90,11=11/1,4;
 9/8=4,13=1/2;
 6/7=2,8=2,9=2,10=2,28=1/1;
 99/5=1,9=1/99;
 ----------------------------------------------------------------------
 hf stability analysis of h10 triangular lattice, y= 0.9519760744589420
 6 alpha= 57.500000000000000
 ----------------------------------------------------------------------
 Symbolic Z-matrix:
 Charge =  0 Multiplicity = 5
 H
 H                    1     1.12875 
 H                    1     1.12875  2     65. 
 H                    2     1.12875  1     115.     3     0.       0
 H                    3     1.12875  1     180.     2     0.       0
 H                    4     1.12875  2     180.     1     0.       0
 H                    5     1.12875  3     180.     2     0.       0
 H                    6     1.12875  4     180.     1     0.       0
 H                    7     1.12875  5     180.     2     0.       0
 H                    8     1.12875  6     180.     1     0.       0
 
                          Input orientation:                          
 ---------------------------------------------------------------------
 Center     Atomic      Atomic             Coordinates (Angstroms)
 Number     Number       Type             X           Y           Z
 ---------------------------------------------------------------------
      1          1           0        0.000000    0.000000    0.000000
      2          1           0        0.000000    0.000000    1.128748
      3          1           0        1.022993    0.000000    0.477029
      4          1           0        1.022993    0.000000    1.605777
      5          1           0        2.045985    0.000000    0.954059
      6          1           0        2.045985    0.000000    2.082806
      7          1           0        3.068978    0.000000    1.431088
      8          1           0        3.068978    0.000000    2.559836
      9          1           0        4.091971    0.000000    1.908117
     10          1           0        4.091971    0.000000    3.036865
 ---------------------------------------------------------------------
                    Distance matrix (angstroms):
                    1          2          3          4          5
     1  H    0.000000
     2  H    1.128748   0.000000
     3  H    1.128748   1.212951   0.000000
     4  H    1.903952   1.128748   1.128748   0.000000
     5  H    2.257495   2.053429   1.128748   1.212951   0.000000
     6  H    2.919613   2.257495   1.903952   1.128748   1.128748
     7  H    3.386243   3.083835   2.257495   2.053429   1.128748
     8  H    3.996422   3.386243   2.919613   2.257495   1.903952
     9  H    4.514990   4.165530   3.386243   3.083835   2.257495
    10  H    5.095760   4.514990   3.996422   3.386243   2.919613
                    6          7          8          9         10
     6  H    0.000000
     7  H    1.212951   0.000000
     8  H    1.128748   1.128748   0.000000
     9  H    2.053429   1.128748   1.212951   0.000000
    10  H    2.257495   1.903952   1.128748   1.128748   0.000000
 Stoichiometry    H10(5)
 Framework group  C2H[SGH(H10)]
 Deg. of freedom     9
 Full point group                 C2H     NOp   4
 Largest Abelian subgroup         C2H     NOp   4
 Largest concise Abelian subgroup C2      NOp   2
                         Standard orientation:                         
 ---------------------------------------------------------------------
 Center     Atomic      Atomic             Coordinates (Angstroms)
 Number     Number       Type             X           Y           Z
 ---------------------------------------------------------------------
      1          1           0        2.045985    1.518432   -0.000000
      2          1           0        2.045985    0.389685   -0.000000
      3          1           0        1.022993    1.041403   -0.000000
      4          1           0        1.022993   -0.087344   -0.000000
      5          1           0        0.000000    0.564374   -0.000000
      6          1           0       -0.000000   -0.564374   -0.000000
      7          1           0       -1.022993    0.087344   -0.000000
      8          1           0       -1.022993   -1.041403   -0.000000
      9          1           0       -2.045985   -0.389685   -0.000000
     10          1           0       -2.045985   -1.518432   -0.000000
 ---------------------------------------------------------------------
 Rotational constants (GHZ):    196.4223894     19.2027909     17.4926605
 General basis read from cards:  (5D, 7F)
 There are     5 symmetry adapted cartesian basis functions of AG  symmetry.
 There are     0 symmetry adapted cartesian basis functions of BG  symmetry.
 There are     0 symmetry adapted cartesian basis functions of AU  symmetry.
 There are     5 symmetry adapted cartesian basis functions of BU  symmetry.
 There are     5 symmetry adapted basis functions of AG  symmetry.
 There are     0 symmetry adapted basis functions of BG  symmetry.
 There are     0 symmetry adapted basis functions of AU  symmetry.
 There are     5 symmetry adapted basis functions of BU  symmetry.
    10 basis functions,   100 primitive gaussians,    10 cartesian basis functions
     7 alpha electrons        3 beta electrons
       nuclear repulsion energy        13.3731857470 Hartrees.
 NAtoms=   10 NActive=   10 NUniq=    5 SFac= 4.00D+00 NAtFMM=   60 NAOKFM=F Big=F
 Integral buffers will be    131072 words long.
 Regular integral format.
 Two-electron integral symmetry is turned on.
 One-electron integrals computed using PRISM.
 NBasis=    10 RedAO= T EigKep=  1.68D-01  NBF=     5     0     0     5
 NBsUse=    10 1.00D-06 EigRej= -1.00D+00 NBFU=     5     0     0     5
 Initial guess from the checkpoint file:  "h10.chk"
 B after Tr=    -0.000000    0.000000   -0.000000
         Rot=    0.999992   -0.000000    0.000000   -0.003879 Ang=  -0.44 deg.
 Initial guess orbital symmetries:
 Alpha Orbitals:
       Occupied  (AG) (BU) (AG) (BU) (AG) (BU) (BU)
       Virtual   (AG) (AG) (BU)
 Beta  Orbitals:
       Occupied  (AG) (BU) (AG)
       Virtual   (BU) (BU) (AG) (AG) (BU) (AG) (BU)
 Initial guess <Sx>= 0.0000 <Sy>= 0.0000 <Sz>= 2.0000 <S**2>= 6.0336 S= 2.0067
 Keep R1 and R2 ints in memory in symmetry-blocked form, NReq=879481.
 Requested convergence on RMS density matrix=1.00D-08 within 128 cycles.
 Requested convergence on MAX density matrix=1.00D-06.
 Requested convergence on             energy=1.00D-06.
 No special actions if energy rises.
 SCF Done:  E(UHF) =  -4.70806044911     A.U. after   10 cycles
            NFock= 10  Conv=0.81D-08     -V/T= 1.8337
 <Sx>= 0.0000 <Sy>= 0.0000 <Sz>= 2.0000 <S**2>= 6.0350 S= 2.0070
 <L.S>= 0.000000000000E+00
 Annihilation of the first spin contaminant:
 S**2 before annihilation     6.0350,   after     6.0001
 Range of M.O.s used for correlation:     1    10
 NBasis=    10 NAE=     7 NBE=     3 NFC=     0 NFV=     0
 NROrb=     10 NOA=     7 NOB=     3 NVA=     3 NVB=     7
 Semi-Direct transformation.
 ModeAB=           4 MOrb=             7 LenV=     134106503
 LASXX=         1176 LTotXX=        1176 LenRXX=        3283
 LTotAB=        2107 MaxLAS=        2100 LenRXY=           0
 NonZer=        4459 LenScr=      655360 LnRSAI=        2100
 LnScr1=      655360 LExtra=           0 Total=      1316103
 MaxDsk=          -1 SrtSym=           T ITran=            3
 JobTyp=1 Pass  1:  I=   1 to   7.
 (rs|ai) integrals will be sorted in core.
 ModeAB=           4 MOrb=             3 LenV=     134106503
 LASXX=          573 LTotXX=         573 LenRXX=         609
 LTotAB=          36 MaxLAS=         900 LenRXY=           0
 NonZer=        1182 LenScr=      655360 LnRSAI=         900
 LnScr1=      655360 LExtra=           0 Total=      1312229
 MaxDsk=          -1 SrtSym=           T ITran=            3
 JobTyp=2 Pass  1:  I=   1 to   3.
 (rs|ai) integrals will be sorted in core.
 Spin components of T(2) and E(2):
     alpha-alpha T2 =       0.4036189555D-02 E2=     -0.5434612037D-02
     alpha-beta  T2 =       0.3172974955D-01 E2=     -0.4774815720D-01
     beta-beta   T2 =       0.1683161782D-02 E2=     -0.2755615329D-02
 ANorm=    0.1018552454D+01
 E2 =    -0.5593838456D-01 EUMP2 =    -0.47639988336709D+01
 (S**2,0)=  0.60350D+01           (S**2,1)=  0.60166D+01
 E(PUHF)=      -0.47100645637D+01        E(PMP2)=      -0.47654772422D+01
 Second order stability test of a single determinant UHF wave function:
 Stabil:  MDV=134217728
 ***********************************************************************
 Matrix         Lowest Root    Major Pairs
 ***********************************************************************
 Internal UHF     0.0278472    Stable
 RUHF --> CUHF (A)0.0755105    Stable
 RUHF --> CUHF (B)0.1450038    Stable
 RUHF --> GHF    -0.1902642    7A=4B
 Not stable.
 ***********************************************************************

 **********************************************************************

            Population analysis using the SCF density.

 **********************************************************************

 Orbital symmetries:
 Alpha Orbitals:
       Occupied  (AG) (BU) (AG) (BU) (AG) (BU) (BU)
       Virtual   (AG) (AG) (BU)
 Beta  Orbitals:
       Occupied  (AG) (BU) (AG)
       Virtual   (BU) (BU) (AG) (AG) (BU) (AG) (BU)
 The electronic state is 5-BU.
 Alpha  occ. eigenvalues --   -0.94501  -0.82035  -0.63996  -0.53304  -0.38753
 Alpha  occ. eigenvalues --   -0.38513  -0.15800
 Alpha virt. eigenvalues --    0.19062   0.37434   0.56539
  Beta  occ. eigenvalues --   -0.78231  -0.64771  -0.43887
  Beta virt. eigenvalues --   -0.01575   0.03849   0.13814   0.33114   0.36638
  Beta virt. eigenvalues --    0.65230   0.71190
          Condensed to atoms (all electrons):
               1          2          3          4          5          6
     1  H    1.017015  -0.141719   0.263763  -0.078458  -0.077413   0.014029
     2  H   -0.141719   1.546410  -0.189801  -0.038498  -0.011408  -0.095177
     3  H    0.263763  -0.189801   0.854740   0.057682   0.092713  -0.042769
     4  H   -0.078458  -0.038498   0.057682   0.978701  -0.058834   0.177385
     5  H   -0.077413  -0.011408   0.092713  -0.058834   1.164199  -0.140951
     6  H    0.014029  -0.095177  -0.042769   0.177385  -0.140951   1.164199
     7  H   -0.004138   0.024881  -0.061871  -0.088841   0.177385  -0.058834
     8  H    0.002631   0.006473  -0.008161  -0.061871  -0.042769   0.092713
     9  H    0.001092  -0.003830   0.006473   0.024881  -0.095177  -0.011408
    10  H   -0.000407   0.001092   0.002631  -0.004138   0.014029  -0.077413
               7          8          9         10
     1  H   -0.004138   0.002631   0.001092  -0.000407
     2  H    0.024881   0.006473  -0.003830   0.001092
     3  H   -0.061871  -0.008161   0.006473   0.002631
     4  H   -0.088841  -0.061871   0.024881  -0.004138
     5  H    0.177385  -0.042769  -0.095177   0.014029
     6  H   -0.058834   0.092713  -0.011408  -0.077413
     7  H    0.978701   0.057682  -0.038498  -0.078458
     8  H    0.057682   0.854740  -0.189801   0.263763
     9  H   -0.038498  -0.189801   1.546410  -0.141719
    10  H   -0.078458   0.263763  -0.141719   1.017015
          Atomic-Atomic Spin Densities.
               1          2          3          4          5          6
     1  H    0.780263  -0.263461   0.077609  -0.083054  -0.043688   0.030947
     2  H   -0.263461   1.338412  -0.357729  -0.057212   0.024675  -0.059683
     3  H    0.077609  -0.357729   0.257610  -0.032738   0.157320   0.011766
     4  H   -0.083054  -0.057212  -0.032738   0.812219  -0.164264   0.093102
     5  H   -0.043688   0.024675   0.157320  -0.164264   0.663676  -0.406528
     6  H    0.030947  -0.059683   0.011766   0.093102  -0.406528   0.663676
     7  H   -0.000648   0.030131  -0.039350  -0.091048   0.093102  -0.164264
     8  H    0.001308   0.004083  -0.008276  -0.039350   0.011766   0.157320
     9  H    0.000448  -0.004770   0.004083   0.030131  -0.059683   0.024675
    10  H   -0.000688   0.000448   0.001308  -0.000648   0.030947  -0.043688
               7          8          9         10
     1  H   -0.000648   0.001308   0.000448  -0.000688
     2  H    0.030131   0.004083  -0.004770   0.000448
     3  H   -0.039350  -0.008276   0.004083   0.001308
     4  H   -0.091048  -0.039350   0.030131  -0.000648
     5  H    0.093102   0.011766  -0.059683   0.030947
     6  H   -0.164264   0.157320   0.024675  -0.043688
     7  H    0.812219  -0.032738  -0.057212  -0.083054
     8  H   -0.032738   0.257610  -0.357729   0.077609
     9  H   -0.057212  -0.357729   1.338412  -0.263461
    10  H   -0.083054   0.077609  -0.263461   0.780263
 Mulliken charges and spin densities:
               1          2
     1  H    0.003606   0.499038
     2  H   -0.098423   0.654895
     3  H    0.024600   0.071604
     4  H    0.091992   0.467139
     5  H   -0.021774   0.307324
     6  H   -0.021774   0.307324
     7  H    0.091992   0.467139
     8  H    0.024600   0.071604
     9  H   -0.098423   0.654895
    10  H    0.003606   0.499038
 Sum of Mulliken charges =  -0.00000   4.00000
 Mulliken charges and spin densities with hydrogens summed into heavy atoms:
               1          2
 Electronic spatial extent (au):  <R**2>=            136.3691
 Charge=             -0.0000 electrons
 Dipole moment (field-independent basis, Debye):
    X=              0.0000    Y=             -0.0000    Z=              0.0000  Tot=              0.0000
 Quadrupole moment (field-independent basis, Debye-Ang):
   XX=            -18.2021   YY=            -14.9423   ZZ=            -12.5852
   XY=             -0.9819   XZ=              0.0000   YZ=              0.0000
 Traceless Quadrupole moment (field-independent basis, Debye-Ang):
   XX=             -2.9589   YY=              0.3009   ZZ=              2.6580
   XY=             -0.9819   XZ=              0.0000   YZ=              0.0000
 Octapole moment (field-independent basis, Debye-Ang**2):
  XXX=              0.0000  YYY=             -0.0000  ZZZ=              0.0000  XYY=             -0.0000
  XXY=              0.0000  XXZ=              0.0000  XZZ=              0.0000  YZZ=             -0.0000
  YYZ=              0.0000  XYZ=              0.0000
 Hexadecapole moment (field-independent basis, Debye-Ang**3):
 XXXX=           -219.3722 YYYY=            -87.8635 ZZZZ=            -14.9579 XXXY=            -43.4749
 XXXZ=              0.0000 YYYX=            -45.1291 YYYZ=              0.0000 ZZZX=              0.0000
 ZZZY=              0.0000 XXYY=            -48.6400 XXZZ=            -33.3489 YYZZ=            -16.0030
 XXYZ=              0.0000 YYXZ=              0.0000 ZZXY=            -13.0323
 N-N= 1.337318574704D+01 E-N=-3.607186208455D+01  KE= 5.647284972090D+00
 Symmetry AG   KE= 2.349579287739D+00
 Symmetry BG   KE= 0.000000000000D+00
 Symmetry AU   KE= 0.000000000000D+00
 Symmetry BU   KE= 3.297705684351D+00
                          Isotropic Fermi Contact Couplings
        Atom                 a.u.       MegaHertz       Gauss      10(-4) cm-1
     1  H(1)               0.21226     237.19256      84.63620      79.11892
     2  H(1)               0.33448     373.77493     133.37218     124.67789
     3  H(1)               0.06358      71.04606      25.35100      23.69841
     4  H(1)               0.22164     247.68147      88.37891      82.61765
     5  H(1)               0.16618     185.70390      66.26377      61.94415
     6  H(1)               0.16618     185.70390      66.26377      61.94415
     7  H(1)               0.22164     247.68147      88.37891      82.61765
     8  H(1)               0.06358      71.04606      25.35100      23.69841
     9  H(1)               0.33448     373.77493     133.37218     124.67789
    10  H(1)               0.21226     237.19256      84.63620      79.11892
 --------------------------------------------------------
       Center         ----  Spin Dipole Couplings  ----
                      3XX-RR        3YY-RR        3ZZ-RR
 --------------------------------------------------------
     1   Atom       -0.002714      0.057638     -0.054923
     2   Atom        0.025025      0.030045     -0.055070
     3   Atom        0.100349      0.034954     -0.135303
     4   Atom        0.115936     -0.017202     -0.098734
     5   Atom        0.142413     -0.035103     -0.107310
     6   Atom        0.142413     -0.035103     -0.107310
     7   Atom        0.115936     -0.017202     -0.098734
     8   Atom        0.100349      0.034954     -0.135303
     9   Atom        0.025025      0.030045     -0.055070
    10   Atom       -0.002714      0.057638     -0.054923
 --------------------------------------------------------
                        XY            XZ            YZ
 --------------------------------------------------------
     1   Atom       -0.000006      0.000000     -0.000000
     2   Atom        0.067299     -0.000000      0.000000
     3   Atom        0.061859     -0.000000     -0.000000
     4   Atom        0.054096     -0.000000     -0.000000
     5   Atom        0.042035     -0.000000     -0.000000
     6   Atom        0.042035      0.000000      0.000000
     7   Atom        0.054096      0.000000      0.000000
     8   Atom        0.061859      0.000000      0.000000
     9   Atom        0.067299      0.000000      0.000000
    10   Atom       -0.000006      0.000000     -0.000000
 --------------------------------------------------------


 ---------------------------------------------------------------------------------
              Anisotropic Spin Dipole Couplings in Principal Axis System
 ---------------------------------------------------------------------------------

       Atom             a.u.   MegaHertz   Gauss  10(-4) cm-1        Axes

              Baa    -0.0549   -29.304   -10.457    -9.775  0.0000  0.0000  1.0000
     1 H(1)   Bbb    -0.0027    -1.448    -0.517    -0.483  1.0000  0.0001  0.0000
              Bcc     0.0576    30.753    10.973    10.258 -0.0001  1.0000  0.0000
 
              Baa    -0.0551   -29.383   -10.484    -9.801  0.0000  0.0000  1.0000
     2 H(1)   Bbb    -0.0398   -21.241    -7.579    -7.085  0.7202 -0.6938  0.0000
              Bcc     0.0949    50.624    18.064    16.886  0.6938  0.7202  0.0000
 
              Baa    -0.1353   -72.191   -25.760   -24.080  0.0000  0.0000  1.0000
     3 H(1)   Bbb    -0.0023    -1.237    -0.441    -0.412 -0.5161  0.8565 -0.0000
              Bcc     0.1376    73.428    26.201    24.493  0.8565  0.5161  0.0000
 
              Baa    -0.0987   -52.680   -18.797   -17.572  0.0000  0.0000  1.0000
     4 H(1)   Bbb    -0.0364   -19.427    -6.932    -6.480 -0.3346  0.9424 -0.0000
              Bcc     0.1351    72.107    25.730    24.052  0.9424  0.3346  0.0000
 
              Baa    -0.1073   -57.256   -20.430   -19.098  0.0000  0.0000  1.0000
     5 H(1)   Bbb    -0.0446   -23.772    -8.482    -7.929 -0.2193  0.9756 -0.0000
              Bcc     0.1519    81.027    28.913    27.028  0.9756  0.2193  0.0000
 
              Baa    -0.1073   -57.256   -20.430   -19.098  0.0000  0.0000  1.0000
     6 H(1)   Bbb    -0.0446   -23.772    -8.482    -7.929 -0.2193  0.9756 -0.0000
              Bcc     0.1519    81.027    28.913    27.028  0.9756  0.2193  0.0000
 
              Baa    -0.0987   -52.680   -18.797   -17.572  0.0000  0.0000  1.0000
     7 H(1)   Bbb    -0.0364   -19.427    -6.932    -6.480 -0.3346  0.9424  0.0000
              Bcc     0.1351    72.107    25.730    24.052  0.9424  0.3346  0.0000
 
              Baa    -0.1353   -72.191   -25.760   -24.080  0.0000  0.0000  1.0000
     8 H(1)   Bbb    -0.0023    -1.237    -0.441    -0.412 -0.5161  0.8565  0.0000
              Bcc     0.1376    73.428    26.201    24.493  0.8565  0.5161  0.0000
 
              Baa    -0.0551   -29.383   -10.484    -9.801  0.0000  0.0000  1.0000
     9 H(1)   Bbb    -0.0398   -21.241    -7.579    -7.085  0.7202 -0.6938  0.0000
              Bcc     0.0949    50.624    18.064    16.886  0.6938  0.7202  0.0000
 
              Baa    -0.0549   -29.304   -10.457    -9.775  0.0000  0.0000  1.0000
    10 H(1)   Bbb    -0.0027    -1.448    -0.517    -0.483  1.0000  0.0001  0.0000
              Bcc     0.0576    30.753    10.973    10.258 -0.0001  1.0000  0.0000
 

 ---------------------------------------------------------------------------------


 Test job not archived.
 1\1\GINC-SULU\Stability\UHF\Gen\H10(5)\LCJ1\23-Feb-2017\0\\#uhf/gen sc
 f(tight,novaracc,noincfock,fulldiag, ) stable(crhf) guess=read geom=no
 crowd test\\hf stability analysis of h10 triangular lattice, y= 0.9519
 7607445894206 alpha= 57.500000000000000\\0,5\H\H,1,1.1287475848\H,1,1.
 1287475848,2,65.\H,2,1.1287475848,1,115.,3,0.,0\H,3,1.1287475848,1,180
 .,2,0.,0\H,4,1.1287475848,2,180.,1,0.,0\H,5,1.1287475848,3,180.,2,0.,0
 \H,6,1.1287475848,4,180.,1,0.,0\H,7,1.1287475848,5,180.,2,0.,0\H,8,1.1
 287475848,6,180.,1,0.,0\\Version=ES64L-G09RevE.01\State=5-BU\HF=-4.708
 0604\MP2=-4.7639988\PUHF=-4.7100646\PMP2-0=-4.7654772\S2=6.034968\S2-1
 =6.016571\S2A=6.000132\RMSD=8.095e-09\Dipole=0.,0.,0.\Quadrupole=-2.19
 98853,1.9761574,0.2237279,0.,-0.7300361,0.\PG=C02H [SGH(H10)]\\@


 SOME PEOPLE TRY TO PULL THE WOOL OVER YOUR EYES
 USING THE WRONG YARN.
 Job cpu time:       0 days  0 hours  0 minutes  1.0 seconds.
 File lengths (MBytes):  RWF=     94 Int=      0 D2E=      0 Chk=      2 Scr=      2
 Normal termination of Gaussian 09 at Thu Feb 23 12:50:02 2017.
