 Entering Gaussian System, Link 0=g09
 AtFile(1): H.gbs
            H     0
            S   10   1.00
               1000.000000000000            0.000068713567
                316.227766000000            0.000169141320
                100.000000000000            0.000823394812
                 31.622776600000            0.003425569236
                 10.000000000000            0.013951996000
                  3.162277660000            0.056909313560
                  1.000000000000            0.198286399900
                  0.316227766000            0.496922426700
                  0.100000000000            0.369846276400
                  0.031622776600            0.003752720039
            ****
 Initial command:
 /projects/guscus/apps/gau/g09-e1/g09/l1.exe "/users/lcj1/gaussian/h10/2rows_uhf/ag2bu3/quintet/Gau-13637.inp" -scrdir="/users/lcj1/gaussian/h10/2rows_uhf/ag2bu3/quintet/"
 Entering Link 1 = /projects/guscus/apps/gau/g09-e1/g09/l1.exe PID=     13638.
  
 Copyright (c) 1988,1990,1992,1993,1995,1998,2003,2009,2015,
            Gaussian, Inc.  All Rights Reserved.
  
 This is part of the Gaussian(R) 09 program.  It is based on
 the Gaussian(R) 03 system (copyright 2003, Gaussian, Inc.),
 the Gaussian(R) 98 system (copyright 1998, Gaussian, Inc.),
 the Gaussian(R) 94 system (copyright 1995, Gaussian, Inc.),
 the Gaussian 92(TM) system (copyright 1992, Gaussian, Inc.),
 the Gaussian 90(TM) system (copyright 1990, Gaussian, Inc.),
 the Gaussian 88(TM) system (copyright 1988, Gaussian, Inc.),
 the Gaussian 86(TM) system (copyright 1986, Carnegie Mellon
 University), and the Gaussian 82(TM) system (copyright 1983,
 Carnegie Mellon University). Gaussian is a federally registered
 trademark of Gaussian, Inc.
  
 This software contains proprietary and confidential information,
 including trade secrets, belonging to Gaussian, Inc.
  
 This software is provided under written license and may be
 used, copied, transmitted, or stored only in accord with that
 written license.
  
 The following legend is applicable only to US Government
 contracts under FAR:
  
                    RESTRICTED RIGHTS LEGEND
  
 Use, reproduction and disclosure by the US Government is
 subject to restrictions as set forth in subparagraphs (a)
 and (c) of the Commercial Computer Software - Restricted
 Rights clause in FAR 52.227-19.
  
 Gaussian, Inc.
 340 Quinnipiac St., Bldg. 40, Wallingford CT 06492
  
  
 ---------------------------------------------------------------
 Warning -- This program may not be used in any manner that
 competes with the business of Gaussian, Inc. or will provide
 assistance to any competitor of Gaussian, Inc.  The licensee
 of this program is prohibited from giving any competitor of
 Gaussian, Inc. access to this program.  By using this program,
 the user acknowledges that Gaussian, Inc. is engaged in the
 business of creating and licensing software in the field of
 computational chemistry and represents and warrants to the
 licensee that it is not a competitor of Gaussian, Inc. and that
 it will not use this program in any manner prohibited above.
 ---------------------------------------------------------------
  

 Cite this work as:
 Gaussian 09, Revision E.01,
 M. J. Frisch, G. W. Trucks, H. B. Schlegel, G. E. Scuseria, 
 M. A. Robb, J. R. Cheeseman, G. Scalmani, V. Barone, B. Mennucci, 
 G. A. Petersson, H. Nakatsuji, M. Caricato, X. Li, H. P. Hratchian, 
 A. F. Izmaylov, J. Bloino, G. Zheng, J. L. Sonnenberg, M. Hada, 
 M. Ehara, K. Toyota, R. Fukuda, J. Hasegawa, M. Ishida, T. Nakajima, 
 Y. Honda, O. Kitao, H. Nakai, T. Vreven, J. A. Montgomery, Jr., 
 J. E. Peralta, F. Ogliaro, M. Bearpark, J. J. Heyd, E. Brothers, 
 K. N. Kudin, V. N. Staroverov, T. Keith, R. Kobayashi, J. Normand, 
 K. Raghavachari, A. Rendell, J. C. Burant, S. S. Iyengar, J. Tomasi, 
 M. Cossi, N. Rega, J. M. Millam, M. Klene, J. E. Knox, J. B. Cross, 
 V. Bakken, C. Adamo, J. Jaramillo, R. Gomperts, R. E. Stratmann, 
 O. Yazyev, A. J. Austin, R. Cammi, C. Pomelli, J. W. Ochterski, 
 R. L. Martin, K. Morokuma, V. G. Zakrzewski, G. A. Voth, 
 P. Salvador, J. J. Dannenberg, S. Dapprich, A. D. Daniels, 
 O. Farkas, J. B. Foresman, J. V. Ortiz, J. Cioslowski, 
 and D. J. Fox, Gaussian, Inc., Wallingford CT, 2013.
 
 ******************************************
 Gaussian 09:  ES64L-G09RevE.01 30-Nov-2015
                23-Feb-2017 
 ******************************************
 %chk=h10.chk
 ----------------------------------------------------------------------
 #uhf/gen scf(tight,novaracc,noincfock,fulldiag, ) stable(crhf) guess=r
 ead geom=nocrowd test
 ----------------------------------------------------------------------
 1/38=1/1;
 2/12=1,17=6,18=5,40=1/2;
 3/5=7,16=1,25=1,30=1,116=2/1,2,3;
 4/5=1/1;
 5/5=100002,16=1,32=2,38=6/2;
 8/6=1,10=90,11=11/1,4;
 9/8=4,13=1/2;
 6/7=2,8=2,9=2,10=2,28=1/1;
 99/5=1,9=1/99;
 ----------------------------------------------------------------------
 hf stability analysis of h10 triangular lattice, y= 0.7178473640090998
 8 alpha= 41.750000000000000
 ----------------------------------------------------------------------
 Symbolic Z-matrix:
 Charge =  0 Multiplicity = 5
 H
 H                    1     1.07804 
 H                    1     1.07804  2     96.5 
 H                    2     1.07804  1     83.5     3     0.       0
 H                    3     1.07804  1     180.     2     0.       0
 H                    4     1.07804  2     180.     1     0.       0
 H                    5     1.07804  3     180.     2     0.       0
 H                    6     1.07804  4     180.     1     0.       0
 H                    7     1.07804  5     180.     2     0.       0
 H                    8     1.07804  6     180.     1     0.       0
 
                          Input orientation:                          
 ---------------------------------------------------------------------
 Center     Atomic      Atomic             Coordinates (Angstroms)
 Number     Number       Type             X           Y           Z
 ---------------------------------------------------------------------
      1          1           0        0.000000    0.000000    0.000000
      2          1           0        0.000000    0.000000    1.078040
      3          1           0        1.071111    0.000000   -0.122038
      4          1           0        1.071111    0.000000    0.956003
      5          1           0        2.142221    0.000000   -0.244075
      6          1           0        2.142221    0.000000    0.833965
      7          1           0        3.213332    0.000000   -0.366113
      8          1           0        3.213332    0.000000    0.711927
      9          1           0        4.284442    0.000000   -0.488151
     10          1           0        4.284442    0.000000    0.589890
 ---------------------------------------------------------------------
                    Distance matrix (angstroms):
                    1          2          3          4          5
     1  H    0.000000
     2  H    1.078040   0.000000
     3  H    1.078040   1.608560   0.000000
     4  H    1.435695   1.078040   1.078040   0.000000
     5  H    2.156081   2.517360   1.078040   1.608560   0.000000
     6  H    2.298828   2.156081   1.435695   1.078040   1.078040
     7  H    3.234121   3.522936   2.156081   2.517360   1.078040
     8  H    3.291252   3.234121   2.298828   2.156081   1.435695
     9  H    4.312162   4.561732   3.234121   3.522936   2.156081
    10  H    4.324860   4.312162   3.291252   3.234121   2.298828
                    6          7          8          9         10
     6  H    0.000000
     7  H    1.608560   0.000000
     8  H    1.078040   1.078040   0.000000
     9  H    2.517360   1.078040   1.608560   0.000000
    10  H    2.156081   1.435695   1.078040   1.078040   0.000000
 Stoichiometry    H10(5)
 Framework group  C2H[SGH(H10)]
 Deg. of freedom     9
 Full point group                 C2H     NOp   4
 Largest Abelian subgroup         C2H     NOp   4
 Largest concise Abelian subgroup C2      NOp   2
                         Standard orientation:                         
 ---------------------------------------------------------------------
 Center     Atomic      Atomic             Coordinates (Angstroms)
 Number     Number       Type             X           Y           Z
 ---------------------------------------------------------------------
      1          1           0        2.142221    0.294945   -0.000000
      2          1           0        2.142221   -0.783095   -0.000000
      3          1           0        1.071111    0.416983   -0.000000
      4          1           0        1.071111   -0.661058   -0.000000
      5          1           0       -0.000000    0.539020    0.000000
      6          1           0       -0.000000   -0.539020    0.000000
      7          1           0       -1.071111    0.661058   -0.000000
      8          1           0       -1.071111   -0.416983   -0.000000
      9          1           0       -2.142221    0.783095   -0.000000
     10          1           0       -2.142221   -0.294945   -0.000000
 ---------------------------------------------------------------------
 Rotational constants (GHZ):    175.1523964     21.5347228     19.1769462
 General basis read from cards:  (5D, 7F)
 There are     5 symmetry adapted cartesian basis functions of AG  symmetry.
 There are     0 symmetry adapted cartesian basis functions of BG  symmetry.
 There are     0 symmetry adapted cartesian basis functions of AU  symmetry.
 There are     5 symmetry adapted cartesian basis functions of BU  symmetry.
 There are     5 symmetry adapted basis functions of AG  symmetry.
 There are     0 symmetry adapted basis functions of BG  symmetry.
 There are     0 symmetry adapted basis functions of AU  symmetry.
 There are     5 symmetry adapted basis functions of BU  symmetry.
    10 basis functions,   100 primitive gaussians,    10 cartesian basis functions
     7 alpha electrons        3 beta electrons
       nuclear repulsion energy        13.7256491835 Hartrees.
 NAtoms=   10 NActive=   10 NUniq=    5 SFac= 4.00D+00 NAtFMM=   60 NAOKFM=F Big=F
 Integral buffers will be    131072 words long.
 Regular integral format.
 Two-electron integral symmetry is turned on.
 One-electron integrals computed using PRISM.
 NBasis=    10 RedAO= T EigKep=  1.25D-01  NBF=     5     0     0     5
 NBsUse=    10 1.00D-06 EigRej= -1.00D+00 NBFU=     5     0     0     5
 Initial guess from the checkpoint file:  "h10.chk"
 B after Tr=     0.000000    0.000000   -0.000000
         Rot=    0.999992   -0.000000   -0.000000   -0.003879 Ang=  -0.44 deg.
 Initial guess orbital symmetries:
 Alpha Orbitals:
       Occupied  (AG) (BU) (AG) (BU) (AG) (BU) (BU)
       Virtual   (AG) (AG) (BU)
 Beta  Orbitals:
       Occupied  (AG) (BU) (AG)
       Virtual   (BU) (BU) (AG) (BU) (AG) (AG) (BU)
 Initial guess <Sx>= 0.0000 <Sy>= 0.0000 <Sz>= 2.0000 <S**2>= 6.0174 S= 2.0035
 Keep R1 and R2 ints in memory in symmetry-blocked form, NReq=879355.
 Requested convergence on RMS density matrix=1.00D-08 within 128 cycles.
 Requested convergence on MAX density matrix=1.00D-06.
 Requested convergence on             energy=1.00D-06.
 No special actions if energy rises.
 SCF Done:  E(UHF) =  -4.71195131017     A.U. after   11 cycles
            NFock= 11  Conv=0.11D-08     -V/T= 1.8329
 <Sx>= 0.0000 <Sy>= 0.0000 <Sz>= 2.0000 <S**2>= 6.0174 S= 2.0035
 <L.S>= 0.000000000000E+00
 Annihilation of the first spin contaminant:
 S**2 before annihilation     6.0174,   after     6.0000
 Range of M.O.s used for correlation:     1    10
 NBasis=    10 NAE=     7 NBE=     3 NFC=     0 NFV=     0
 NROrb=     10 NOA=     7 NOB=     3 NVA=     3 NVB=     7
 Semi-Direct transformation.
 ModeAB=           4 MOrb=             7 LenV=     134106559
 LASXX=         1176 LTotXX=        1176 LenRXX=        3283
 LTotAB=        2107 MaxLAS=        2100 LenRXY=           0
 NonZer=        4459 LenScr=      655360 LnRSAI=        2100
 LnScr1=      655360 LExtra=           0 Total=      1316103
 MaxDsk=          -1 SrtSym=           T ITran=            3
 JobTyp=1 Pass  1:  I=   1 to   7.
 (rs|ai) integrals will be sorted in core.
 ModeAB=           4 MOrb=             3 LenV=     134106559
 LASXX=          573 LTotXX=         573 LenRXX=         609
 LTotAB=          36 MaxLAS=         900 LenRXY=           0
 NonZer=        1182 LenScr=      655360 LnRSAI=         900
 LnScr1=      655360 LExtra=           0 Total=      1312229
 MaxDsk=          -1 SrtSym=           T ITran=            3
 JobTyp=2 Pass  1:  I=   1 to   3.
 (rs|ai) integrals will be sorted in core.
 Spin components of T(2) and E(2):
     alpha-alpha T2 =       0.4319734051D-02 E2=     -0.5981655982D-02
     alpha-beta  T2 =       0.3117420778D-01 E2=     -0.4785370267D-01
     beta-beta   T2 =       0.1759182481D-02 E2=     -0.2833044229D-02
 ANorm=    0.1018456246D+01
 E2 =    -0.5666840288D-01 EUMP2 =    -0.47686197130474D+01
 (S**2,0)=  0.60174D+01           (S**2,1)=  0.60074D+01
 E(PUHF)=      -0.47129179206D+01        E(PMP2)=      -0.47693081151D+01
 Second order stability test of a single determinant UHF wave function:
 Stabil:  MDV=134217728
 ***********************************************************************
 Matrix         Lowest Root    Major Pairs
 ***********************************************************************
 Internal UHF     0.0010779    Stable
 RUHF --> CUHF (A)0.1191015    Stable
 RUHF --> CUHF (B)0.0885528    Stable
 RUHF --> GHF    -0.2160631    7A=4B
 Not stable.
 ***********************************************************************

 **********************************************************************

            Population analysis using the SCF density.

 **********************************************************************

 Orbital symmetries:
 Alpha Orbitals:
       Occupied  (AG) (BU) (AG) (BU) (AG) (BU) (BU)
       Virtual   (AG) (AG) (BU)
 Beta  Orbitals:
       Occupied  (AG) (BU) (AG)
       Virtual   (BU) (BU) (AG) (BU) (AG) (AG) (BU)
 The electronic state is 5-BU.
 Alpha  occ. eigenvalues --   -0.96640  -0.83742  -0.63446  -0.58151  -0.42674
 Alpha  occ. eigenvalues --   -0.36056  -0.17739
 Alpha virt. eigenvalues --    0.23724   0.36808   0.76603
  Beta  occ. eigenvalues --   -0.79649  -0.64739  -0.42874
  Beta virt. eigenvalues --   -0.05938   0.06608   0.09135   0.31952   0.40532
  Beta virt. eigenvalues --    0.63137   0.94893
          Condensed to atoms (all electrons):
               1          2          3          4          5          6
     1  H    1.296333  -0.069828   0.096972  -0.161301  -0.121285   0.014512
     2  H   -0.069828   1.154927  -0.129085   0.186261   0.016976  -0.116352
     3  H    0.096972  -0.129085   0.888819   0.064461   0.132557  -0.041175
     4  H   -0.161301   0.186261   0.064461   0.877797  -0.039566   0.096427
     5  H   -0.121285   0.016976   0.132557  -0.039566   1.243456  -0.161820
     6  H    0.014512  -0.116352  -0.041175   0.096427  -0.161820   1.243456
     7  H    0.005241   0.007426  -0.072875  -0.024127   0.096427  -0.039566
     8  H    0.012999   0.001502  -0.042853  -0.072875  -0.041175   0.132557
     9  H    0.001848  -0.001430   0.001502   0.007426  -0.116352   0.016976
    10  H   -0.002534   0.001848   0.012999   0.005241   0.014512  -0.121285
               7          8          9         10
     1  H    0.005241   0.012999   0.001848  -0.002534
     2  H    0.007426   0.001502  -0.001430   0.001848
     3  H   -0.072875  -0.042853   0.001502   0.012999
     4  H   -0.024127  -0.072875   0.007426   0.005241
     5  H    0.096427  -0.041175  -0.116352   0.014512
     6  H   -0.039566   0.132557   0.016976  -0.121285
     7  H    0.877797   0.064461   0.186261  -0.161301
     8  H    0.064461   0.888819  -0.129085   0.096972
     9  H    0.186261  -0.129085   1.154927  -0.069828
    10  H   -0.161301   0.096972  -0.069828   1.296333
          Atomic-Atomic Spin Densities.
               1          2          3          4          5          6
     1  H    1.021637  -0.235003   0.014243  -0.259970  -0.071240   0.054443
     2  H   -0.235003   0.856009  -0.178612   0.043769   0.050716  -0.065617
     3  H    0.014243  -0.178612   0.674840  -0.080672   0.104822  -0.068976
     4  H   -0.259970   0.043769  -0.080672   0.552491  -0.016028   0.122644
     5  H   -0.071240   0.050716   0.104822  -0.016028   0.667415  -0.493160
     6  H    0.054443  -0.065617  -0.068976   0.122644  -0.493160   0.667415
     7  H    0.004626   0.006855  -0.057594  -0.015663   0.122644  -0.016028
     8  H    0.014861   0.003459  -0.032361  -0.057594  -0.068976   0.104822
     9  H    0.000629  -0.002287   0.003459   0.006855  -0.065617   0.050716
    10  H   -0.003637   0.000629   0.014861   0.004626   0.054443  -0.071240
               7          8          9         10
     1  H    0.004626   0.014861   0.000629  -0.003637
     2  H    0.006855   0.003459  -0.002287   0.000629
     3  H   -0.057594  -0.032361   0.003459   0.014861
     4  H   -0.015663  -0.057594   0.006855   0.004626
     5  H    0.122644  -0.068976  -0.065617   0.054443
     6  H   -0.016028   0.104822   0.050716  -0.071240
     7  H    0.552491  -0.080672   0.043769  -0.259970
     8  H   -0.080672   0.674840  -0.178612   0.014243
     9  H    0.043769  -0.178612   0.856009  -0.235003
    10  H   -0.259970   0.014243  -0.235003   1.021637
 Mulliken charges and spin densities:
               1          2
     1  H   -0.072957   0.540591
     2  H   -0.052245   0.479920
     3  H    0.088677   0.394010
     4  H    0.060256   0.300459
     5  H   -0.023731   0.285020
     6  H   -0.023731   0.285020
     7  H    0.060256   0.300459
     8  H    0.088677   0.394010
     9  H   -0.052245   0.479920
    10  H   -0.072957   0.540591
 Sum of Mulliken charges =   0.00000   4.00000
 Mulliken charges and spin densities with hydrogens summed into heavy atoms:
               1          2
 Electronic spatial extent (au):  <R**2>=            128.5206
 Charge=              0.0000 electrons
 Dipole moment (field-independent basis, Debye):
    X=              0.0000    Y=              0.0000    Z=              0.0000  Tot=              0.0000
 Quadrupole moment (field-independent basis, Debye-Ang):
   XX=            -20.2028   YY=            -14.5342   ZZ=            -12.5293
   XY=              0.6123   XZ=             -0.0000   YZ=              0.0000
 Traceless Quadrupole moment (field-independent basis, Debye-Ang):
   XX=             -4.4474   YY=              1.2212   ZZ=              3.2262
   XY=              0.6123   XZ=             -0.0000   YZ=              0.0000
 Octapole moment (field-independent basis, Debye-Ang**2):
  XXX=              0.0000  YYY=             -0.0000  ZZZ=              0.0000  XYY=             -0.0000
  XXY=              0.0000  XXZ=              0.0000  XZZ=              0.0000  YZZ=             -0.0000
  YYZ=              0.0000  XYZ=             -0.0000
 Hexadecapole moment (field-independent basis, Debye-Ang**3):
 XXXX=           -254.9871 YYYY=            -44.8289 ZZZZ=            -14.8293 XXXY=             13.5899
 XXXZ=             -0.0000 YYYX=             12.9721 YYYZ=              0.0000 ZZZX=             -0.0000
 ZZZY=              0.0000 XXYY=            -48.0922 XXZZ=            -36.6613 YYZZ=             -9.7558
 XXYZ=              0.0000 YYXZ=             -0.0000 ZZXY=              3.6093
 N-N= 1.372564918354D+01 E-N=-3.667558464943D+01  KE= 5.657485069123D+00
 Symmetry AG   KE= 2.356106999840D+00
 Symmetry BG   KE= 0.000000000000D+00
 Symmetry AU   KE= 0.000000000000D+00
 Symmetry BU   KE= 3.301378069283D+00
                          Isotropic Fermi Contact Couplings
        Atom                 a.u.       MegaHertz       Gauss      10(-4) cm-1
     1  H(1)               0.26362     294.58760     105.11618      98.26385
     2  H(1)               0.22518     251.63725      89.79042      83.93715
     3  H(1)               0.18930     211.53492      75.48092      70.56045
     4  H(1)               0.15377     171.83415      61.31470      57.31770
     5  H(1)               0.16355     182.76202      65.21403      60.96285
     6  H(1)               0.16355     182.76202      65.21403      60.96285
     7  H(1)               0.15377     171.83415      61.31470      57.31770
     8  H(1)               0.18930     211.53492      75.48092      70.56045
     9  H(1)               0.22518     251.63725      89.79042      83.93715
    10  H(1)               0.26362     294.58760     105.11618      98.26385
 --------------------------------------------------------
       Center         ----  Spin Dipole Couplings  ----
                      3XX-RR        3YY-RR        3ZZ-RR
 --------------------------------------------------------
     1   Atom        0.053115      0.016206     -0.069320
     2   Atom        0.040432      0.029365     -0.069797
     3   Atom        0.136708     -0.023929     -0.112779
     4   Atom        0.127553     -0.007390     -0.120162
     5   Atom        0.187582     -0.069966     -0.117617
     6   Atom        0.187582     -0.069966     -0.117617
     7   Atom        0.127553     -0.007390     -0.120162
     8   Atom        0.136708     -0.023929     -0.112779
     9   Atom        0.040432      0.029365     -0.069797
    10   Atom        0.053115      0.016206     -0.069320
 --------------------------------------------------------
                        XY            XZ            YZ
 --------------------------------------------------------
     1   Atom       -0.030800     -0.000000     -0.000000
     2   Atom        0.007853     -0.000000      0.000000
     3   Atom       -0.007120     -0.000000     -0.000000
     4   Atom       -0.030035     -0.000000      0.000000
     5   Atom       -0.017529     -0.000000      0.000000
     6   Atom       -0.017529     -0.000000     -0.000000
     7   Atom       -0.030035      0.000000      0.000000
     8   Atom       -0.007120      0.000000     -0.000000
     9   Atom        0.007853      0.000000      0.000000
    10   Atom       -0.030800      0.000000     -0.000000
 --------------------------------------------------------


 ---------------------------------------------------------------------------------
              Anisotropic Spin Dipole Couplings in Principal Axis System
 ---------------------------------------------------------------------------------

       Atom             a.u.   MegaHertz   Gauss  10(-4) cm-1        Axes

              Baa    -0.0693   -36.986   -13.198   -12.337  0.0000  0.0000  1.0000
     1 H(1)   Bbb    -0.0012    -0.665    -0.237    -0.222  0.4930  0.8700 -0.0000
              Bcc     0.0706    37.651    13.435    12.559  0.8700 -0.4930  0.0000
 
              Baa    -0.0698   -37.240   -13.288   -12.422  0.0000  0.0000  1.0000
     2 H(1)   Bbb     0.0253    13.494     4.815     4.501 -0.4605  0.8877  0.0000
              Bcc     0.0445    23.746     8.473     7.921  0.8877  0.4605  0.0000
 
              Baa    -0.1128   -60.173   -21.471   -20.072  0.0000  0.0000  1.0000
     3 H(1)   Bbb    -0.0242   -12.936    -4.616    -4.315  0.0442  0.9990 -0.0000
              Bcc     0.1370    73.109    26.087    24.386  0.9990 -0.0442  0.0000
 
              Baa    -0.1202   -64.113   -22.877   -21.386  0.0000  0.0000  1.0000
     4 H(1)   Bbb    -0.0138    -7.349    -2.622    -2.451  0.2079  0.9782  0.0000
              Bcc     0.1339    71.462    25.499    23.837  0.9782 -0.2079  0.0000
 
              Baa    -0.1176   -62.755   -22.392   -20.933  0.0000  0.0000  1.0000
     5 H(1)   Bbb    -0.0712   -37.964   -13.547   -12.663  0.0676  0.9977  0.0000
              Bcc     0.1888   100.719    35.939    33.596  0.9977 -0.0676  0.0000
 
              Baa    -0.1176   -62.755   -22.392   -20.933  0.0000  0.0000  1.0000
     6 H(1)   Bbb    -0.0712   -37.964   -13.547   -12.663  0.0676  0.9977 -0.0000
              Bcc     0.1888   100.719    35.939    33.596  0.9977 -0.0676  0.0000
 
              Baa    -0.1202   -64.113   -22.877   -21.386  0.0000  0.0000  1.0000
     7 H(1)   Bbb    -0.0138    -7.349    -2.622    -2.451  0.2079  0.9782 -0.0000
              Bcc     0.1339    71.462    25.499    23.837  0.9782 -0.2079  0.0000
 
              Baa    -0.1128   -60.173   -21.471   -20.072  0.0000  0.0000  1.0000
     8 H(1)   Bbb    -0.0242   -12.936    -4.616    -4.315  0.0442  0.9990  0.0000
              Bcc     0.1370    73.109    26.087    24.386  0.9990 -0.0442  0.0000
 
              Baa    -0.0698   -37.240   -13.288   -12.422  0.0000  0.0000  1.0000
     9 H(1)   Bbb     0.0253    13.494     4.815     4.501 -0.4605  0.8877 -0.0000
              Bcc     0.0445    23.746     8.473     7.921  0.8877  0.4605  0.0000
 
              Baa    -0.0693   -36.986   -13.198   -12.337  0.0000  0.0000  1.0000
    10 H(1)   Bbb    -0.0012    -0.665    -0.237    -0.222  0.4930  0.8700  0.0000
              Bcc     0.0706    37.651    13.435    12.559  0.8700 -0.4930  0.0000
 

 ---------------------------------------------------------------------------------


 Test job not archived.
 1\1\GINC-SULU\Stability\UHF\Gen\H10(5)\LCJ1\23-Feb-2017\0\\#uhf/gen sc
 f(tight,novaracc,noincfock,fulldiag, ) stable(crhf) guess=read geom=no
 crowd test\\hf stability analysis of h10 triangular lattice, y= 0.7178
 4736400909988 alpha= 41.750000000000000\\0,5\H\H,1,1.0780404152\H,1,1.
 0780404152,2,96.5\H,2,1.0780404152,1,83.5,3,0.,0\H,3,1.0780404152,1,18
 0.,2,0.,0\H,4,1.0780404152,2,180.,1,0.,0\H,5,1.0780404152,3,180.,2,0.,
 0\H,6,1.0780404152,4,180.,1,0.,0\H,7,1.0780404152,5,180.,2,0.,0\H,8,1.
 0780404152,6,180.,1,0.,0\\Version=ES64L-G09RevE.01\State=5-BU\HF=-4.71
 19513\MP2=-4.7686197\PUHF=-4.7129179\PMP2-0=-4.7693081\S2=6.017359\S2-
 1=6.007365\S2A=6.000002\RMSD=1.095e-09\Dipole=0.,0.,0.\Quadrupole=-3.3
 065365,2.3985776,0.9079589,0.,0.455208,0.\PG=C02H [SGH(H10)]\\@


 ABSOLUTISM, OBSOLETISM -- IF IT WORKS, IT'S OUT OF DATE

                          -- STAFFORD BEER
 Job cpu time:       0 days  0 hours  0 minutes  1.0 seconds.
 File lengths (MBytes):  RWF=     94 Int=      0 D2E=      0 Chk=      2 Scr=      2
 Normal termination of Gaussian 09 at Thu Feb 23 12:47:22 2017.
