 Entering Gaussian System, Link 0=g09
 AtFile(1): H.gbs
            H     0
            S   10   1.00
               1000.000000000000            0.000068713567
                316.227766000000            0.000169141320
                100.000000000000            0.000823394812
                 31.622776600000            0.003425569236
                 10.000000000000            0.013951996000
                  3.162277660000            0.056909313560
                  1.000000000000            0.198286399900
                  0.316227766000            0.496922426700
                  0.100000000000            0.369846276400
                  0.031622776600            0.003752720039
            ****
 Initial command:
 /projects/guscus/apps/gau/g09-e1/g09/l1.exe "/users/lcj1/gaussian/h10/2rows_uhf/ag2bu3/quintet/Gau-7679.inp" -scrdir="/users/lcj1/gaussian/h10/2rows_uhf/ag2bu3/quintet/"
 Entering Link 1 = /projects/guscus/apps/gau/g09-e1/g09/l1.exe PID=      7680.
  
 Copyright (c) 1988,1990,1992,1993,1995,1998,2003,2009,2015,
            Gaussian, Inc.  All Rights Reserved.
  
 This is part of the Gaussian(R) 09 program.  It is based on
 the Gaussian(R) 03 system (copyright 2003, Gaussian, Inc.),
 the Gaussian(R) 98 system (copyright 1998, Gaussian, Inc.),
 the Gaussian(R) 94 system (copyright 1995, Gaussian, Inc.),
 the Gaussian 92(TM) system (copyright 1992, Gaussian, Inc.),
 the Gaussian 90(TM) system (copyright 1990, Gaussian, Inc.),
 the Gaussian 88(TM) system (copyright 1988, Gaussian, Inc.),
 the Gaussian 86(TM) system (copyright 1986, Carnegie Mellon
 University), and the Gaussian 82(TM) system (copyright 1983,
 Carnegie Mellon University). Gaussian is a federally registered
 trademark of Gaussian, Inc.
  
 This software contains proprietary and confidential information,
 including trade secrets, belonging to Gaussian, Inc.
  
 This software is provided under written license and may be
 used, copied, transmitted, or stored only in accord with that
 written license.
  
 The following legend is applicable only to US Government
 contracts under FAR:
  
                    RESTRICTED RIGHTS LEGEND
  
 Use, reproduction and disclosure by the US Government is
 subject to restrictions as set forth in subparagraphs (a)
 and (c) of the Commercial Computer Software - Restricted
 Rights clause in FAR 52.227-19.
  
 Gaussian, Inc.
 340 Quinnipiac St., Bldg. 40, Wallingford CT 06492
  
  
 ---------------------------------------------------------------
 Warning -- This program may not be used in any manner that
 competes with the business of Gaussian, Inc. or will provide
 assistance to any competitor of Gaussian, Inc.  The licensee
 of this program is prohibited from giving any competitor of
 Gaussian, Inc. access to this program.  By using this program,
 the user acknowledges that Gaussian, Inc. is engaged in the
 business of creating and licensing software in the field of
 computational chemistry and represents and warrants to the
 licensee that it is not a competitor of Gaussian, Inc. and that
 it will not use this program in any manner prohibited above.
 ---------------------------------------------------------------
  

 Cite this work as:
 Gaussian 09, Revision E.01,
 M. J. Frisch, G. W. Trucks, H. B. Schlegel, G. E. Scuseria, 
 M. A. Robb, J. R. Cheeseman, G. Scalmani, V. Barone, B. Mennucci, 
 G. A. Petersson, H. Nakatsuji, M. Caricato, X. Li, H. P. Hratchian, 
 A. F. Izmaylov, J. Bloino, G. Zheng, J. L. Sonnenberg, M. Hada, 
 M. Ehara, K. Toyota, R. Fukuda, J. Hasegawa, M. Ishida, T. Nakajima, 
 Y. Honda, O. Kitao, H. Nakai, T. Vreven, J. A. Montgomery, Jr., 
 J. E. Peralta, F. Ogliaro, M. Bearpark, J. J. Heyd, E. Brothers, 
 K. N. Kudin, V. N. Staroverov, T. Keith, R. Kobayashi, J. Normand, 
 K. Raghavachari, A. Rendell, J. C. Burant, S. S. Iyengar, J. Tomasi, 
 M. Cossi, N. Rega, J. M. Millam, M. Klene, J. E. Knox, J. B. Cross, 
 V. Bakken, C. Adamo, J. Jaramillo, R. Gomperts, R. E. Stratmann, 
 O. Yazyev, A. J. Austin, R. Cammi, C. Pomelli, J. W. Ochterski, 
 R. L. Martin, K. Morokuma, V. G. Zakrzewski, G. A. Voth, 
 P. Salvador, J. J. Dannenberg, S. Dapprich, A. D. Daniels, 
 O. Farkas, J. B. Foresman, J. V. Ortiz, J. Cioslowski, 
 and D. J. Fox, Gaussian, Inc., Wallingford CT, 2013.
 
 ******************************************
 Gaussian 09:  ES64L-G09RevE.01 30-Nov-2015
                23-Feb-2017 
 ******************************************
 %chk=h10.chk
 ----------------------------------------------------------------------
 #uhf/gen scf(tight,novaracc,noincfock,fulldiag, ) stable(crhf) guess=r
 ead geom=nocrowd test
 ----------------------------------------------------------------------
 1/38=1/1;
 2/12=1,17=6,18=5,40=1/2;
 3/5=7,16=1,25=1,30=1,116=2/1,2,3;
 4/5=1/1;
 5/5=100002,16=1,32=2,38=6/2;
 8/6=1,10=90,11=11/1,4;
 9/8=4,13=1/2;
 6/7=2,8=2,9=2,10=2,28=1/1;
 99/5=1,9=1/99;
 ----------------------------------------------------------------------
 hf stability analysis of h10 triangular lattice, y= 0.3503135618487248
 1 alpha= 12.000000000000000
 ----------------------------------------------------------------------
 Symbolic Z-matrix:
 Charge =  0 Multiplicity = 5
 H
 H                    1     1.68492 
 H                    1     1.68492  2     156. 
 H                    2     1.68492  1     24.      3     0.       0
 H                    3     1.68492  1     180.     2     0.       0
 H                    4     1.68492  2     180.     1     0.       0
 H                    5     1.68492  3     180.     2     0.       0
 H                    6     1.68492  4     180.     1     0.       0
 H                    7     1.68492  5     180.     2     0.       0
 H                    8     1.68492  6     180.     1     0.       0
 
                          Input orientation:                          
 ---------------------------------------------------------------------
 Center     Atomic      Atomic             Coordinates (Angstroms)
 Number     Number       Type             X           Y           Z
 ---------------------------------------------------------------------
      1          1           0        0.000000    0.000000    0.000000
      2          1           0        0.000000    0.000000    1.684915
      3          1           0        0.685317    0.000000   -1.539247
      4          1           0        0.685317    0.000000    0.145669
      5          1           0        1.370633    0.000000   -3.078493
      6          1           0        1.370633    0.000000   -1.393578
      7          1           0        2.055950    0.000000   -4.617740
      8          1           0        2.055950    0.000000   -2.932825
      9          1           0        2.741267    0.000000   -6.156986
     10          1           0        2.741267    0.000000   -4.472071
 ---------------------------------------------------------------------
                    Distance matrix (angstroms):
                    1          2          3          4          5
     1  H    0.000000
     2  H    1.684915   0.000000
     3  H    1.684915   3.296191   0.000000
     4  H    0.700627   1.684915   1.684915   0.000000
     5  H    3.369830   4.956682   1.684915   3.296191   0.000000
     6  H    1.954660   3.369830   0.700627   1.684915   1.684915
     7  H    5.054745   6.629509   3.369830   4.956682   1.684915
     8  H    3.581674   5.054745   1.954660   3.369830   0.700627
     9  H    6.739660   8.307223   5.054745   6.629509   3.369830
    10  H    5.245375   6.739660   3.581674   5.054745   1.954660
                    6          7          8          9         10
     6  H    0.000000
     7  H    3.296191   0.000000
     8  H    1.684915   1.684915   0.000000
     9  H    4.956682   1.684915   3.296191   0.000000
    10  H    3.369830   0.700627   1.684915   1.684915   0.000000
 Stoichiometry    H10(5)
 Framework group  C2H[SGH(H10)]
 Deg. of freedom     9
 Full point group                 C2H     NOp   4
 Largest Abelian subgroup         C2H     NOp   4
 Largest concise Abelian subgroup C2      NOp   2
                         Standard orientation:                         
 ---------------------------------------------------------------------
 Center     Atomic      Atomic             Coordinates (Angstroms)
 Number     Number       Type             X           Y           Z
 ---------------------------------------------------------------------
      1          1           0        1.370633   -2.236036    0.000000
      2          1           0        1.370633   -3.920951    0.000000
      3          1           0        0.685317   -0.696789    0.000000
      4          1           0        0.685317   -2.381704    0.000000
      5          1           0        0.000000    0.842458    0.000000
      6          1           0       -0.000000   -0.842458    0.000000
      7          1           0       -0.685317    2.381704    0.000000
      8          1           0       -0.685317    0.696789    0.000000
      9          1           0       -1.370633    3.920951    0.000000
     10          1           0       -1.370633    2.236036    0.000000
 ---------------------------------------------------------------------
 Rotational constants (GHZ):    472.4820979      7.9830717      7.8504306
 General basis read from cards:  (5D, 7F)
 There are     5 symmetry adapted cartesian basis functions of AG  symmetry.
 There are     0 symmetry adapted cartesian basis functions of BG  symmetry.
 There are     0 symmetry adapted cartesian basis functions of AU  symmetry.
 There are     5 symmetry adapted cartesian basis functions of BU  symmetry.
 There are     5 symmetry adapted basis functions of AG  symmetry.
 There are     0 symmetry adapted basis functions of BG  symmetry.
 There are     0 symmetry adapted basis functions of AU  symmetry.
 There are     5 symmetry adapted basis functions of BU  symmetry.
    10 basis functions,   100 primitive gaussians,    10 cartesian basis functions
     7 alpha electrons        3 beta electrons
       nuclear repulsion energy        11.0163819318 Hartrees.
 NAtoms=   10 NActive=   10 NUniq=    5 SFac= 4.00D+00 NAtFMM=   60 NAOKFM=F Big=F
 Integral buffers will be    131072 words long.
 Regular integral format.
 Two-electron integral symmetry is turned on.
 One-electron integrals computed using PRISM.
 NBasis=    10 RedAO= T EigKep=  1.61D-01  NBF=     5     0     0     5
 NBsUse=    10 1.00D-06 EigRej= -1.00D+00 NBFU=     5     0     0     5
 Initial guess from the checkpoint file:  "h10.chk"
 B after Tr=     0.000000   -0.000000   -0.000000
         Rot=    0.999992    0.000000    0.000000   -0.003879 Ang=  -0.44 deg.
 Initial guess orbital symmetries:
 Alpha Orbitals:
       Occupied  (AG) (BU) (AG) (BU) (AG) (BU) (BU)
       Virtual   (AG) (BU) (AG)
 Beta  Orbitals:
       Occupied  (AG) (BU) (AG)
       Virtual   (BU) (AG) (BU) (BU) (AG) (BU) (AG)
 Initial guess <Sx>= 0.0000 <Sy>= 0.0000 <Sz>= 2.0000 <S**2>= 6.0003 S= 2.0001
 Keep R1 and R2 ints in memory in symmetry-blocked form, NReq=874427.
 Requested convergence on RMS density matrix=1.00D-08 within 128 cycles.
 Requested convergence on MAX density matrix=1.00D-06.
 Requested convergence on             energy=1.00D-06.
 No special actions if energy rises.
 SCF Done:  E(UHF) =  -4.76363953908     A.U. after    9 cycles
            NFock=  9  Conv=0.46D-08     -V/T= 1.8917
 <Sx>= 0.0000 <Sy>= 0.0000 <Sz>= 2.0000 <S**2>= 6.0003 S= 2.0001
 <L.S>= 0.000000000000E+00
 Annihilation of the first spin contaminant:
 S**2 before annihilation     6.0003,   after     6.0000
 Range of M.O.s used for correlation:     1    10
 NBasis=    10 NAE=     7 NBE=     3 NFC=     0 NFV=     0
 NROrb=     10 NOA=     7 NOB=     3 NVA=     3 NVB=     7
 Semi-Direct transformation.
 ModeAB=           4 MOrb=             7 LenV=     134111501
 LASXX=         1176 LTotXX=        1176 LenRXX=        3283
 LTotAB=        2107 MaxLAS=        2100 LenRXY=           0
 NonZer=        4459 LenScr=      655360 LnRSAI=        2100
 LnScr1=      655360 LExtra=           0 Total=      1316103
 MaxDsk=          -1 SrtSym=           T ITran=            3
 JobTyp=1 Pass  1:  I=   1 to   7.
 (rs|ai) integrals will be sorted in core.
 ModeAB=           4 MOrb=             3 LenV=     134111501
 LASXX=          573 LTotXX=         573 LenRXX=         609
 LTotAB=          36 MaxLAS=         900 LenRXY=           0
 NonZer=        1182 LenScr=      655360 LnRSAI=         900
 LnScr1=      655360 LExtra=           0 Total=      1312229
 MaxDsk=          -1 SrtSym=           T ITran=            3
 JobTyp=2 Pass  1:  I=   1 to   3.
 (rs|ai) integrals will be sorted in core.
 Spin components of T(2) and E(2):
     alpha-alpha T2 =       0.1142709621D-03 E2=     -0.2383582247D-03
     alpha-beta  T2 =       0.3823104335D-01 E2=     -0.4832740233D-01
     beta-beta   T2 =       0.2730826015D-03 E2=     -0.4398628079D-03
 ANorm=    0.1019126291D+01
 E2 =    -0.4900562337D-01 EUMP2 =    -0.48126451624408D+01
 (S**2,0)=  0.60003D+01           (S**2,1)=  0.60001D+01
 E(PUHF)=      -0.47636673118D+01        E(PMP2)=      -0.48126622295D+01
 Second order stability test of a single determinant UHF wave function:
 Stabil:  MDV=134217728
 ***********************************************************************
 Matrix         Lowest Root    Major Pairs
 ***********************************************************************
 Internal UHF    -0.1100928    3B=4B 7A=8A 7A=10A 1B=4B
 RUHF --> CUHF (A)0.157768     Stable
 RUHF --> CUHF (B)0.1413918    Stable
 RUHF --> GHF    -0.4638802    7A=4B
 Not stable.
 ***********************************************************************

 **********************************************************************

            Population analysis using the SCF density.

 **********************************************************************

 Orbital symmetries:
 Alpha Orbitals:
       Occupied  (AG) (BU) (AG) (BU) (AG) (BU) (BU)
       Virtual   (AG) (BU) (AG)
 Beta  Orbitals:
       Occupied  (AG) (BU) (AG)
       Virtual   (BU) (AG) (BU) (BU) (AG) (BU) (AG)
 The electronic state is 5-BU.
 Alpha  occ. eigenvalues --   -0.83096  -0.75156  -0.67334  -0.61286  -0.46074
 Alpha  occ. eigenvalues --   -0.45149  -0.09486
 Alpha virt. eigenvalues --    0.27810   0.45502   0.55480
  Beta  occ. eigenvalues --   -0.68542  -0.66000  -0.53235
  Beta virt. eigenvalues --   -0.13521   0.16380   0.16919   0.31543   0.38938
  Beta virt. eigenvalues --    0.54103   0.71967
          Condensed to atoms (all electrons):
               1          2          3          4          5          6
     1  H    0.684311  -0.067548   0.019495   0.450397   0.005796  -0.085437
     2  H   -0.067548   1.132675   0.001847  -0.068211   0.000008   0.001575
     3  H    0.019495   0.001847   1.258120  -0.114835   0.252041  -0.257413
     4  H    0.450397  -0.068211  -0.114835   0.723832  -0.011364   0.029189
     5  H    0.005796   0.000008   0.252041  -0.011364   1.336255  -0.261579
     6  H   -0.085437   0.001575  -0.257413   0.029189  -0.261579   1.336255
     7  H    0.000173   0.000001   0.007468  -0.000130   0.029189  -0.011364
     8  H   -0.005569  -0.000074  -0.188519   0.007468  -0.257413   0.252041
     9  H    0.000000  -0.000000  -0.000074   0.000001   0.001575   0.000008
    10  H   -0.000043   0.000000  -0.005569   0.000173  -0.085437   0.005796
               7          8          9         10
     1  H    0.000173  -0.005569   0.000000  -0.000043
     2  H    0.000001  -0.000074  -0.000000   0.000000
     3  H    0.007468  -0.188519  -0.000074  -0.005569
     4  H   -0.000130   0.007468   0.000001   0.000173
     5  H    0.029189  -0.257413   0.001575  -0.085437
     6  H   -0.011364   0.252041   0.000008   0.005796
     7  H    0.723832  -0.114835  -0.068211   0.450397
     8  H   -0.114835   1.258120   0.001847   0.019495
     9  H   -0.068211   0.001847   1.132675  -0.067548
    10  H    0.450397   0.019495  -0.067548   0.684311
          Atomic-Atomic Spin Densities.
               1          2          3          4          5          6
     1  H    0.135608  -0.068174   0.029466   0.013076   0.010476  -0.071338
     2  H   -0.068174   1.132231   0.002229  -0.068741   0.000033   0.001955
     3  H    0.029466   0.002229   1.041647  -0.107109   0.180848  -0.443049
     4  H    0.013076  -0.068741  -0.107109   0.141515  -0.006298   0.046127
     5  H    0.010476   0.000033   0.180848  -0.006298   1.069207  -0.342041
     6  H   -0.071338   0.001955  -0.443049   0.046127  -0.342041   1.069207
     7  H    0.000054   0.000000   0.011554  -0.000262   0.046127  -0.006298
     8  H   -0.002524  -0.000055  -0.234832   0.011554  -0.443049   0.180848
     9  H   -0.000000  -0.000000  -0.000055   0.000000   0.001955   0.000033
    10  H   -0.000133  -0.000000  -0.002524   0.000054  -0.071338   0.010476
               7          8          9         10
     1  H    0.000054  -0.002524  -0.000000  -0.000133
     2  H    0.000000  -0.000055  -0.000000  -0.000000
     3  H    0.011554  -0.234832  -0.000055  -0.002524
     4  H   -0.000262   0.011554   0.000000   0.000054
     5  H    0.046127  -0.443049   0.001955  -0.071338
     6  H   -0.006298   0.180848   0.000033   0.010476
     7  H    0.141515  -0.107109  -0.068741   0.013076
     8  H   -0.107109   1.041647   0.002229   0.029466
     9  H   -0.068741   0.002229   1.132231  -0.068174
    10  H    0.013076   0.029466  -0.068174   0.135608
 Mulliken charges and spin densities:
               1          2
     1  H   -0.001575   0.046511
     2  H   -0.000274   0.999477
     3  H    0.027440   0.478174
     4  H   -0.016520   0.029917
     5  H   -0.009069   0.445921
     6  H   -0.009069   0.445921
     7  H   -0.016520   0.029917
     8  H    0.027440   0.478174
     9  H   -0.000274   0.999477
    10  H   -0.001575   0.046511
 Sum of Mulliken charges =  -0.00000   4.00000
 Mulliken charges and spin densities with hydrogens summed into heavy atoms:
               1          2
 Electronic spatial extent (au):  <R**2>=            260.1025
 Charge=             -0.0000 electrons
 Dipole moment (field-independent basis, Debye):
    X=             -0.0000    Y=              0.0000    Z=              0.0000  Tot=              0.0000
 Quadrupole moment (field-independent basis, Debye-Ang):
   XX=            -13.4895   YY=            -16.5751   ZZ=            -12.9721
   XY=              0.6144   XZ=              0.0000   YZ=             -0.0000
 Traceless Quadrupole moment (field-independent basis, Debye-Ang):
   XX=              0.8561   YY=             -2.2296   ZZ=              1.3735
   XY=              0.6144   XZ=              0.0000   YZ=             -0.0000
 Octapole moment (field-independent basis, Debye-Ang**2):
  XXX=              0.0000  YYY=             -0.0000  ZZZ=             -0.0000  XYY=              0.0000
  XXY=              0.0000  XXZ=             -0.0000  XZZ=             -0.0000  YZZ=              0.0000
  YYZ=             -0.0000  XYZ=              0.0000
 Hexadecapole moment (field-independent basis, Debye-Ang**3):
 XXXX=            -88.8202 YYYY=           -551.8523 ZZZZ=            -15.8252 XXXY=             82.9788
 XXXZ=              0.0000 YYYX=            117.6504 YYYZ=             -0.0000 ZZZX=              0.0000
 ZZZY=             -0.0000 XXYY=            -98.5386 XXZZ=            -17.8228 YYZZ=            -77.5117
 XXYZ=             -0.0000 YYXZ=              0.0000 ZZXY=             27.7415
 N-N= 1.101638193181D+01 E-N=-3.114874547485D+01  KE= 5.342283260212D+00
 Symmetry AG   KE= 2.225354419155D+00
 Symmetry BG   KE= 0.000000000000D+00
 Symmetry AU   KE= 0.000000000000D+00
 Symmetry BU   KE= 3.116928841057D+00
                          Isotropic Fermi Contact Couplings
        Atom                 a.u.       MegaHertz       Gauss      10(-4) cm-1
     1  H(1)               0.03834      42.84650      15.28870      14.29205
     2  H(1)               0.34239     382.60957     136.52461     127.62482
     3  H(1)               0.24061     268.86920      95.93921      89.68511
     4  H(1)               0.03775      42.18867      15.05396      14.07262
     5  H(1)               0.24291     271.44827      96.85949      90.54540
     6  H(1)               0.24291     271.44827      96.85949      90.54540
     7  H(1)               0.03775      42.18867      15.05396      14.07262
     8  H(1)               0.24061     268.86920      95.93921      89.68511
     9  H(1)               0.34239     382.60957     136.52461     127.62482
    10  H(1)               0.03834      42.84650      15.28870      14.29205
 --------------------------------------------------------
       Center         ----  Spin Dipole Couplings  ----
                      3XX-RR        3YY-RR        3ZZ-RR
 --------------------------------------------------------
     1   Atom       -0.004283      0.061595     -0.057312
     2   Atom       -0.000427      0.001778     -0.001351
     3   Atom        0.101585     -0.020447     -0.081138
     4   Atom       -0.001179      0.063441     -0.062262
     5   Atom        0.111333     -0.027197     -0.084136
     6   Atom        0.111333     -0.027197     -0.084136
     7   Atom       -0.001179      0.063441     -0.062262
     8   Atom        0.101585     -0.020447     -0.081138
     9   Atom       -0.000427      0.001778     -0.001351
    10   Atom       -0.004283      0.061595     -0.057312
 --------------------------------------------------------
                        XY            XZ            YZ
 --------------------------------------------------------
     1   Atom       -0.018087     -0.000000      0.000000
     2   Atom       -0.002110     -0.000000      0.000000
     3   Atom        0.030488     -0.000000      0.000000
     4   Atom       -0.032219     -0.000000      0.000000
     5   Atom        0.019394     -0.000000     -0.000000
     6   Atom        0.019394     -0.000000      0.000000
     7   Atom       -0.032219     -0.000000      0.000000
     8   Atom        0.030488      0.000000      0.000000
     9   Atom       -0.002110      0.000000     -0.000000
    10   Atom       -0.018087     -0.000000     -0.000000
 --------------------------------------------------------


 ---------------------------------------------------------------------------------
              Anisotropic Spin Dipole Couplings in Principal Axis System
 ---------------------------------------------------------------------------------

       Atom             a.u.   MegaHertz   Gauss  10(-4) cm-1        Axes

              Baa    -0.0573   -30.579   -10.911   -10.200  0.0000  0.0000  1.0000
     1 H(1)   Bbb    -0.0089    -4.760    -1.699    -1.588  0.9686  0.2484  0.0000
              Bcc     0.0662    35.339    12.610    11.788 -0.2484  0.9686  0.0000
 
              Baa    -0.0017    -0.910    -0.325    -0.304  0.8553  0.5182  0.0000
     2 H(1)   Bbb    -0.0014    -0.721    -0.257    -0.240  0.0000  0.0000  1.0000
              Bcc     0.0031     1.631     0.582     0.544 -0.5182  0.8553  0.0000
 
              Baa    -0.0811   -43.291   -15.447   -14.440  0.0000  0.0000  1.0000
     3 H(1)   Bbb    -0.0276   -14.747    -5.262    -4.919 -0.2296  0.9733  0.0000
              Bcc     0.1088    58.039    20.710    19.360  0.9733  0.2296  0.0000
 
              Baa    -0.0623   -33.220   -11.854   -11.081  0.0000  0.0000  1.0000
     4 H(1)   Bbb    -0.0145    -7.735    -2.760    -2.580  0.9241  0.3820  0.0000
              Bcc     0.0768    40.956    14.614    13.661 -0.3820  0.9241  0.0000
 
              Baa    -0.0841   -44.891   -16.018   -14.974  0.0000  0.0000  1.0000
     5 H(1)   Bbb    -0.0299   -15.932    -5.685    -5.314 -0.1361  0.9907 -0.0000
              Bcc     0.1140    60.823    21.703    20.288  0.9907  0.1361  0.0000
 
              Baa    -0.0841   -44.891   -16.018   -14.974  0.0000  0.0000  1.0000
     6 H(1)   Bbb    -0.0299   -15.932    -5.685    -5.314 -0.1361  0.9907  0.0000
              Bcc     0.1140    60.823    21.703    20.288  0.9907  0.1361  0.0000
 
              Baa    -0.0623   -33.220   -11.854   -11.081  0.0000  0.0000  1.0000
     7 H(1)   Bbb    -0.0145    -7.735    -2.760    -2.580  0.9241  0.3820  0.0000
              Bcc     0.0768    40.956    14.614    13.661 -0.3820  0.9241  0.0000
 
              Baa    -0.0811   -43.291   -15.447   -14.440  0.0000  0.0000  1.0000
     8 H(1)   Bbb    -0.0276   -14.747    -5.262    -4.919 -0.2296  0.9733 -0.0000
              Bcc     0.1088    58.039    20.710    19.360  0.9733  0.2296  0.0000
 
              Baa    -0.0017    -0.910    -0.325    -0.304  0.8553  0.5182  0.0000
     9 H(1)   Bbb    -0.0014    -0.721    -0.257    -0.240  0.0000  0.0000  1.0000
              Bcc     0.0031     1.631     0.582     0.544 -0.5182  0.8553  0.0000
 
              Baa    -0.0573   -30.579   -10.911   -10.200  0.0000  0.0000  1.0000
    10 H(1)   Bbb    -0.0089    -4.760    -1.699    -1.588  0.9686  0.2484 -0.0000
              Bcc     0.0662    35.339    12.610    11.788 -0.2484  0.9686  0.0000
 

 ---------------------------------------------------------------------------------


 Test job not archived.
 1\1\GINC-SULU\Stability\UHF\Gen\H10(5)\LCJ1\23-Feb-2017\0\\#uhf/gen sc
 f(tight,novaracc,noincfock,fulldiag, ) stable(crhf) guess=read geom=no
 crowd test\\hf stability analysis of h10 triangular lattice, y= 0.3503
 1356184872481 alpha= 12.000000000000000\\0,5\H\H,1,1.6849151237\H,1,1.
 6849151237,2,156.\H,2,1.6849151237,1,24.,3,0.,0\H,3,1.6849151237,1,180
 .,2,0.,0\H,4,1.6849151237,2,180.,1,0.,0\H,5,1.6849151237,3,180.,2,0.,0
 \H,6,1.6849151237,4,180.,1,0.,0\H,7,1.6849151237,5,180.,2,0.,0\H,8,1.6
 849151237,6,180.,1,0.,0\\Version=ES64L-G09RevE.01\State=5-BU\HF=-4.763
 6395\MP2=-4.8126452\PUHF=-4.7636673\PMP2-0=-4.8126622\S2=6.000313\S2-1
 =6.000072\S2A=6.\RMSD=4.649e-09\Dipole=0.,0.,0.\Quadrupole=0.6364616,1
 .0211659,-1.6576275,0.,0.4567677,0.\PG=C02H [SGH(H10)]\\@


 ERWIN WITH HIS PSI CAN DO
 CALCULATIONS QUITE A FEW.
 BUT ONE THING HAS NOT BEEN SEEN
 JUST WHAT DOES PSI REALLY MEAN.
 -- WALTER HUCKEL, TRANS. BY FELIX BLOCH
 Job cpu time:       0 days  0 hours  0 minutes  0.9 seconds.
 File lengths (MBytes):  RWF=     94 Int=      0 D2E=      0 Chk=      2 Scr=      2
 Normal termination of Gaussian 09 at Thu Feb 23 12:42:25 2017.
