 Entering Gaussian System, Link 0=g09
 AtFile(1): H.gbs
            H     0
            S   10   1.00
               1000.000000000000            0.000068713567
                316.227766000000            0.000169141320
                100.000000000000            0.000823394812
                 31.622776600000            0.003425569236
                 10.000000000000            0.013951996000
                  3.162277660000            0.056909313560
                  1.000000000000            0.198286399900
                  0.316227766000            0.496922426700
                  0.100000000000            0.369846276400
                  0.031622776600            0.003752720039
            ****
 Initial command:
 /projects/guscus/apps/gau/g09-e1/g09/l1.exe "/users/lcj1/gaussian/h10/2rows_uhf/ag2bu3/quintet/Gau-21158.inp" -scrdir="/users/lcj1/gaussian/h10/2rows_uhf/ag2bu3/quintet/"
 Entering Link 1 = /projects/guscus/apps/gau/g09-e1/g09/l1.exe PID=     21159.
  
 Copyright (c) 1988,1990,1992,1993,1995,1998,2003,2009,2015,
            Gaussian, Inc.  All Rights Reserved.
  
 This is part of the Gaussian(R) 09 program.  It is based on
 the Gaussian(R) 03 system (copyright 2003, Gaussian, Inc.),
 the Gaussian(R) 98 system (copyright 1998, Gaussian, Inc.),
 the Gaussian(R) 94 system (copyright 1995, Gaussian, Inc.),
 the Gaussian 92(TM) system (copyright 1992, Gaussian, Inc.),
 the Gaussian 90(TM) system (copyright 1990, Gaussian, Inc.),
 the Gaussian 88(TM) system (copyright 1988, Gaussian, Inc.),
 the Gaussian 86(TM) system (copyright 1986, Carnegie Mellon
 University), and the Gaussian 82(TM) system (copyright 1983,
 Carnegie Mellon University). Gaussian is a federally registered
 trademark of Gaussian, Inc.
  
 This software contains proprietary and confidential information,
 including trade secrets, belonging to Gaussian, Inc.
  
 This software is provided under written license and may be
 used, copied, transmitted, or stored only in accord with that
 written license.
  
 The following legend is applicable only to US Government
 contracts under FAR:
  
                    RESTRICTED RIGHTS LEGEND
  
 Use, reproduction and disclosure by the US Government is
 subject to restrictions as set forth in subparagraphs (a)
 and (c) of the Commercial Computer Software - Restricted
 Rights clause in FAR 52.227-19.
  
 Gaussian, Inc.
 340 Quinnipiac St., Bldg. 40, Wallingford CT 06492
  
  
 ---------------------------------------------------------------
 Warning -- This program may not be used in any manner that
 competes with the business of Gaussian, Inc. or will provide
 assistance to any competitor of Gaussian, Inc.  The licensee
 of this program is prohibited from giving any competitor of
 Gaussian, Inc. access to this program.  By using this program,
 the user acknowledges that Gaussian, Inc. is engaged in the
 business of creating and licensing software in the field of
 computational chemistry and represents and warrants to the
 licensee that it is not a competitor of Gaussian, Inc. and that
 it will not use this program in any manner prohibited above.
 ---------------------------------------------------------------
  

 Cite this work as:
 Gaussian 09, Revision E.01,
 M. J. Frisch, G. W. Trucks, H. B. Schlegel, G. E. Scuseria, 
 M. A. Robb, J. R. Cheeseman, G. Scalmani, V. Barone, B. Mennucci, 
 G. A. Petersson, H. Nakatsuji, M. Caricato, X. Li, H. P. Hratchian, 
 A. F. Izmaylov, J. Bloino, G. Zheng, J. L. Sonnenberg, M. Hada, 
 M. Ehara, K. Toyota, R. Fukuda, J. Hasegawa, M. Ishida, T. Nakajima, 
 Y. Honda, O. Kitao, H. Nakai, T. Vreven, J. A. Montgomery, Jr., 
 J. E. Peralta, F. Ogliaro, M. Bearpark, J. J. Heyd, E. Brothers, 
 K. N. Kudin, V. N. Staroverov, T. Keith, R. Kobayashi, J. Normand, 
 K. Raghavachari, A. Rendell, J. C. Burant, S. S. Iyengar, J. Tomasi, 
 M. Cossi, N. Rega, J. M. Millam, M. Klene, J. E. Knox, J. B. Cross, 
 V. Bakken, C. Adamo, J. Jaramillo, R. Gomperts, R. E. Stratmann, 
 O. Yazyev, A. J. Austin, R. Cammi, C. Pomelli, J. W. Ochterski, 
 R. L. Martin, K. Morokuma, V. G. Zakrzewski, G. A. Voth, 
 P. Salvador, J. J. Dannenberg, S. Dapprich, A. D. Daniels, 
 O. Farkas, J. B. Foresman, J. V. Ortiz, J. Cioslowski, 
 and D. J. Fox, Gaussian, Inc., Wallingford CT, 2013.
 
 ******************************************
 Gaussian 09:  ES64L-G09RevE.01 30-Nov-2015
                23-Feb-2017 
 ******************************************
 %chk=h10.chk
 ----------------------------------------------------------------------
 #uhf/gen scf(tight,novaracc,noincfock,fulldiag, ) stable(crhf) guess=r
 ead geom=nocrowd test
 ----------------------------------------------------------------------
 1/38=1/1;
 2/12=1,17=6,18=5,40=1/2;
 3/5=7,16=1,25=1,30=1,116=2/1,2,3;
 4/5=1/1;
 5/5=100002,16=1,32=2,38=6/2;
 8/6=1,10=90,11=11/1,4;
 9/8=4,13=1/2;
 6/7=2,8=2,9=2,10=2,28=1/1;
 99/5=1,9=1/99;
 ----------------------------------------------------------------------
 hf stability analysis of h10 triangular lattice, y= 1.4808545702551064
  alpha= 75.250000000000000
 ----------------------------------------------------------------------
 Symbolic Z-matrix:
 Charge =  0 Multiplicity = 5
 H
 H                    1     1.53132 
 H                    1     1.53132  2     29.5 
 H                    2     1.53132  1     150.5    3     0.       0
 H                    3     1.53132  1     180.     2     0.       0
 H                    4     1.53132  2     180.     1     0.       0
 H                    5     1.53132  3     180.     2     0.       0
 H                    6     1.53132  4     180.     1     0.       0
 H                    7     1.53132  5     180.     2     0.       0
 H                    8     1.53132  6     180.     1     0.       0
 
                          Input orientation:                          
 ---------------------------------------------------------------------
 Center     Atomic      Atomic             Coordinates (Angstroms)
 Number     Number       Type             X           Y           Z
 ---------------------------------------------------------------------
      1          1           0        0.000000    0.000000    0.000000
      2          1           0        0.000000    0.000000    1.531318
      3          1           0        0.754057    0.000000    1.332791
      4          1           0        0.754057    0.000000    2.864109
      5          1           0        1.508114    0.000000    2.665582
      6          1           0        1.508114    0.000000    4.196900
      7          1           0        2.262171    0.000000    3.998373
      8          1           0        2.262171    0.000000    5.529691
      9          1           0        3.016228    0.000000    5.331164
     10          1           0        3.016228    0.000000    6.862482
 ---------------------------------------------------------------------
                    Distance matrix (angstroms):
                    1          2          3          4          5
     1  H    0.000000
     2  H    1.531318   0.000000
     3  H    1.531318   0.779753   0.000000
     4  H    2.961709   1.531318   1.531318   0.000000
     5  H    3.062635   1.887051   1.531318   0.779753   0.000000
     6  H    4.459639   3.062635   2.961709   1.531318   1.531318
     7  H    4.593953   3.347205   3.062635   1.887051   1.531318
     8  H    5.974521   4.593953   4.459639   3.062635   2.961709
     9  H    6.125271   4.851439   4.593953   3.347205   3.062635
    10  H    7.496085   6.125271   5.974521   4.593953   4.459639
                    6          7          8          9         10
     6  H    0.000000
     7  H    0.779753   0.000000
     8  H    1.531318   1.531318   0.000000
     9  H    1.887051   1.531318   0.779753   0.000000
    10  H    3.062635   2.961709   1.531318   1.531318   0.000000
 Stoichiometry    H10(5)
 Framework group  C2H[SGH(H10)]
 Deg. of freedom     9
 Full point group                 C2H     NOp   4
 Largest Abelian subgroup         C2H     NOp   4
 Largest concise Abelian subgroup C2      NOp   2
                         Standard orientation:                         
 ---------------------------------------------------------------------
 Center     Atomic      Atomic             Coordinates (Angstroms)
 Number     Number       Type             X           Y           Z
 ---------------------------------------------------------------------
      1          1           0        1.508114    3.431241    0.000000
      2          1           0        1.508114    1.899923    0.000000
      3          1           0        0.754057    2.098450    0.000000
      4          1           0        0.754057    0.567132    0.000000
      5          1           0       -0.000000    0.765659    0.000000
      6          1           0       -0.000000   -0.765659   -0.000000
      7          1           0       -0.754057   -0.567132    0.000000
      8          1           0       -0.754057   -2.098450    0.000000
      9          1           0       -1.508114   -1.899923    0.000000
     10          1           0       -1.508114   -3.431241    0.000000
 ---------------------------------------------------------------------
 Rotational constants (GHZ):    387.1155864      9.7434911      9.5042737
 General basis read from cards:  (5D, 7F)
 There are     5 symmetry adapted cartesian basis functions of AG  symmetry.
 There are     0 symmetry adapted cartesian basis functions of BG  symmetry.
 There are     0 symmetry adapted cartesian basis functions of AU  symmetry.
 There are     5 symmetry adapted cartesian basis functions of BU  symmetry.
 There are     5 symmetry adapted basis functions of AG  symmetry.
 There are     0 symmetry adapted basis functions of BG  symmetry.
 There are     0 symmetry adapted basis functions of AU  symmetry.
 There are     5 symmetry adapted basis functions of BU  symmetry.
    10 basis functions,   100 primitive gaussians,    10 cartesian basis functions
     7 alpha electrons        3 beta electrons
       nuclear repulsion energy        11.4622021743 Hartrees.
 NAtoms=   10 NActive=   10 NUniq=    5 SFac= 4.00D+00 NAtFMM=   60 NAOKFM=F Big=F
 Integral buffers will be    131072 words long.
 Regular integral format.
 Two-electron integral symmetry is turned on.
 One-electron integrals computed using PRISM.
 NBasis=    10 RedAO= T EigKep=  1.72D-01  NBF=     5     0     0     5
 NBsUse=    10 1.00D-06 EigRej= -1.00D+00 NBFU=     5     0     0     5
 Initial guess from the checkpoint file:  "h10.chk"
 B after Tr=    -0.000000    0.000000    0.000000
         Rot=    0.999992    0.000000   -0.000000   -0.003879 Ang=  -0.44 deg.
 Initial guess orbital symmetries:
 Alpha Orbitals:
       Occupied  (AG) (BU) (AG) (BU) (AG) (BU) (BU)
       Virtual   (AG) (BU) (AG)
 Beta  Orbitals:
       Occupied  (AG) (BU) (AG)
       Virtual   (BU) (AG) (BU) (BU) (AG) (BU) (AG)
 Initial guess <Sx>= 0.0000 <Sy>= 0.0000 <Sz>= 2.0000 <S**2>= 6.0011 S= 2.0002
 Keep R1 and R2 ints in memory in symmetry-blocked form, NReq=874875.
 Requested convergence on RMS density matrix=1.00D-08 within 128 cycles.
 Requested convergence on MAX density matrix=1.00D-06.
 Requested convergence on             energy=1.00D-06.
 No special actions if energy rises.
 SCF Done:  E(UHF) =  -4.83925345578     A.U. after    9 cycles
            NFock=  9  Conv=0.32D-08     -V/T= 1.8930
 <Sx>= 0.0000 <Sy>= 0.0000 <Sz>= 2.0000 <S**2>= 6.0010 S= 2.0002
 <L.S>= 0.000000000000E+00
 Annihilation of the first spin contaminant:
 S**2 before annihilation     6.0010,   after     6.0000
 Range of M.O.s used for correlation:     1    10
 NBasis=    10 NAE=     7 NBE=     3 NFC=     0 NFV=     0
 NROrb=     10 NOA=     7 NOB=     3 NVA=     3 NVB=     7
 Semi-Direct transformation.
 ModeAB=           4 MOrb=             7 LenV=     134110745
 LASXX=         1176 LTotXX=        1176 LenRXX=        3283
 LTotAB=        2107 MaxLAS=        2100 LenRXY=           0
 NonZer=        4459 LenScr=      655360 LnRSAI=        2100
 LnScr1=      655360 LExtra=           0 Total=      1316103
 MaxDsk=          -1 SrtSym=           T ITran=            3
 JobTyp=1 Pass  1:  I=   1 to   7.
 (rs|ai) integrals will be sorted in core.
 ModeAB=           4 MOrb=             3 LenV=     134110745
 LASXX=          573 LTotXX=         573 LenRXX=         609
 LTotAB=          36 MaxLAS=         900 LenRXY=           0
 NonZer=        1182 LenScr=      655360 LnRSAI=         900
 LnScr1=      655360 LExtra=           0 Total=      1312229
 MaxDsk=          -1 SrtSym=           T ITran=            3
 JobTyp=2 Pass  1:  I=   1 to   3.
 (rs|ai) integrals will be sorted in core.
 Spin components of T(2) and E(2):
     alpha-alpha T2 =       0.2175382076D-03 E2=     -0.4121621286D-03
     alpha-beta  T2 =       0.3310429996D-01 E2=     -0.4709195755D-01
     beta-beta   T2 =       0.4854117810D-03 E2=     -0.7789923124D-03
 ANorm=    0.1016763124D+01
 E2 =    -0.4828311199D-01 EUMP2 =    -0.48875365677622D+01
 (S**2,0)=  0.60010D+01           (S**2,1)=  0.60003D+01
 E(PUHF)=      -0.48393349653D+01        E(PMP2)=      -0.48875907137D+01
 Second order stability test of a single determinant UHF wave function:
 Stabil:  MDV=134217728
 ***********************************************************************
 Matrix         Lowest Root    Major Pairs
 ***********************************************************************
 Internal UHF    -0.0500363    7A=8A 3B=4B 1B=4B 7A=10A 3B=6B
 RUHF --> CUHF (A)0.1668255    Stable
 RUHF --> CUHF (B)0.1842518    Stable
 RUHF --> GHF    -0.319242     7A=4B
 Not stable.
 ***********************************************************************

 **********************************************************************

            Population analysis using the SCF density.

 **********************************************************************

 Orbital symmetries:
 Alpha Orbitals:
       Occupied  (AG) (BU) (AG) (BU) (AG) (BU) (BU)
       Virtual   (AG) (BU) (AG)
 Beta  Orbitals:
       Occupied  (AG) (BU) (AG)
       Virtual   (BU) (AG) (BU) (BU) (AG) (BU) (AG)
 The electronic state is 5-BU.
 Alpha  occ. eigenvalues --   -0.84463  -0.75591  -0.66484  -0.57183  -0.42906
 Alpha  occ. eigenvalues --   -0.39857  -0.16952
 Alpha virt. eigenvalues --    0.21613   0.40661   0.53970
  Beta  occ. eigenvalues --   -0.69563  -0.65144  -0.50781
  Beta virt. eigenvalues --   -0.07039   0.18576   0.20041   0.24565   0.32954
  Beta virt. eigenvalues --    0.50451   0.70843
          Condensed to atoms (all electrons):
               1          2          3          4          5          6
     1  H    1.204316  -0.103257  -0.097059   0.004105   0.003807   0.000031
     2  H   -0.103257   0.747217   0.462507  -0.005509  -0.104388   0.007266
     3  H   -0.097059   0.462507   0.771572  -0.135818   0.011903  -0.018654
     4  H    0.004105  -0.005509  -0.135818   1.135809  -0.074205   0.214416
     5  H    0.003807  -0.104388   0.011903  -0.074205   1.229621  -0.251215
     6  H    0.000031   0.007266  -0.018654   0.214416  -0.251215   1.229621
     7  H   -0.000324  -0.005969   0.011268  -0.178053   0.214416  -0.074205
     8  H    0.000009   0.000426  -0.000314   0.011268  -0.018654   0.011903
     9  H    0.000003  -0.000068   0.000426  -0.005969   0.007266  -0.104388
    10  H   -0.000000   0.000003   0.000009  -0.000324   0.000031   0.003807
               7          8          9         10
     1  H   -0.000324   0.000009   0.000003  -0.000000
     2  H   -0.005969   0.000426  -0.000068   0.000003
     3  H    0.011268  -0.000314   0.000426   0.000009
     4  H   -0.178053   0.011268  -0.005969  -0.000324
     5  H    0.214416  -0.018654   0.007266   0.000031
     6  H   -0.074205   0.011903  -0.104388   0.003807
     7  H    1.135809  -0.135818  -0.005509   0.004105
     8  H   -0.135818   0.771572   0.462507  -0.097059
     9  H   -0.005509   0.462507   0.747217  -0.103257
    10  H    0.004105  -0.097059  -0.103257   1.204316
          Atomic-Atomic Spin Densities.
               1          2          3          4          5          6
     1  H    1.201248  -0.115041  -0.109131   0.005181   0.005062   0.000186
     2  H   -0.115041   0.218082   0.050313   0.003321  -0.083767   0.016692
     3  H   -0.109131   0.050313   0.172004  -0.132588   0.037328  -0.008131
     4  H    0.005181   0.003321  -0.132588   0.923266  -0.255538   0.131712
     5  H    0.005062  -0.083767   0.037328  -0.255538   0.935657  -0.353472
     6  H    0.000186   0.016692  -0.008131   0.131712  -0.353472   0.935657
     7  H   -0.000225  -0.000751   0.018968  -0.222960   0.131712  -0.255538
     8  H    0.000002   0.000042  -0.000749   0.018968  -0.008131   0.037328
     9  H   -0.000002  -0.000337   0.000042  -0.000751   0.016692  -0.083767
    10  H   -0.000000  -0.000002   0.000002  -0.000225   0.000186   0.005062
               7          8          9         10
     1  H   -0.000225   0.000002  -0.000002  -0.000000
     2  H   -0.000751   0.000042  -0.000337  -0.000002
     3  H    0.018968  -0.000749   0.000042   0.000002
     4  H   -0.222960   0.018968  -0.000751  -0.000225
     5  H    0.131712  -0.008131   0.016692   0.000186
     6  H   -0.255538   0.037328  -0.083767   0.005062
     7  H    0.923266  -0.132588   0.003321   0.005181
     8  H   -0.132588   0.172004   0.050313  -0.109131
     9  H    0.003321   0.050313   0.218082  -0.115041
    10  H    0.005181  -0.109131  -0.115041   1.201248
 Mulliken charges and spin densities:
               1          2
     1  H   -0.011631   0.987278
     2  H    0.001773   0.088550
     3  H   -0.005839   0.028057
     4  H    0.034279   0.470387
     5  H   -0.018582   0.425728
     6  H   -0.018582   0.425728
     7  H    0.034279   0.470387
     8  H   -0.005839   0.028057
     9  H    0.001773   0.088550
    10  H   -0.011631   0.987278
 Sum of Mulliken charges =  -0.00000   4.00000
 Mulliken charges and spin densities with hydrogens summed into heavy atoms:
               1          2
 Electronic spatial extent (au):  <R**2>=            221.0945
 Charge=             -0.0000 electrons
 Dipole moment (field-independent basis, Debye):
    X=              0.0000    Y=              0.0000    Z=              0.0000  Tot=              0.0000
 Quadrupole moment (field-independent basis, Debye-Ang):
   XX=            -13.4348   YY=            -17.6770   ZZ=            -12.8459
   XY=             -1.3982   XZ=              0.0000   YZ=              0.0000
 Traceless Quadrupole moment (field-independent basis, Debye-Ang):
   XX=              1.2178   YY=             -3.0244   ZZ=              1.8067
   XY=             -1.3982   XZ=              0.0000   YZ=              0.0000
 Octapole moment (field-independent basis, Debye-Ang**2):
  XXX=              0.0000  YYY=             -0.0000  ZZZ=             -0.0000  XYY=              0.0000
  XXY=              0.0000  XXZ=             -0.0000  XZZ=              0.0000  YZZ=              0.0000
  YYZ=             -0.0000  XYZ=             -0.0000
 Hexadecapole moment (field-independent basis, Debye-Ang**3):
 XXXX=           -103.5308 YYYY=           -444.9843 ZZZZ=            -15.5480 XXXY=            -82.0689
 XXXZ=              0.0000 YYYX=           -121.5373 YYYZ=              0.0000 ZZZX=              0.0000
 ZZZY=              0.0000 XXYY=            -90.3590 XXZZ=            -20.1968 YYZZ=            -60.1739
 XXYZ=              0.0000 YYXZ=              0.0000 ZZXY=            -26.4058
 N-N= 1.146220217432D+01 E-N=-3.233256638955D+01  KE= 5.418897288780D+00
 Symmetry AG   KE= 2.274555295305D+00
 Symmetry BG   KE= 0.000000000000D+00
 Symmetry AU   KE= 0.000000000000D+00
 Symmetry BU   KE= 3.144341993475D+00
                          Isotropic Fermi Contact Couplings
        Atom                 a.u.       MegaHertz       Gauss      10(-4) cm-1
     1  H(1)               0.35481     396.48446     141.47551     132.25298
     2  H(1)               0.06235      69.66883      24.85957      23.23902
     3  H(1)               0.04601      51.41519      18.34622      17.15026
     4  H(1)               0.23245     259.75214      92.68602      86.64399
     5  H(1)               0.22938     256.32514      91.46318      85.50086
     6  H(1)               0.22938     256.32514      91.46318      85.50086
     7  H(1)               0.23245     259.75214      92.68602      86.64399
     8  H(1)               0.04601      51.41519      18.34622      17.15026
     9  H(1)               0.06235      69.66883      24.85957      23.23902
    10  H(1)               0.35481     396.48446     141.47551     132.25298
 --------------------------------------------------------
       Center         ----  Spin Dipole Couplings  ----
                      3XX-RR        3YY-RR        3ZZ-RR
 --------------------------------------------------------
     1   Atom       -0.000669      0.002347     -0.001678
     2   Atom       -0.001032      0.066932     -0.065900
     3   Atom        0.015805      0.063862     -0.079667
     4   Atom        0.085361     -0.006394     -0.078967
     5   Atom        0.103254     -0.017545     -0.085708
     6   Atom        0.103254     -0.017545     -0.085708
     7   Atom        0.085361     -0.006394     -0.078967
     8   Atom        0.015805      0.063862     -0.079667
     9   Atom       -0.001032      0.066932     -0.065900
    10   Atom       -0.000669      0.002347     -0.001678
 --------------------------------------------------------
                        XY            XZ            YZ
 --------------------------------------------------------
     1   Atom        0.002485     -0.000000     -0.000000
     2   Atom        0.022967     -0.000000     -0.000000
     3   Atom        0.041203     -0.000000     -0.000000
     4   Atom       -0.026020     -0.000000     -0.000000
     5   Atom       -0.015127     -0.000000     -0.000000
     6   Atom       -0.015127     -0.000000      0.000000
     7   Atom       -0.026020     -0.000000     -0.000000
     8   Atom        0.041203     -0.000000     -0.000000
     9   Atom        0.022967     -0.000000      0.000000
    10   Atom        0.002485      0.000000      0.000000
 --------------------------------------------------------


 ---------------------------------------------------------------------------------
              Anisotropic Spin Dipole Couplings in Principal Axis System
 ---------------------------------------------------------------------------------

       Atom             a.u.   MegaHertz   Gauss  10(-4) cm-1        Axes

              Baa    -0.0021    -1.103    -0.394    -0.368  0.8714 -0.4905  0.0000
     1 H(1)   Bbb    -0.0017    -0.895    -0.319    -0.299  0.0000  0.0000  1.0000
              Bcc     0.0037     1.998     0.713     0.667  0.4905  0.8714  0.0000
 
              Baa    -0.0659   -35.161   -12.546   -11.729  0.0000  0.0000  1.0000
     2 H(1)   Bbb    -0.0081    -4.303    -1.535    -1.435  0.9562 -0.2928  0.0000
              Bcc     0.0740    39.464    14.082    13.164  0.2928  0.9562  0.0000
 
              Baa    -0.0797   -42.507   -15.167   -14.179  0.0000  0.0000  1.0000
     3 H(1)   Bbb    -0.0079    -4.196    -1.497    -1.400  0.8671 -0.4981  0.0000
              Bcc     0.0875    46.703    16.665    15.578  0.4981  0.8671  0.0000
 
              Baa    -0.0790   -42.133   -15.034   -14.054  0.0000  0.0000  1.0000
     4 H(1)   Bbb    -0.0133    -7.074    -2.524    -2.360  0.2551  0.9669 -0.0000
              Bcc     0.0922    49.208    17.559    16.414  0.9669 -0.2551  0.0000
 
              Baa    -0.0857   -45.730   -16.318   -15.254  0.0000  0.0000  1.0000
     5 H(1)   Bbb    -0.0194   -10.357    -3.696    -3.455  0.1224  0.9925 -0.0000
              Bcc     0.1051    56.087    20.013    18.709  0.9925 -0.1224  0.0000
 
              Baa    -0.0857   -45.730   -16.318   -15.254  0.0000  0.0000  1.0000
     6 H(1)   Bbb    -0.0194   -10.357    -3.696    -3.455  0.1224  0.9925  0.0000
              Bcc     0.1051    56.087    20.013    18.709  0.9925 -0.1224  0.0000
 
              Baa    -0.0790   -42.133   -15.034   -14.054  0.0000  0.0000  1.0000
     7 H(1)   Bbb    -0.0133    -7.074    -2.524    -2.360  0.2551  0.9669 -0.0000
              Bcc     0.0922    49.208    17.559    16.414  0.9669 -0.2551  0.0000
 
              Baa    -0.0797   -42.507   -15.167   -14.179  0.0000  0.0000  1.0000
     8 H(1)   Bbb    -0.0079    -4.196    -1.497    -1.400  0.8671 -0.4981  0.0000
              Bcc     0.0875    46.703    16.665    15.578  0.4981  0.8671  0.0000
 
              Baa    -0.0659   -35.161   -12.546   -11.729  0.0000  0.0000  1.0000
     9 H(1)   Bbb    -0.0081    -4.303    -1.535    -1.435  0.9562 -0.2928  0.0000
              Bcc     0.0740    39.464    14.082    13.164  0.2928  0.9562  0.0000
 
              Baa    -0.0021    -1.103    -0.394    -0.368  0.8714 -0.4905  0.0000
    10 H(1)   Bbb    -0.0017    -0.895    -0.319    -0.299  0.0000  0.0000  1.0000
              Bcc     0.0037     1.998     0.713     0.667  0.4905  0.8714  0.0000
 

 ---------------------------------------------------------------------------------


 Test job not archived.
 1\1\GINC-SULU\Stability\UHF\Gen\H10(5)\LCJ1\23-Feb-2017\0\\#uhf/gen sc
 f(tight,novaracc,noincfock,fulldiag, ) stable(crhf) guess=read geom=no
 crowd test\\hf stability analysis of h10 triangular lattice, y= 1.4808
 545702551064 alpha= 75.250000000000000\\0,5\H\H,1,1.5313176928\H,1,1.5
 313176928,2,29.5\H,2,1.5313176928,1,150.5,3,0.,0\H,3,1.5313176928,1,18
 0.,2,0.,0\H,4,1.5313176928,2,180.,1,0.,0\H,5,1.5313176928,3,180.,2,0.,
 0\H,6,1.5313176928,4,180.,1,0.,0\H,7,1.5313176928,5,180.,2,0.,0\H,8,1.
 5313176928,6,180.,1,0.,0\\Version=ES64L-G09RevE.01\State=5-BU\HF=-4.83
 92535\MP2=-4.8875366\PUHF=-4.839335\PMP2-0=-4.8875907\S2=6.000957\S2-1
 =6.000314\S2A=6.\RMSD=3.165e-09\Dipole=0.,0.,0.\Quadrupole=0.905386,1.
 3432054,-2.2485915,0.,-1.0395617,0.\PG=C02H [SGH(H10)]\\@


 IF YOU GIVE EVERYONE A PIECE OF YOUR MIND,
 PRETTY SOON IT WILL BE ALL GONE.
 Job cpu time:       0 days  0 hours  0 minutes  0.9 seconds.
 File lengths (MBytes):  RWF=     94 Int=      0 D2E=      0 Chk=      2 Scr=      2
 Normal termination of Gaussian 09 at Thu Feb 23 12:53:00 2017.
