 Entering Gaussian System, Link 0=g09
 AtFile(1): H.gbs
            H     0
            S   10   1.00
               1000.000000000000            0.000068713567
                316.227766000000            0.000169141320
                100.000000000000            0.000823394812
                 31.622776600000            0.003425569236
                 10.000000000000            0.013951996000
                  3.162277660000            0.056909313560
                  1.000000000000            0.198286399900
                  0.316227766000            0.496922426700
                  0.100000000000            0.369846276400
                  0.031622776600            0.003752720039
            ****
 Initial command:
 /projects/guscus/apps/gau/g09-e1/g09/l1.exe "/users/lcj1/gaussian/h10/2rows_uhf/ag2bu3/quintet/Gau-9409.inp" -scrdir="/users/lcj1/gaussian/h10/2rows_uhf/ag2bu3/quintet/"
 Entering Link 1 = /projects/guscus/apps/gau/g09-e1/g09/l1.exe PID=      9410.
  
 Copyright (c) 1988,1990,1992,1993,1995,1998,2003,2009,2015,
            Gaussian, Inc.  All Rights Reserved.
  
 This is part of the Gaussian(R) 09 program.  It is based on
 the Gaussian(R) 03 system (copyright 2003, Gaussian, Inc.),
 the Gaussian(R) 98 system (copyright 1998, Gaussian, Inc.),
 the Gaussian(R) 94 system (copyright 1995, Gaussian, Inc.),
 the Gaussian 92(TM) system (copyright 1992, Gaussian, Inc.),
 the Gaussian 90(TM) system (copyright 1990, Gaussian, Inc.),
 the Gaussian 88(TM) system (copyright 1988, Gaussian, Inc.),
 the Gaussian 86(TM) system (copyright 1986, Carnegie Mellon
 University), and the Gaussian 82(TM) system (copyright 1983,
 Carnegie Mellon University). Gaussian is a federally registered
 trademark of Gaussian, Inc.
  
 This software contains proprietary and confidential information,
 including trade secrets, belonging to Gaussian, Inc.
  
 This software is provided under written license and may be
 used, copied, transmitted, or stored only in accord with that
 written license.
  
 The following legend is applicable only to US Government
 contracts under FAR:
  
                    RESTRICTED RIGHTS LEGEND
  
 Use, reproduction and disclosure by the US Government is
 subject to restrictions as set forth in subparagraphs (a)
 and (c) of the Commercial Computer Software - Restricted
 Rights clause in FAR 52.227-19.
  
 Gaussian, Inc.
 340 Quinnipiac St., Bldg. 40, Wallingford CT 06492
  
  
 ---------------------------------------------------------------
 Warning -- This program may not be used in any manner that
 competes with the business of Gaussian, Inc. or will provide
 assistance to any competitor of Gaussian, Inc.  The licensee
 of this program is prohibited from giving any competitor of
 Gaussian, Inc. access to this program.  By using this program,
 the user acknowledges that Gaussian, Inc. is engaged in the
 business of creating and licensing software in the field of
 computational chemistry and represents and warrants to the
 licensee that it is not a competitor of Gaussian, Inc. and that
 it will not use this program in any manner prohibited above.
 ---------------------------------------------------------------
  

 Cite this work as:
 Gaussian 09, Revision E.01,
 M. J. Frisch, G. W. Trucks, H. B. Schlegel, G. E. Scuseria, 
 M. A. Robb, J. R. Cheeseman, G. Scalmani, V. Barone, B. Mennucci, 
 G. A. Petersson, H. Nakatsuji, M. Caricato, X. Li, H. P. Hratchian, 
 A. F. Izmaylov, J. Bloino, G. Zheng, J. L. Sonnenberg, M. Hada, 
 M. Ehara, K. Toyota, R. Fukuda, J. Hasegawa, M. Ishida, T. Nakajima, 
 Y. Honda, O. Kitao, H. Nakai, T. Vreven, J. A. Montgomery, Jr., 
 J. E. Peralta, F. Ogliaro, M. Bearpark, J. J. Heyd, E. Brothers, 
 K. N. Kudin, V. N. Staroverov, T. Keith, R. Kobayashi, J. Normand, 
 K. Raghavachari, A. Rendell, J. C. Burant, S. S. Iyengar, J. Tomasi, 
 M. Cossi, N. Rega, J. M. Millam, M. Klene, J. E. Knox, J. B. Cross, 
 V. Bakken, C. Adamo, J. Jaramillo, R. Gomperts, R. E. Stratmann, 
 O. Yazyev, A. J. Austin, R. Cammi, C. Pomelli, J. W. Ochterski, 
 R. L. Martin, K. Morokuma, V. G. Zakrzewski, G. A. Voth, 
 P. Salvador, J. J. Dannenberg, S. Dapprich, A. D. Daniels, 
 O. Farkas, J. B. Foresman, J. V. Ortiz, J. Cioslowski, 
 and D. J. Fox, Gaussian, Inc., Wallingford CT, 2013.
 
 ******************************************
 Gaussian 09:  ES64L-G09RevE.01 30-Nov-2015
                23-Feb-2017 
 ******************************************
 %chk=h10.chk
 ----------------------------------------------------------------------
 #uhf/gen scf(tight,novaracc,noincfock,fulldiag, ) stable(crhf) guess=r
 ead geom=nocrowd test
 ----------------------------------------------------------------------
 1/38=1/1;
 2/12=1,17=6,18=5,40=1/2;
 3/5=7,16=1,25=1,30=1,116=2/1,2,3;
 4/5=1/1;
 5/5=100002,16=1,32=2,38=6/2;
 8/6=1,10=90,11=11/1,4;
 9/8=4,13=1/2;
 6/7=2,8=2,9=2,10=2,28=1/1;
 99/5=1,9=1/99;
 ----------------------------------------------------------------------
 hf stability analysis of h10 triangular lattice, y= 0.4676948326587840
 9 alpha= 20.750000000000000
 ----------------------------------------------------------------------
 Symbolic Z-matrix:
 Charge =  0 Multiplicity = 5
 H
 H                    1     1.32009 
 H                    1     1.32009  2     138.5 
 H                    2     1.32009  1     41.5     3     0.       0
 H                    3     1.32009  1     180.     2     0.       0
 H                    4     1.32009  2     180.     1     0.       0
 H                    5     1.32009  3     180.     2     0.       0
 H                    6     1.32009  4     180.     1     0.       0
 H                    7     1.32009  5     180.     2     0.       0
 H                    8     1.32009  6     180.     1     0.       0
 
                          Input orientation:                          
 ---------------------------------------------------------------------
 Center     Atomic      Atomic             Coordinates (Angstroms)
 Number     Number       Type             X           Y           Z
 ---------------------------------------------------------------------
      1          1           0        0.000000    0.000000    0.000000
      2          1           0        0.000000    0.000000    1.320087
      3          1           0        0.874716    0.000000   -0.988686
      4          1           0        0.874716    0.000000    0.331400
      5          1           0        1.749432    0.000000   -1.977373
      6          1           0        1.749432    0.000000   -0.657286
      7          1           0        2.624147    0.000000   -2.966059
      8          1           0        2.624147    0.000000   -1.645973
      9          1           0        3.498863    0.000000   -3.954745
     10          1           0        3.498863    0.000000   -2.634659
 ---------------------------------------------------------------------
                    Distance matrix (angstroms):
                    1          2          3          4          5
     1  H    0.000000
     2  H    1.320087   0.000000
     3  H    1.320087   2.468919   0.000000
     4  H    0.935390   1.320087   1.320087   0.000000
     5  H    2.640173   3.732794   1.320087   2.468919   0.000000
     6  H    1.868833   2.640173   0.935390   1.320087   1.320087
     7  H    3.960260   5.025653   2.640173   3.732794   1.320087
     8  H    3.097640   3.960260   1.868833   2.640173   0.935390
     9  H    5.280346   6.329763   3.960260   5.025653   2.640173
    10  H    4.379894   5.280346   3.097640   3.960260   1.868833
                    6          7          8          9         10
     6  H    0.000000
     7  H    2.468919   0.000000
     8  H    1.320087   1.320087   0.000000
     9  H    3.732794   1.320087   2.468919   0.000000
    10  H    2.640173   0.935390   1.320087   1.320087   0.000000
 Stoichiometry    H10(5)
 Framework group  C2H[SGH(H10)]
 Deg. of freedom     9
 Full point group                 C2H     NOp   4
 Largest Abelian subgroup         C2H     NOp   4
 Largest concise Abelian subgroup C2      NOp   2
                         Standard orientation:                         
 ---------------------------------------------------------------------
 Center     Atomic      Atomic             Coordinates (Angstroms)
 Number     Number       Type             X           Y           Z
 ---------------------------------------------------------------------
      1          1           0        1.749432   -1.317329   -0.000000
      2          1           0        1.749432   -2.637416   -0.000000
      3          1           0        0.874716   -0.328643   -0.000000
      4          1           0        0.874716   -1.648730   -0.000000
      5          1           0        0.000000    0.660043   -0.000000
      6          1           0       -0.000000   -0.660043    0.000000
      7          1           0       -0.874716    1.648730   -0.000000
      8          1           0       -0.874716    0.328643   -0.000000
      9          1           0       -1.749432    2.637416   -0.000000
     10          1           0       -1.749432    1.317329   -0.000000
 ---------------------------------------------------------------------
 Rotational constants (GHZ):    281.5264718     13.3978820     12.7892403
 General basis read from cards:  (5D, 7F)
 There are     5 symmetry adapted cartesian basis functions of AG  symmetry.
 There are     0 symmetry adapted cartesian basis functions of BG  symmetry.
 There are     0 symmetry adapted cartesian basis functions of AU  symmetry.
 There are     5 symmetry adapted cartesian basis functions of BU  symmetry.
 There are     5 symmetry adapted basis functions of AG  symmetry.
 There are     0 symmetry adapted basis functions of BG  symmetry.
 There are     0 symmetry adapted basis functions of AU  symmetry.
 There are     5 symmetry adapted basis functions of BU  symmetry.
    10 basis functions,   100 primitive gaussians,    10 cartesian basis functions
     7 alpha electrons        3 beta electrons
       nuclear repulsion energy        12.3004751637 Hartrees.
 NAtoms=   10 NActive=   10 NUniq=    5 SFac= 4.00D+00 NAtFMM=   60 NAOKFM=F Big=F
 Integral buffers will be    131072 words long.
 Regular integral format.
 Two-electron integral symmetry is turned on.
 One-electron integrals computed using PRISM.
 NBasis=    10 RedAO= T EigKep=  1.87D-01  NBF=     5     0     0     5
 NBsUse=    10 1.00D-06 EigRej= -1.00D+00 NBFU=     5     0     0     5
 Initial guess from the checkpoint file:  "h10.chk"
 B after Tr=    -0.000000    0.000000   -0.000000
         Rot=    0.999992   -0.000000   -0.000000   -0.003879 Ang=  -0.44 deg.
 Initial guess orbital symmetries:
 Alpha Orbitals:
       Occupied  (AG) (BU) (AG) (BU) (AG) (BU) (BU)
       Virtual   (AG) (BU) (AG)
 Beta  Orbitals:
       Occupied  (AG) (BU) (AG)
       Virtual   (BU) (BU) (AG) (AG) (BU) (BU) (AG)
 Initial guess <Sx>= 0.0000 <Sy>= 0.0000 <Sz>= 2.0000 <S**2>= 6.0538 S= 2.0107
 Keep R1 and R2 ints in memory in symmetry-blocked form, NReq=877367.
 Requested convergence on RMS density matrix=1.00D-08 within 128 cycles.
 Requested convergence on MAX density matrix=1.00D-06.
 Requested convergence on             energy=1.00D-06.
 No special actions if energy rises.
 SCF Done:  E(UHF) =  -4.76877280732     A.U. after   11 cycles
            NFock= 11  Conv=0.54D-08     -V/T= 1.8424
 <Sx>= 0.0000 <Sy>= 0.0000 <Sz>= 2.0000 <S**2>= 6.0625 S= 2.0125
 <L.S>= 0.000000000000E+00
 Annihilation of the first spin contaminant:
 S**2 before annihilation     6.0625,   after     6.0008
 Range of M.O.s used for correlation:     1    10
 NBasis=    10 NAE=     7 NBE=     3 NFC=     0 NFV=     0
 NROrb=     10 NOA=     7 NOB=     3 NVA=     3 NVB=     7
 Semi-Direct transformation.
 ModeAB=           4 MOrb=             7 LenV=     134109135
 LASXX=         1176 LTotXX=        1176 LenRXX=        3283
 LTotAB=        2107 MaxLAS=        2100 LenRXY=           0
 NonZer=        4459 LenScr=      655360 LnRSAI=        2100
 LnScr1=      655360 LExtra=           0 Total=      1316103
 MaxDsk=          -1 SrtSym=           T ITran=            3
 JobTyp=1 Pass  1:  I=   1 to   7.
 (rs|ai) integrals will be sorted in core.
 ModeAB=           4 MOrb=             3 LenV=     134109135
 LASXX=          573 LTotXX=         573 LenRXX=         609
 LTotAB=          36 MaxLAS=         900 LenRXY=           0
 NonZer=        1182 LenScr=      655360 LnRSAI=         900
 LnScr1=      655360 LExtra=           0 Total=      1312229
 MaxDsk=          -1 SrtSym=           T ITran=            3
 JobTyp=2 Pass  1:  I=   1 to   3.
 (rs|ai) integrals will be sorted in core.
 Spin components of T(2) and E(2):
     alpha-alpha T2 =       0.7231350350D-03 E2=     -0.1037772998D-02
     alpha-beta  T2 =       0.3061063226D-01 E2=     -0.4679038236D-01
     beta-beta   T2 =       0.9943105714D-03 E2=     -0.1619627410D-02
 ANorm=    0.1016035471D+01
 E2 =    -0.4944778277D-01 EUMP2 =    -0.48182205900947D+01
 (S**2,0)=  0.60625D+01           (S**2,1)=  0.60362D+01
 E(PUHF)=      -0.47722829303D+01        E(PMP2)=      -0.48209994508D+01
 Second order stability test of a single determinant UHF wave function:
 Stabil:  MDV=134217728
 ***********************************************************************
 Matrix         Lowest Root    Major Pairs
 ***********************************************************************
 Internal UHF     0.0125413    Stable
 RUHF --> CUHF (A)0.094256     Stable
 RUHF --> CUHF (B)0.244053     Stable
 RUHF --> GHF    -0.1400792    7A=4B
 Not stable.
 ***********************************************************************

 **********************************************************************

            Population analysis using the SCF density.

 **********************************************************************

 Orbital symmetries:
 Alpha Orbitals:
       Occupied  (AG) (BU) (AG) (BU) (AG) (BU) (BU)
       Virtual   (AG) (BU) (AG)
 Beta  Orbitals:
       Occupied  (AG) (BU) (AG)
       Virtual   (BU) (BU) (AG) (AG) (BU) (BU) (AG)
 The electronic state is 5-BU.
 Alpha  occ. eigenvalues --   -0.88009  -0.77355  -0.65588  -0.51768  -0.35752
 Alpha  occ. eigenvalues --   -0.31730  -0.22854
 Alpha virt. eigenvalues --    0.12962   0.34567   0.48562
  Beta  occ. eigenvalues --   -0.73245  -0.65352  -0.46773
  Beta virt. eigenvalues --    0.01671   0.11888   0.22020   0.25224   0.33044
  Beta virt. eigenvalues --    0.45132   0.68954
          Condensed to atoms (all electrons):
               1          2          3          4          5          6
     1  H    1.128887  -0.250576  -0.122885   0.416678   0.002351  -0.145875
     2  H   -0.250576   1.345870   0.008289  -0.070281   0.001616   0.007601
     3  H   -0.122885   0.008289   1.117454  -0.117141   0.133911   0.101493
     4  H    0.416678  -0.070281  -0.117141   0.726055  -0.047497   0.014874
     5  H    0.002351   0.001616   0.133911  -0.047497   1.152910  -0.184107
     6  H   -0.145875   0.007601   0.101493   0.014874  -0.184107   1.152910
     7  H    0.001052   0.000178   0.016234  -0.000783   0.014874  -0.047497
     8  H    0.007807  -0.003091  -0.195245   0.016234   0.101493   0.133911
     9  H    0.000073  -0.000006  -0.003091   0.000178   0.007601   0.001616
    10  H   -0.000657   0.000073   0.007807   0.001052  -0.145875   0.002351
               7          8          9         10
     1  H    0.001052   0.007807   0.000073  -0.000657
     2  H    0.000178  -0.003091  -0.000006   0.000073
     3  H    0.016234  -0.195245  -0.003091   0.007807
     4  H   -0.000783   0.016234   0.000178   0.001052
     5  H    0.014874   0.101493   0.007601  -0.145875
     6  H   -0.047497   0.133911   0.001616   0.002351
     7  H    0.726055  -0.117141  -0.070281   0.416678
     8  H   -0.117141   1.117454   0.008289  -0.122885
     9  H   -0.070281   0.008289   1.345870  -0.250576
    10  H    0.416678  -0.122885  -0.250576   1.128887
          Atomic-Atomic Spin Densities.
               1          2          3          4          5          6
     1  H    0.805275  -0.290374  -0.114851   0.084243   0.022331  -0.114767
     2  H   -0.290374   1.319449   0.011898  -0.129642   0.003203   0.013991
     3  H   -0.114851   0.011898   0.926947  -0.131062   0.035840  -0.065956
     4  H    0.084243  -0.129642  -0.131062  -0.098746  -0.015469   0.068243
     5  H    0.022331   0.003203   0.035840  -0.015469   0.774501  -0.344506
     6  H   -0.114767   0.013991  -0.065956   0.068243  -0.344506   0.774501
     7  H   -0.000499   0.000046   0.034442  -0.003127   0.068243  -0.015469
     8  H    0.015072  -0.002388  -0.227067   0.034442  -0.065956   0.035840
     9  H    0.000006  -0.000010  -0.002388   0.000046   0.013991   0.003203
    10  H   -0.001334   0.000006   0.015072  -0.000499  -0.114767   0.022331
               7          8          9         10
     1  H   -0.000499   0.015072   0.000006  -0.001334
     2  H    0.000046  -0.002388  -0.000010   0.000006
     3  H    0.034442  -0.227067  -0.002388   0.015072
     4  H   -0.003127   0.034442   0.000046  -0.000499
     5  H    0.068243  -0.065956   0.013991  -0.114767
     6  H   -0.015469   0.035840   0.003203   0.022331
     7  H   -0.098746  -0.131062  -0.129642   0.084243
     8  H   -0.131062   0.926947   0.011898  -0.114851
     9  H   -0.129642   0.011898   1.319449  -0.290374
    10  H    0.084243  -0.114851  -0.290374   0.805275
 Mulliken charges and spin densities:
               1          2
     1  H   -0.036856   0.405103
     2  H   -0.039673   0.926180
     3  H    0.053173   0.482877
     4  H    0.060632  -0.191571
     5  H   -0.037276   0.377411
     6  H   -0.037276   0.377411
     7  H    0.060632  -0.191571
     8  H    0.053173   0.482877
     9  H   -0.039673   0.926180
    10  H   -0.036856   0.405103
 Sum of Mulliken charges =  -0.00000   4.00000
 Mulliken charges and spin densities with hydrogens summed into heavy atoms:
               1          2
 Electronic spatial extent (au):  <R**2>=            174.1805
 Charge=              0.0000 electrons
 Dipole moment (field-independent basis, Debye):
    X=             -0.0000    Y=              0.0000    Z=              0.0000  Tot=              0.0000
 Quadrupole moment (field-independent basis, Debye-Ang):
   XX=            -15.1514   YY=            -18.1754   ZZ=            -12.6223
   XY=              3.2459   XZ=             -0.0000   YZ=              0.0000
 Traceless Quadrupole moment (field-independent basis, Debye-Ang):
   XX=              0.1650   YY=             -2.8590   ZZ=              2.6941
   XY=              3.2459   XZ=             -0.0000   YZ=              0.0000
 Octapole moment (field-independent basis, Debye-Ang**2):
  XXX=             -0.0000  YYY=              0.0000  ZZZ=              0.0000  XYY=              0.0000
  XXY=              0.0000  XXZ=              0.0000  XZZ=             -0.0000  YZZ=             -0.0000
  YYZ=              0.0000  XYZ=             -0.0000
 Hexadecapole moment (field-independent basis, Debye-Ang**3):
 XXXX=           -142.9501 YYYY=           -274.9955 ZZZZ=            -15.0871 XXXY=             82.3835
 XXXZ=             -0.0000 YYYX=            109.6880 YYYZ=              0.0000 ZZZX=             -0.0000
 ZZZY=              0.0000 XXYY=            -81.9601 XXZZ=            -25.1291 YYZZ=            -37.3316
 XXYZ=              0.0000 YYXZ=             -0.0000 ZZXY=             22.8711
 N-N= 1.230047516370D+01 E-N=-3.421506792849D+01  KE= 5.660842127494D+00
 Symmetry AG   KE= 2.381433370579D+00
 Symmetry BG   KE= 0.000000000000D+00
 Symmetry AU   KE= 0.000000000000D+00
 Symmetry BU   KE= 3.279408756915D+00
                          Isotropic Fermi Contact Couplings
        Atom                 a.u.       MegaHertz       Gauss      10(-4) cm-1
     1  H(1)               0.21267     237.65132      84.79990      79.27195
     2  H(1)               0.36746     410.62632     146.52168     136.97020
     3  H(1)               0.24388     272.52447      97.24350      90.90438
     4  H(1)              -0.03534     -39.48621     -14.08966     -13.17118
     5  H(1)               0.19962     223.06530      79.59524      74.40657
     6  H(1)               0.19962     223.06530      79.59524      74.40657
     7  H(1)              -0.03534     -39.48621     -14.08966     -13.17118
     8  H(1)               0.24388     272.52447      97.24350      90.90438
     9  H(1)               0.36746     410.62632     146.52168     136.97020
    10  H(1)               0.21267     237.65132      84.79990      79.27195
 --------------------------------------------------------
       Center         ----  Spin Dipole Couplings  ----
                      3XX-RR        3YY-RR        3ZZ-RR
 --------------------------------------------------------
     1   Atom       -0.029336      0.078695     -0.049359
     2   Atom       -0.015424      0.020785     -0.005362
     3   Atom        0.073857      0.001242     -0.075099
     4   Atom        0.082502      0.053487     -0.135989
     5   Atom        0.107243     -0.016941     -0.090302
     6   Atom        0.107243     -0.016941     -0.090302
     7   Atom        0.082502      0.053487     -0.135989
     8   Atom        0.073857      0.001242     -0.075099
     9   Atom       -0.015424      0.020785     -0.005362
    10   Atom       -0.029336      0.078695     -0.049359
 --------------------------------------------------------
                        XY            XZ            YZ
 --------------------------------------------------------
     1   Atom       -0.055171     -0.000000      0.000000
     2   Atom        0.009614     -0.000000      0.000000
     3   Atom       -0.009990     -0.000000     -0.000000
     4   Atom       -0.043499     -0.000000      0.000000
     5   Atom        0.006376      0.000000      0.000000
     6   Atom        0.006376     -0.000000     -0.000000
     7   Atom       -0.043499      0.000000     -0.000000
     8   Atom       -0.009990      0.000000     -0.000000
     9   Atom        0.009614     -0.000000      0.000000
    10   Atom       -0.055171     -0.000000      0.000000
 --------------------------------------------------------


 ---------------------------------------------------------------------------------
              Anisotropic Spin Dipole Couplings in Principal Axis System
 ---------------------------------------------------------------------------------

       Atom             a.u.   MegaHertz   Gauss  10(-4) cm-1        Axes

              Baa    -0.0525   -28.028   -10.001    -9.349  0.9218  0.3876  0.0000
     1 H(1)   Bbb    -0.0494   -26.336    -9.397    -8.785  0.0000  0.0000  1.0000
              Bcc     0.1019    54.364    19.398    18.134 -0.3876  0.9218  0.0000
 
              Baa    -0.0178    -9.507    -3.392    -3.171  0.9704 -0.2417  0.0000
     2 H(1)   Bbb    -0.0054    -2.861    -1.021    -0.954  0.0000  0.0000  1.0000
              Bcc     0.0232    12.368     4.413     4.125  0.2417  0.9704  0.0000
 
              Baa    -0.0751   -40.069   -14.298   -13.366  0.0000  0.0000  1.0000
     3 H(1)   Bbb    -0.0001    -0.057    -0.020    -0.019  0.1339  0.9910 -0.0000
              Bcc     0.0752    40.126    14.318    13.385  0.9910 -0.1339  0.0000
 
              Baa    -0.1360   -72.558   -25.890   -24.203  0.0000  0.0000  1.0000
     4 H(1)   Bbb     0.0221    11.813     4.215     3.940  0.5846  0.8113  0.0000
              Bcc     0.1138    60.744    21.675    20.262  0.8113 -0.5846  0.0000
 
              Baa    -0.0903   -48.181   -17.192   -16.071  0.0000  0.0000  1.0000
     5 H(1)   Bbb    -0.0173    -9.213    -3.287    -3.073 -0.0511  0.9987 -0.0000
              Bcc     0.1076    57.394    20.480    19.145  0.9987  0.0511  0.0000
 
              Baa    -0.0903   -48.181   -17.192   -16.071  0.0000  0.0000  1.0000
     6 H(1)   Bbb    -0.0173    -9.213    -3.287    -3.073 -0.0511  0.9987 -0.0000
              Bcc     0.1076    57.394    20.480    19.145  0.9987  0.0511  0.0000
 
              Baa    -0.1360   -72.558   -25.890   -24.203  0.0000  0.0000  1.0000
     7 H(1)   Bbb     0.0221    11.813     4.215     3.940  0.5846  0.8113  0.0000
              Bcc     0.1138    60.744    21.675    20.262  0.8113 -0.5846  0.0000
 
              Baa    -0.0751   -40.069   -14.298   -13.366  0.0000  0.0000  1.0000
     8 H(1)   Bbb    -0.0001    -0.057    -0.020    -0.019  0.1339  0.9910  0.0000
              Bcc     0.0752    40.126    14.318    13.385  0.9910 -0.1339  0.0000
 
              Baa    -0.0178    -9.507    -3.392    -3.171  0.9704 -0.2417  0.0000
     9 H(1)   Bbb    -0.0054    -2.861    -1.021    -0.954  0.0000  0.0000  1.0000
              Bcc     0.0232    12.368     4.413     4.125  0.2417  0.9704  0.0000
 
              Baa    -0.0525   -28.028   -10.001    -9.349  0.9218  0.3876  0.0000
    10 H(1)   Bbb    -0.0494   -26.336    -9.397    -8.785  0.0000  0.0000  1.0000
              Bcc     0.1019    54.364    19.398    18.134 -0.3876  0.9218  0.0000
 

 ---------------------------------------------------------------------------------


 Test job not archived.
 1\1\GINC-SULU\Stability\UHF\Gen\H10(5)\LCJ1\23-Feb-2017\0\\#uhf/gen sc
 f(tight,novaracc,noincfock,fulldiag, ) stable(crhf) guess=read geom=no
 crowd test\\hf stability analysis of h10 triangular lattice, y= 0.4676
 9483265878409 alpha= 20.750000000000000\\0,5\H\H,1,1.320086511\H,1,1.3
 20086511,2,138.5\H,2,1.320086511,1,41.5,3,0.,0\H,3,1.320086511,1,180.,
 2,0.,0\H,4,1.320086511,2,180.,1,0.,0\H,5,1.320086511,3,180.,2,0.,0\H,6
 ,1.320086511,4,180.,1,0.,0\H,7,1.320086511,5,180.,2,0.,0\H,8,1.3200865
 11,6,180.,1,0.,0\\Version=ES64L-G09RevE.01\State=5-BU\HF=-4.7687728\MP
 2=-4.8182206\PUHF=-4.7722829\PMP2-0=-4.8209995\S2=6.062516\S2-1=6.0362
 22\S2A=6.000787\RMSD=5.364e-09\Dipole=0.,0.,0.\Quadrupole=0.1226407,2.
 0029787,-2.1256195,0.,2.4132544,0.\PG=C02H [SGH(H10)]\\@


 "ANNA, YOU MUSN'T SPEAK OF OXIDIZED MURIATIC ACID
 ANYMORE, FROM NOW ON YOU MUST SAY CHLORINE."
   -- JENS JACOB BERZELIUS, IN 1820, TO HIS COOK, WHO HAD
 COMPLAINED OF THE SMELL OF THE FLASK SHE WAS CLEANING.
 Job cpu time:       0 days  0 hours  0 minutes  0.9 seconds.
 File lengths (MBytes):  RWF=     94 Int=      0 D2E=      0 Chk=      2 Scr=      2
 Normal termination of Gaussian 09 at Thu Feb 23 12:43:49 2017.
