 Entering Gaussian System, Link 0=g09
 AtFile(1): H.gbs
            H     0
            S   10   1.00
               1000.000000000000            0.000068713567
                316.227766000000            0.000169141320
                100.000000000000            0.000823394812
                 31.622776600000            0.003425569236
                 10.000000000000            0.013951996000
                  3.162277660000            0.056909313560
                  1.000000000000            0.198286399900
                  0.316227766000            0.496922426700
                  0.100000000000            0.369846276400
                  0.031622776600            0.003752720039
            ****
 Initial command:
 /projects/guscus/apps/gau/g09-e1/g09/l1.exe "/users/lcj1/gaussian/h8/rhfstability/zmat/Gau-18590.inp" -scrdir="/users/lcj1/gaussian/h8/rhfstability/zmat/"
 Entering Link 1 = /projects/guscus/apps/gau/g09-e1/g09/l1.exe PID=     18591.
  
 Copyright (c) 1988,1990,1992,1993,1995,1998,2003,2009,2015,
            Gaussian, Inc.  All Rights Reserved.
  
 This is part of the Gaussian(R) 09 program.  It is based on
 the Gaussian(R) 03 system (copyright 2003, Gaussian, Inc.),
 the Gaussian(R) 98 system (copyright 1998, Gaussian, Inc.),
 the Gaussian(R) 94 system (copyright 1995, Gaussian, Inc.),
 the Gaussian 92(TM) system (copyright 1992, Gaussian, Inc.),
 the Gaussian 90(TM) system (copyright 1990, Gaussian, Inc.),
 the Gaussian 88(TM) system (copyright 1988, Gaussian, Inc.),
 the Gaussian 86(TM) system (copyright 1986, Carnegie Mellon
 University), and the Gaussian 82(TM) system (copyright 1983,
 Carnegie Mellon University). Gaussian is a federally registered
 trademark of Gaussian, Inc.
  
 This software contains proprietary and confidential information,
 including trade secrets, belonging to Gaussian, Inc.
  
 This software is provided under written license and may be
 used, copied, transmitted, or stored only in accord with that
 written license.
  
 The following legend is applicable only to US Government
 contracts under FAR:
  
                    RESTRICTED RIGHTS LEGEND
  
 Use, reproduction and disclosure by the US Government is
 subject to restrictions as set forth in subparagraphs (a)
 and (c) of the Commercial Computer Software - Restricted
 Rights clause in FAR 52.227-19.
  
 Gaussian, Inc.
 340 Quinnipiac St., Bldg. 40, Wallingford CT 06492
  
  
 ---------------------------------------------------------------
 Warning -- This program may not be used in any manner that
 competes with the business of Gaussian, Inc. or will provide
 assistance to any competitor of Gaussian, Inc.  The licensee
 of this program is prohibited from giving any competitor of
 Gaussian, Inc. access to this program.  By using this program,
 the user acknowledges that Gaussian, Inc. is engaged in the
 business of creating and licensing software in the field of
 computational chemistry and represents and warrants to the
 licensee that it is not a competitor of Gaussian, Inc. and that
 it will not use this program in any manner prohibited above.
 ---------------------------------------------------------------
  

 Cite this work as:
 Gaussian 09, Revision E.01,
 M. J. Frisch, G. W. Trucks, H. B. Schlegel, G. E. Scuseria, 
 M. A. Robb, J. R. Cheeseman, G. Scalmani, V. Barone, B. Mennucci, 
 G. A. Petersson, H. Nakatsuji, M. Caricato, X. Li, H. P. Hratchian, 
 A. F. Izmaylov, J. Bloino, G. Zheng, J. L. Sonnenberg, M. Hada, 
 M. Ehara, K. Toyota, R. Fukuda, J. Hasegawa, M. Ishida, T. Nakajima, 
 Y. Honda, O. Kitao, H. Nakai, T. Vreven, J. A. Montgomery, Jr., 
 J. E. Peralta, F. Ogliaro, M. Bearpark, J. J. Heyd, E. Brothers, 
 K. N. Kudin, V. N. Staroverov, T. Keith, R. Kobayashi, J. Normand, 
 K. Raghavachari, A. Rendell, J. C. Burant, S. S. Iyengar, J. Tomasi, 
 M. Cossi, N. Rega, J. M. Millam, M. Klene, J. E. Knox, J. B. Cross, 
 V. Bakken, C. Adamo, J. Jaramillo, R. Gomperts, R. E. Stratmann, 
 O. Yazyev, A. J. Austin, R. Cammi, C. Pomelli, J. W. Ochterski, 
 R. L. Martin, K. Morokuma, V. G. Zakrzewski, G. A. Voth, 
 P. Salvador, J. J. Dannenberg, S. Dapprich, A. D. Daniels, 
 O. Farkas, J. B. Foresman, J. V. Ortiz, J. Cioslowski, 
 and D. J. Fox, Gaussian, Inc., Wallingford CT, 2013.
 
 ******************************************
 Gaussian 09:  ES64L-G09RevE.01 30-Nov-2015
                10-Feb-2017 
 ******************************************
 %chk=h8.chk
 ----------------------------------------------------------------------
 #rhf/gen scf(symm,tight,novaracc,noincfock,fulldiag) stable(crhf) gues
 s=read geom=nocrowd test
 ----------------------------------------------------------------------
 1/38=1/1;
 2/12=1,17=6,18=5,40=1/2;
 3/5=7,16=1,25=1,30=1,116=1/1,2,3;
 4/5=1,9=4/1;
 5/5=100002,15=2,16=1,32=2,38=6/2;
 8/6=1,10=90,11=11/1,4;
 9/8=4,13=1/2;
 6/7=2,8=2,9=2,10=2,28=1/1;
 99/5=1,9=1/99;
 ----------------------------------------------------------------------
 hf stability analysis of h8 triangular lattice, y= 0.22474786951272291
 ----------------------------------------------------------------------
 Symbolic Z-matrix:
 Charge =  0 Multiplicity = 1
 H
 H                    1     2.57869 
 H                    1     2.57869  2     170. 
 H                    2     2.57869  1     10.      3     0.       0
 H                    3     2.57869  1     180.     2     0.       0
 H                    4     2.57869  2     180.     1     0.       0
 H                    5     2.57869  3     180.     2     0.       0
 H                    6     2.57869  4     180.     1     0.       0
 
                          Input orientation:                          
 ---------------------------------------------------------------------
 Center     Atomic      Atomic             Coordinates (Angstroms)
 Number     Number       Type             X           Y           Z
 ---------------------------------------------------------------------
      1          1           0        0.000000    0.000000    0.000000
      2          1           0        0.000000    0.000000    2.578693
      3          1           0        0.447785    0.000000   -2.539516
      4          1           0        0.447785    0.000000    0.039176
      5          1           0        0.895571    0.000000   -5.079033
      6          1           0        0.895571    0.000000   -2.500340
      7          1           0        1.343356    0.000000   -7.618549
      8          1           0        1.343356    0.000000   -5.039857
 ---------------------------------------------------------------------
                    Distance matrix (angstroms):
                    1          2          3          4          5
     1  H    0.000000
     2  H    2.578693   0.000000
     3  H    2.578693   5.137760   0.000000
     4  H    0.449496   2.578693   2.578693   0.000000
     5  H    5.157385   7.709916   2.578693   5.137760   0.000000
     6  H    2.655889   5.157385   0.449496   2.578693   2.578693
     7  H    7.736078  10.285346   5.157385   7.709916   2.578693
     8  H    5.215818   7.736078   2.655889   5.157385   0.449496
                    6          7          8
     6  H    0.000000
     7  H    5.137760   0.000000
     8  H    2.578693   2.578693   0.000000
 Stoichiometry    H8
 Framework group  C2H[SGH(H8)]
 Deg. of freedom     7
 Full point group                 C2H     NOp   4
 Largest Abelian subgroup         C2H     NOp   4
 Largest concise Abelian subgroup C2      NOp   2
                         Standard orientation:                         
 ---------------------------------------------------------------------
 Center     Atomic      Atomic             Coordinates (Angstroms)
 Number     Number       Type             X           Y           Z
 ---------------------------------------------------------------------
      1          1           0        2.568880    0.449496    0.000000
      2          1           0        5.137760    0.224748    0.000000
      3          1           0        0.000000    0.224748    0.000000
      4          1           0        2.568880    0.000000   -0.000000
      5          1           0       -2.568880    0.000000   -0.000000
      6          1           0       -0.000000   -0.224748    0.000000
      7          1           0       -5.137760   -0.224748   -0.000000
      8          1           0       -2.568880   -0.449496    0.000000
 ---------------------------------------------------------------------
 Rotational constants (GHZ):   1494.2158976      6.3107655      6.2842243
 General basis read from cards:  (5D, 7F)
 There are     4 symmetry adapted cartesian basis functions of AG  symmetry.
 There are     0 symmetry adapted cartesian basis functions of BG  symmetry.
 There are     0 symmetry adapted cartesian basis functions of AU  symmetry.
 There are     4 symmetry adapted cartesian basis functions of BU  symmetry.
 There are     4 symmetry adapted basis functions of AG  symmetry.
 There are     0 symmetry adapted basis functions of BG  symmetry.
 There are     0 symmetry adapted basis functions of AU  symmetry.
 There are     4 symmetry adapted basis functions of BU  symmetry.
     8 basis functions,    80 primitive gaussians,     8 cartesian basis functions
     4 alpha electrons        4 beta electrons
       nuclear repulsion energy         7.1288148216 Hartrees.
 NAtoms=    8 NActive=    8 NUniq=    4 SFac= 4.00D+00 NAtFMM=   60 NAOKFM=F Big=F
 Integral buffers will be    131072 words long.
 Regular integral format.
 Two-electron integral symmetry is turned on.
 One-electron integrals computed using PRISM.
 NBasis=     8 RedAO= T EigKep=  9.89D-02  NBF=     4     0     0     4
 NBsUse=     8 1.00D-06 EigRej= -1.00D+00 NBFU=     4     0     0     4
 Initial guess from the checkpoint file:  "h8.chk"
 B after Tr=     0.000000    0.000000    0.000000
         Rot=    1.000000    0.000000    0.000000    0.000000 Ang=   0.00 deg.
 Initial guess orbital symmetries:
       Occupied  (AG) (BU) (AG) (BU)
       Virtual   (AG) (BU) (AG) (BU)
 Keep R1 ints in memory in symmetry-blocked form, NReq=854513.
 Requested convergence on RMS density matrix=1.00D-08 within 128 cycles.
 Requested convergence on MAX density matrix=1.00D-06.
 Requested convergence on             energy=1.00D-06.
 No special actions if energy rises.
 Skip diagonalization as Alpha Fock matrix is already diagonal.
 SCF Done:  E(RHF) =  -3.36236751785     A.U. after    1 cycles
            NFock=  1  Conv=0.00D+00     -V/T= 1.8959
 Range of M.O.s used for correlation:     1     8
 NBasis=     8 NAE=     4 NBE=     4 NFC=     0 NFV=     0
 NROrb=      8 NOA=     4 NOB=     4 NVA=     4 NVB=     4

 **** Warning!!: The smallest alpha delta epsilon is  0.51504133D-01

 Semi-Direct transformation.
 ModeAB=           4 MOrb=             4 LenV=     134131055
 LASXX=          409 LTotXX=         409 LenRXX=        1025
 LTotAB=         616 MaxLAS=         640 LenRXY=           0
 NonZer=        1434 LenScr=      655360 LnRSAI=         640
 LnScr1=      655360 LExtra=           0 Total=      1312385
 MaxDsk=          -1 SrtSym=           T ITran=            3
 JobTyp=0 Pass  1:  I=   1 to   4.
 (rs|ai) integrals will be sorted in core.
 Spin components of T(2) and E(2):
     alpha-alpha T2 =       0.1280468543D-04 E2=     -0.3543707811D-04
     alpha-beta  T2 =       0.7835660854D+01 E2=     -0.8256512997D+00
     beta-beta   T2 =       0.1280468543D-04 E2=     -0.3543707811D-04
 ANorm=    0.2972488261D+01
 E2 =    -0.8257221738D+00 EUMP2 =    -0.41880896916859D+01
 Second order stability test of a single determinant RHF wave function:
 Stabil:  MDV=134217728
 ***********************************************************************
 Matrix         Lowest Root    Major Pairs
 ***********************************************************************
 Internal RHF     0.4342188    Stable
 RRHF --> CRHF    0.0000519    Stable
 RRHF --> RUHF   -0.5765172    4A=5B
 Not stable.
 ***********************************************************************

 **********************************************************************

            Population analysis using the SCF density.

 **********************************************************************

 Orbital symmetries:
       Occupied  (AG) (BU) (AG) (BU)
       Virtual   (AG) (BU) (AG) (BU)
 The electronic state is 1-AG.
 Alpha  occ. eigenvalues --   -0.74175  -0.73123  -0.72001  -0.21061
 Alpha virt. eigenvalues --   -0.15911   0.61038   0.66604   0.72825
          Condensed to atoms (all electrons):
               1          2          3          4          5          6
     1  H    0.537279  -0.006722  -0.006298   0.481229   0.000005  -0.005300
     2  H   -0.006722   1.012264  -0.000000  -0.006731   0.000001   0.000005
     3  H   -0.006298  -0.000000   0.541093  -0.006763  -0.006333   0.483596
     4  H    0.481229  -0.006731  -0.006763   0.539571   0.000007  -0.006333
     5  H    0.000005   0.000001  -0.006333   0.000007   0.539571  -0.006763
     6  H   -0.005300   0.000005   0.483596  -0.006333  -0.006763   0.541093
     7  H    0.000001  -0.000000   0.000005   0.000001  -0.006731  -0.000000
     8  H    0.000004   0.000001  -0.005300   0.000005   0.481229  -0.006298
               7          8
     1  H    0.000001   0.000004
     2  H   -0.000000   0.000001
     3  H    0.000005  -0.005300
     4  H    0.000001   0.000005
     5  H   -0.006731   0.481229
     6  H   -0.000000  -0.006298
     7  H    1.012264  -0.006722
     8  H   -0.006722   0.537279
 Mulliken charges:
               1
     1  H   -0.000198
     2  H    0.001183
     3  H    0.000001
     4  H   -0.000986
     5  H   -0.000986
     6  H    0.000001
     7  H    0.001183
     8  H   -0.000198
 Sum of Mulliken charges =  -0.00000
 Mulliken charges with hydrogens summed into heavy atoms:
               1
 Electronic spatial extent (au):  <R**2>=            309.2457
 Charge=             -0.0000 electrons
 Dipole moment (field-independent basis, Debye):
    X=              0.0000    Y=              0.0000    Z=             -0.0000  Tot=              0.0000
 Quadrupole moment (field-independent basis, Debye-Ang):
   XX=            -11.5765   YY=            -10.2741   ZZ=            -10.8196
   XY=             -0.0381   XZ=             -0.0000   YZ=              0.0000
 Traceless Quadrupole moment (field-independent basis, Debye-Ang):
   XX=             -0.6864   YY=              0.6160   ZZ=              0.0705
   XY=             -0.0381   XZ=             -0.0000   YZ=              0.0000
 Octapole moment (field-independent basis, Debye-Ang**2):
  XXX=              0.0000  YYY=             -0.0000  ZZZ=             -0.0000  XYY=              0.0000
  XXY=              0.0000  XXZ=             -0.0000  XZZ=              0.0000  YZZ=             -0.0000
  YYZ=             -0.0000  XYZ=              0.0000
 Hexadecapole moment (field-independent basis, Debye-Ang**3):
 XXXX=           -686.4369 YYYY=            -17.3514 ZZZZ=            -13.5796 XXXY=            -19.9260
 XXXZ=             -0.0000 YYYX=            -18.1198 YYYZ=             -0.0000 ZZZX=             -0.0000
 ZZZY=             -0.0000 XXYY=           -109.6939 XXZZ=           -111.4063 YYZZ=             -5.1787
 XXYZ=             -0.0000 YYXZ=             -0.0000 ZZXY=             -6.2493
 N-N= 7.128814821574D+00 E-N=-1.992823970848D+01  KE= 3.753084383280D+00
 Symmetry AG   KE= 1.832897004842D+00
 Symmetry BG   KE= 0.000000000000D+00
 Symmetry AU   KE= 0.000000000000D+00
 Symmetry BU   KE= 1.920187378438D+00

 Test job not archived.
 1\1\GINC-SULU\Stability\RHF\Gen\H8\UNKNOWN\10-Feb-2017\0\\#rhf/gen scf
 (symm,tight,novaracc,noincfock,fulldiag) stable(crhf) guess=read geom=
 nocrowd test\\hf stability analysis of h8 triangular lattice, y= 0.224
 74786951272291\\0,1\H\H,1,2.5786925358\H,1,2.5786925358,2,170.\H,2,2.5
 786925358,1,10.,3,0.,0\H,3,2.5786925358,1,180.,2,0.,0\H,4,2.5786925358
 ,2,180.,1,0.,0\H,5,2.5786925358,3,180.,2,0.,0\H,6,2.5786925358,4,180.,
 1,0.,0\\Version=ES64L-G09RevE.01\State=1-AG\HF=-3.3623675\MP2=-4.18808
 97\RMSD=0.000e+00\Dipole=0.,0.,0.\Quadrupole=0.4456679,0.0523796,-0.49
 80475,0.,0.1119896,0.\PG=C02H [SGH(H8)]\\@


 ALMOST ALL THE CHEMICAL PROCESSES WHICH OCCUR IN NATURE,
 WHETHER IN ANIMAL OR VEGETABLE ORGANISMS,
 OR IN THE NON-LIVING SURFACE OF THE EARTH ... 
 TAKE PLACE BETWEEN SUBSTANCES IN SOLUTION

                                    -- W. OSTWALD, 1890
 Job cpu time:       0 days  0 hours  0 minutes  0.5 seconds.
 File lengths (MBytes):  RWF=     84 Int=      0 D2E=      0 Chk=      2 Scr=      2
 Normal termination of Gaussian 09 at Fri Feb 10 11:30:51 2017.
