 Entering Gaussian System, Link 0=g09
 AtFile(1): H.gbs
            H     0
            S   10   1.00
               1000.000000000000            0.000068713567
                316.227766000000            0.000169141320
                100.000000000000            0.000823394812
                 31.622776600000            0.003425569236
                 10.000000000000            0.013951996000
                  3.162277660000            0.056909313560
                  1.000000000000            0.198286399900
                  0.316227766000            0.496922426700
                  0.100000000000            0.369846276400
                  0.031622776600            0.003752720039
            ****
 Initial command:
 /projects/guscus/apps/gau/g09-e1/g09/l1.exe "/users/lcj1/gaussian/h12/rhfstability/cross/guessfrommix/alpha20/Gau-23034.inp" -scrdir="/users/lcj1/gaussian/h12/rhfstability/cross/guessfrommix/alpha20/"
 Entering Link 1 = /projects/guscus/apps/gau/g09-e1/g09/l1.exe PID=     23035.
  
 Copyright (c) 1988,1990,1992,1993,1995,1998,2003,2009,2015,
            Gaussian, Inc.  All Rights Reserved.
  
 This is part of the Gaussian(R) 09 program.  It is based on
 the Gaussian(R) 03 system (copyright 2003, Gaussian, Inc.),
 the Gaussian(R) 98 system (copyright 1998, Gaussian, Inc.),
 the Gaussian(R) 94 system (copyright 1995, Gaussian, Inc.),
 the Gaussian 92(TM) system (copyright 1992, Gaussian, Inc.),
 the Gaussian 90(TM) system (copyright 1990, Gaussian, Inc.),
 the Gaussian 88(TM) system (copyright 1988, Gaussian, Inc.),
 the Gaussian 86(TM) system (copyright 1986, Carnegie Mellon
 University), and the Gaussian 82(TM) system (copyright 1983,
 Carnegie Mellon University). Gaussian is a federally registered
 trademark of Gaussian, Inc.
  
 This software contains proprietary and confidential information,
 including trade secrets, belonging to Gaussian, Inc.
  
 This software is provided under written license and may be
 used, copied, transmitted, or stored only in accord with that
 written license.
  
 The following legend is applicable only to US Government
 contracts under FAR:
  
                    RESTRICTED RIGHTS LEGEND
  
 Use, reproduction and disclosure by the US Government is
 subject to restrictions as set forth in subparagraphs (a)
 and (c) of the Commercial Computer Software - Restricted
 Rights clause in FAR 52.227-19.
  
 Gaussian, Inc.
 340 Quinnipiac St., Bldg. 40, Wallingford CT 06492
  
  
 ---------------------------------------------------------------
 Warning -- This program may not be used in any manner that
 competes with the business of Gaussian, Inc. or will provide
 assistance to any competitor of Gaussian, Inc.  The licensee
 of this program is prohibited from giving any competitor of
 Gaussian, Inc. access to this program.  By using this program,
 the user acknowledges that Gaussian, Inc. is engaged in the
 business of creating and licensing software in the field of
 computational chemistry and represents and warrants to the
 licensee that it is not a competitor of Gaussian, Inc. and that
 it will not use this program in any manner prohibited above.
 ---------------------------------------------------------------
  

 Cite this work as:
 Gaussian 09, Revision E.01,
 M. J. Frisch, G. W. Trucks, H. B. Schlegel, G. E. Scuseria, 
 M. A. Robb, J. R. Cheeseman, G. Scalmani, V. Barone, B. Mennucci, 
 G. A. Petersson, H. Nakatsuji, M. Caricato, X. Li, H. P. Hratchian, 
 A. F. Izmaylov, J. Bloino, G. Zheng, J. L. Sonnenberg, M. Hada, 
 M. Ehara, K. Toyota, R. Fukuda, J. Hasegawa, M. Ishida, T. Nakajima, 
 Y. Honda, O. Kitao, H. Nakai, T. Vreven, J. A. Montgomery, Jr., 
 J. E. Peralta, F. Ogliaro, M. Bearpark, J. J. Heyd, E. Brothers, 
 K. N. Kudin, V. N. Staroverov, T. Keith, R. Kobayashi, J. Normand, 
 K. Raghavachari, A. Rendell, J. C. Burant, S. S. Iyengar, J. Tomasi, 
 M. Cossi, N. Rega, J. M. Millam, M. Klene, J. E. Knox, J. B. Cross, 
 V. Bakken, C. Adamo, J. Jaramillo, R. Gomperts, R. E. Stratmann, 
 O. Yazyev, A. J. Austin, R. Cammi, C. Pomelli, J. W. Ochterski, 
 R. L. Martin, K. Morokuma, V. G. Zakrzewski, G. A. Voth, 
 P. Salvador, J. J. Dannenberg, S. Dapprich, A. D. Daniels, 
 O. Farkas, J. B. Foresman, J. V. Ortiz, J. Cioslowski, 
 and D. J. Fox, Gaussian, Inc., Wallingford CT, 2013.
 
 ******************************************
 Gaussian 09:  ES64L-G09RevE.01 30-Nov-2015
                17-Feb-2017 
 ******************************************
 %chk=h12.chk
 ----------------------------------------------------------------------
 #rhf/gen scf(symm,tight,novaracc,noincfock,fulldiag) stable(crhf) gues
 s=read geom=nocrowd test
 ----------------------------------------------------------------------
 1/38=1/1;
 2/12=1,17=6,18=5,40=1/2;
 3/5=7,16=1,25=1,30=1,116=1/1,2,3;
 4/5=1,9=4/1;
 5/5=100002,15=2,16=1,32=2,38=6/2;
 8/6=1,10=90,11=11/1,4;
 9/8=4,13=1/2;
 6/7=2,8=2,9=2,10=2,28=1/1;
 99/5=1,9=1/99;
 ----------------------------------------------------------------------
 hf stability analysis of h10 triangular lattice, y= 0.4829747999860826
 7
 ----------------------------------------------------------------------
 Symbolic Z-matrix:
 Charge =  0 Multiplicity = 1
 H
 H                    1     1.28929 
 H                    1     1.28929  2     136. 
 H                    2     1.28929  1     44.      3     0.       0
 H                    4     1.28929  2     180.     3     0.       0
 H                    5     1.28929  4     180.     3     0.       0
 H                    3     1.28929  1     180.     4     0.       0
 H                    7     1.28929  3     180.     4     0.       0
 H                    3     1.28929  4     180.     1     0.       0
 H                    7     1.28929  5     180.     3     0.       0
 H                    4     1.28929  3     180.     1     0.       0
 H                    5     1.28929  7     180.     3     0.       0
 
                          Input orientation:                          
 ---------------------------------------------------------------------
 Center     Atomic      Atomic             Coordinates (Angstroms)
 Number     Number       Type             X           Y           Z
 ---------------------------------------------------------------------
      1          1           0        0.000000    0.000000    0.000000
      2          1           0        0.000000    0.000000    1.289285
      3          1           0        0.895613    0.000000   -0.927434
      4          1           0        0.895613    0.000000    0.361851
      5          1           0        1.791226    0.000000   -0.565583
      6          1           0        2.686839    0.000000   -1.493017
      7          1           0        1.791226    0.000000   -1.854869
      8          1           0        2.686839    0.000000   -2.782303
      9          1           0        0.895613    0.000000   -2.216720
     10          1           0        1.791226    0.000000   -3.144154
     11          1           0        0.895613    0.000000    1.651136
     12          1           0        1.791226    0.000000    0.723702
 ---------------------------------------------------------------------
                    Distance matrix (angstroms):
                    1          2          3          4          5
     1  H    0.000000
     2  H    1.289285   0.000000
     3  H    1.289285   2.390809   0.000000
     4  H    0.965950   1.289285   1.289285   0.000000
     5  H    1.878397   2.578571   0.965950   1.289285   0.000000
     6  H    3.073793   3.867856   1.878397   2.578571   1.289285
     7  H    2.578571   3.618590   1.289285   2.390809   1.289285
     8  H    3.867856   4.878210   2.578571   3.618590   2.390809
     9  H    2.390809   3.618590   1.289285   2.578571   1.878397
    10  H    3.618590   4.781618   2.390809   3.618590   2.578571
    11  H    1.878397   0.965950   2.578571   1.289285   2.390809
    12  H    1.931899   1.878397   1.878397   0.965950   1.289285
                    6          7          8          9         10
     6  H    0.000000
     7  H    0.965950   0.000000
     8  H    1.289285   1.289285   0.000000
     9  H    1.931899   0.965950   1.878397   0.000000
    10  H    1.878397   1.289285   0.965950   1.289285   0.000000
    11  H    3.618590   3.618590   4.781618   3.867856   4.878210
    12  H    2.390809   2.578571   3.618590   3.073793   3.867856
                   11         12
    11  H    0.000000
    12  H    1.289285   0.000000
 Stoichiometry    H12
 Framework group  D2H[C2'(H.H),C2"(H.H),SG(H8)]
 Deg. of freedom     6
 Full point group                 D2H     NOp   8
 Largest Abelian subgroup         D2H     NOp   8
 Largest concise Abelian subgroup D2      NOp   4
                         Standard orientation:                         
 ---------------------------------------------------------------------
 Center     Atomic      Atomic             Coordinates (Angstroms)
 Number     Number       Type             X           Y           Z
 ---------------------------------------------------------------------
      1          1           0        0.000000    0.965950    1.195405
      2          1           0        0.000000    0.482975    2.390809
      3          1           0       -0.000000    0.482975    0.000000
      4          1           0        0.000000    0.000000    1.195405
      5          1           0       -0.000000   -0.482975   -0.000000
      6          1           0       -0.000000   -0.965950   -1.195405
      7          1           0        0.000000    0.000000   -1.195405
      8          1           0       -0.000000   -0.482975   -2.390809
      9          1           0        0.000000    0.965950   -1.195405
     10          1           0        0.000000    0.482975   -2.390809
     11          1           0       -0.000000   -0.482975    2.390809
     12          1           0       -0.000000   -0.965950    1.195405
 ---------------------------------------------------------------------
 Rotational constants (GHZ):     97.7148236     15.9506933     13.7123310
 General basis read from cards:  (5D, 7F)
 There are     4 symmetry adapted cartesian basis functions of AG  symmetry.
 There are     0 symmetry adapted cartesian basis functions of B1G symmetry.
 There are     0 symmetry adapted cartesian basis functions of B2G symmetry.
 There are     2 symmetry adapted cartesian basis functions of B3G symmetry.
 There are     0 symmetry adapted cartesian basis functions of AU  symmetry.
 There are     3 symmetry adapted cartesian basis functions of B1U symmetry.
 There are     3 symmetry adapted cartesian basis functions of B2U symmetry.
 There are     0 symmetry adapted cartesian basis functions of B3U symmetry.
 There are     4 symmetry adapted basis functions of AG  symmetry.
 There are     0 symmetry adapted basis functions of B1G symmetry.
 There are     0 symmetry adapted basis functions of B2G symmetry.
 There are     2 symmetry adapted basis functions of B3G symmetry.
 There are     0 symmetry adapted basis functions of AU  symmetry.
 There are     3 symmetry adapted basis functions of B1U symmetry.
 There are     3 symmetry adapted basis functions of B2U symmetry.
 There are     0 symmetry adapted basis functions of B3U symmetry.
    12 basis functions,   120 primitive gaussians,    12 cartesian basis functions
     6 alpha electrons        6 beta electrons
       nuclear repulsion energy        18.8943747693 Hartrees.
 NAtoms=   12 NActive=   12 NUniq=    4 SFac= 4.00D+00 NAtFMM=   60 NAOKFM=F Big=F
 Integral buffers will be    131072 words long.
 Regular integral format.
 Two-electron integral symmetry is turned on.
 One-electron integrals computed using PRISM.
 NBasis=    12 RedAO= T EigKep=  1.58D-01  NBF=     4     0     0     2     0     3     3     0
 NBsUse=    12 1.00D-06 EigRej= -1.00D+00 NBFU=     4     0     0     2     0     3     3     0
 Initial guess from the checkpoint file:  "h12.chk"
 B after Tr=    -0.000000   -0.000000    0.000000
         Rot=    1.000000   -0.000000    0.000000   -0.000000 Ang=   0.00 deg.
 Initial guess orbital symmetries:
       Occupied  (AG) (B1U) (AG) (B2U) (B1U) (B3G)
       Virtual   (AG) (B2U) (B3G) (AG) (B1U) (B2U)
 Keep R1 ints in memory in symmetry-blocked form, NReq=902138.
 Requested convergence on RMS density matrix=1.00D-08 within 128 cycles.
 Requested convergence on MAX density matrix=1.00D-06.
 Requested convergence on             energy=1.00D-06.
 No special actions if energy rises.
 SCF Done:  E(RHF) =  -6.02021725648     A.U. after    8 cycles
            NFock=  8  Conv=0.41D-08     -V/T= 2.0036
 Range of M.O.s used for correlation:     1    12
 NBasis=    12 NAE=     6 NBE=     6 NFC=     0 NFV=     0
 NROrb=     12 NOA=     6 NOB=     6 NVA=     6 NVB=     6
 Semi-Direct transformation.
 ModeAB=           4 MOrb=             6 LenV=     134085209
 LASXX=         2181 LTotXX=        2181 LenRXX=        5115
 LTotAB=        2934 MaxLAS=        1800 LenRXY=           0
 NonZer=        7296 LenScr=      655360 LnRSAI=        1800
 LnScr1=      655360 LExtra=           0 Total=      1317635
 MaxDsk=          -1 SrtSym=           T ITran=            3
 JobTyp=0 Pass  1:  I=   1 to   6.
 (rs|ai) integrals will be sorted in core.
 Spin components of T(2) and E(2):
     alpha-alpha T2 =       0.5148662743D-02 E2=     -0.7172468873D-02
     alpha-beta  T2 =       0.6106905572D-01 E2=     -0.9320321023D-01
     beta-beta   T2 =       0.5148662743D-02 E2=     -0.7172468873D-02
 ANorm=    0.1035068298D+01
 E2 =    -0.1075481480D+00 EUMP2 =    -0.61277654044523D+01
 Second order stability test of a single determinant RHF wave function:
 Stabil:  MDV=134217728
 ***********************************************************************
 Matrix         Lowest Root    Major Pairs
 ***********************************************************************
 Internal RHF     0.1917088    Stable
 RRHF --> CRHF    0.1623685    Stable
 RRHF --> RUHF    0.0424245    Stable
 Stable under the perturbations considered.
 ***********************************************************************

 **********************************************************************

            Population analysis using the SCF density.

 **********************************************************************

 Orbital symmetries:
       Occupied  (AG) (B1U) (AG) (B2U) (B1U) (B3G)
       Virtual   (AG) (B2U) (AG) (B3G) (B1U) (B2U)
 The electronic state is 1-AG.
 Alpha  occ. eigenvalues --   -0.94082  -0.81860  -0.60503  -0.51719  -0.40069
 Alpha  occ. eigenvalues --   -0.39396
 Alpha virt. eigenvalues --    0.04175   0.19751   0.37919   0.39503   0.44409
 Alpha virt. eigenvalues --    0.60387
          Condensed to atoms (all electrons):
               1          2          3          4          5          6
     1  H    1.040870   0.079154   0.145814   0.218990  -0.066661   0.005583
     2  H    0.079154   0.804599  -0.020415  -0.101850  -0.033366   0.004942
     3  H    0.145814  -0.020415   0.629349   0.047938   0.075765  -0.066661
     4  H    0.218990  -0.101850   0.047938   0.763480   0.047938  -0.026548
     5  H   -0.066661  -0.033366   0.075765   0.047938   0.629349   0.145814
     6  H    0.005583   0.004942  -0.066661  -0.026548   0.145814   1.040870
     7  H   -0.026548   0.007695   0.047938  -0.061131   0.047938   0.218990
     8  H    0.004942  -0.000422  -0.033366   0.007695  -0.020415   0.079154
     9  H   -0.050211   0.001537   0.145814  -0.026548  -0.066661  -0.169530
    10  H    0.001537  -0.000879  -0.020415   0.007695  -0.033366  -0.111336
    11  H   -0.111336   0.374472  -0.033366  -0.101850  -0.020415   0.001537
    12  H   -0.169530  -0.111336  -0.066661   0.218990   0.145814  -0.050211
               7          8          9         10         11         12
     1  H   -0.026548   0.004942  -0.050211   0.001537  -0.111336  -0.169530
     2  H    0.007695  -0.000422   0.001537  -0.000879   0.374472  -0.111336
     3  H    0.047938  -0.033366   0.145814  -0.020415  -0.033366  -0.066661
     4  H   -0.061131   0.007695  -0.026548   0.007695  -0.101850   0.218990
     5  H    0.047938  -0.020415  -0.066661  -0.033366  -0.020415   0.145814
     6  H    0.218990   0.079154  -0.169530  -0.111336   0.001537  -0.050211
     7  H    0.763480  -0.101850   0.218990  -0.101850   0.007695  -0.026548
     8  H   -0.101850   0.804599  -0.111336   0.374472  -0.000879   0.001537
     9  H    0.218990  -0.111336   1.040870   0.079154   0.004942   0.005583
    10  H   -0.101850   0.374472   0.079154   0.804599  -0.000422   0.004942
    11  H    0.007695  -0.000879   0.004942  -0.000422   0.804599   0.079154
    12  H   -0.026548   0.001537   0.005583   0.004942   0.079154   1.040870
 Mulliken charges:
               1
     1  H   -0.072603
     2  H   -0.004130
     3  H    0.148267
     4  H    0.005200
     5  H    0.148267
     6  H   -0.072603
     7  H    0.005200
     8  H   -0.004130
     9  H   -0.072603
    10  H   -0.004130
    11  H   -0.004130
    12  H   -0.072603
 Sum of Mulliken charges =  -0.00000
 Mulliken charges with hydrogens summed into heavy atoms:
               1
 Electronic spatial extent (au):  <R**2>=            172.2238
 Charge=             -0.0000 electrons
 Dipole moment (field-independent basis, Debye):
    X=             -0.0000    Y=             -0.0000    Z=              0.0000  Tot=              0.0000
 Quadrupole moment (field-independent basis, Debye-Ang):
   XX=            -15.4894   YY=            -18.6884   ZZ=            -21.8175
   XY=             -0.0000   XZ=              0.0000   YZ=             -0.0000
 Traceless Quadrupole moment (field-independent basis, Debye-Ang):
   XX=              3.1757   YY=             -0.0233   ZZ=             -3.1524
   XY=             -0.0000   XZ=              0.0000   YZ=             -0.0000
 Octapole moment (field-independent basis, Debye-Ang**2):
  XXX=             -0.0000  YYY=              0.0000  ZZZ=              0.0000  XYY=             -0.0000
  XXY=             -0.0000  XXZ=              0.0000  XZZ=             -0.0000  YZZ=              0.0000
  YYZ=              0.0000  XYZ=              0.0000
 Hexadecapole moment (field-independent basis, Debye-Ang**3):
 XXXX=            -18.5617 YYYY=            -68.6181 ZZZZ=           -332.9195 XXXY=             -0.0000
 XXXZ=              0.0000 YYYX=             -0.0000 YYYZ=              0.0000 ZZZX=              0.0000
 ZZZY=             -0.0000 XXYY=            -14.1280 XXZZ=            -49.8898 YYZZ=            -61.0075
 XXYZ=              0.0000 YYXZ=              0.0000 ZZXY=             -0.0000
 N-N= 1.889437476926D+01 E-N=-4.847507399053D+01  KE= 5.998474168330D+00
 Symmetry AG   KE= 1.467535664553D+00
 Symmetry B1G  KE= 0.000000000000D+00
 Symmetry B2G  KE= 0.000000000000D+00
 Symmetry B3G  KE= 1.325056850896D+00
 Symmetry AU   KE= 0.000000000000D+00
 Symmetry B1U  KE= 2.170593072706D+00
 Symmetry B2U  KE= 1.035288580176D+00
 Symmetry B3U  KE= 0.000000000000D+00

 Test job not archived.
 1\1\GINC-SULU\Stability\RHF\Gen\H12\LCJ1\17-Feb-2017\0\\#rhf/gen scf(s
 ymm,tight,novaracc,noincfock,fulldiag) stable(crhf) guess=read geom=no
 crowd test\\hf stability analysis of h10 triangular lattice, y= 0.4829
 7479998608267\\0,1\H\H,1,1.2892853348\H,1,1.2892853348,2,136.\H,2,1.28
 92853348,1,44.,3,0.,0\H,4,1.2892853348,2,180.,3,0.,0\H,5,1.2892853348,
 4,180.,3,0.,0\H,3,1.2892853348,1,180.,4,0.,0\H,7,1.2892853348,3,180.,4
 ,0.,0\H,3,1.2892853348,4,180.,1,0.,0\H,7,1.2892853348,5,180.,3,0.,0\H,
 4,1.2892853348,3,180.,1,0.,0\H,5,1.2892853348,7,180.,3,0.,0\\Version=E
 S64L-G09RevE.01\State=1-AG\HF=-6.0202173\MP2=-6.1277654\RMSD=4.107e-09
 \Dipole=0.,0.,0.\Quadrupole=-0.3438003,2.3610679,-2.0172675,0.,0.80802
 42,0.\PG=D02H [C2'(H1.H1),C2"(H1.H1),SG(H8)]\\@


 Where a calculator on the ENIAC is equipped with 18,000
 vacuum tubes and weighs 30 tons, computers inthe future
 may  have only 1,000 vacuum tubes and weigh only 1 1/2 tons.
              ---Popular Mechanics, March 1949
 Job cpu time:       0 days  0 hours  0 minutes  0.8 seconds.
 File lengths (MBytes):  RWF=     84 Int=      0 D2E=      0 Chk=      2 Scr=      2
 Normal termination of Gaussian 09 at Fri Feb 17 15:23:07 2017.
