 Entering Gaussian System, Link 0=g09
 AtFile(1): H.gbs
            H     0
            S   10   1.00
               1000.000000000000            0.000068713567
                316.227766000000            0.000169141320
                100.000000000000            0.000823394812
                 31.622776600000            0.003425569236
                 10.000000000000            0.013951996000
                  3.162277660000            0.056909313560
                  1.000000000000            0.198286399900
                  0.316227766000            0.496922426700
                  0.100000000000            0.369846276400
                  0.031622776600            0.003752720039
            ****
 Initial command:
 /projects/guscus/apps/gau/g09-e1/g09/l1.exe "/users/lcj1/gaussian/h10/rhfstability/3rows/zmatrix/bck/Gau-3661.inp" -scrdir="/users/lcj1/gaussian/h10/rhfstability/3rows/zmatrix/bck/"
 Entering Link 1 = /projects/guscus/apps/gau/g09-e1/g09/l1.exe PID=      3662.
  
 Copyright (c) 1988,1990,1992,1993,1995,1998,2003,2009,2015,
            Gaussian, Inc.  All Rights Reserved.
  
 This is part of the Gaussian(R) 09 program.  It is based on
 the Gaussian(R) 03 system (copyright 2003, Gaussian, Inc.),
 the Gaussian(R) 98 system (copyright 1998, Gaussian, Inc.),
 the Gaussian(R) 94 system (copyright 1995, Gaussian, Inc.),
 the Gaussian 92(TM) system (copyright 1992, Gaussian, Inc.),
 the Gaussian 90(TM) system (copyright 1990, Gaussian, Inc.),
 the Gaussian 88(TM) system (copyright 1988, Gaussian, Inc.),
 the Gaussian 86(TM) system (copyright 1986, Carnegie Mellon
 University), and the Gaussian 82(TM) system (copyright 1983,
 Carnegie Mellon University). Gaussian is a federally registered
 trademark of Gaussian, Inc.
  
 This software contains proprietary and confidential information,
 including trade secrets, belonging to Gaussian, Inc.
  
 This software is provided under written license and may be
 used, copied, transmitted, or stored only in accord with that
 written license.
  
 The following legend is applicable only to US Government
 contracts under FAR:
  
                    RESTRICTED RIGHTS LEGEND
  
 Use, reproduction and disclosure by the US Government is
 subject to restrictions as set forth in subparagraphs (a)
 and (c) of the Commercial Computer Software - Restricted
 Rights clause in FAR 52.227-19.
  
 Gaussian, Inc.
 340 Quinnipiac St., Bldg. 40, Wallingford CT 06492
  
  
 ---------------------------------------------------------------
 Warning -- This program may not be used in any manner that
 competes with the business of Gaussian, Inc. or will provide
 assistance to any competitor of Gaussian, Inc.  The licensee
 of this program is prohibited from giving any competitor of
 Gaussian, Inc. access to this program.  By using this program,
 the user acknowledges that Gaussian, Inc. is engaged in the
 business of creating and licensing software in the field of
 computational chemistry and represents and warrants to the
 licensee that it is not a competitor of Gaussian, Inc. and that
 it will not use this program in any manner prohibited above.
 ---------------------------------------------------------------
  

 Cite this work as:
 Gaussian 09, Revision E.01,
 M. J. Frisch, G. W. Trucks, H. B. Schlegel, G. E. Scuseria, 
 M. A. Robb, J. R. Cheeseman, G. Scalmani, V. Barone, B. Mennucci, 
 G. A. Petersson, H. Nakatsuji, M. Caricato, X. Li, H. P. Hratchian, 
 A. F. Izmaylov, J. Bloino, G. Zheng, J. L. Sonnenberg, M. Hada, 
 M. Ehara, K. Toyota, R. Fukuda, J. Hasegawa, M. Ishida, T. Nakajima, 
 Y. Honda, O. Kitao, H. Nakai, T. Vreven, J. A. Montgomery, Jr., 
 J. E. Peralta, F. Ogliaro, M. Bearpark, J. J. Heyd, E. Brothers, 
 K. N. Kudin, V. N. Staroverov, T. Keith, R. Kobayashi, J. Normand, 
 K. Raghavachari, A. Rendell, J. C. Burant, S. S. Iyengar, J. Tomasi, 
 M. Cossi, N. Rega, J. M. Millam, M. Klene, J. E. Knox, J. B. Cross, 
 V. Bakken, C. Adamo, J. Jaramillo, R. Gomperts, R. E. Stratmann, 
 O. Yazyev, A. J. Austin, R. Cammi, C. Pomelli, J. W. Ochterski, 
 R. L. Martin, K. Morokuma, V. G. Zakrzewski, G. A. Voth, 
 P. Salvador, J. J. Dannenberg, S. Dapprich, A. D. Daniels, 
 O. Farkas, J. B. Foresman, J. V. Ortiz, J. Cioslowski, 
 and D. J. Fox, Gaussian, Inc., Wallingford CT, 2013.
 
 ******************************************
 Gaussian 09:  ES64L-G09RevE.01 30-Nov-2015
                 9-Feb-2017 
 ******************************************
 %chk=h10.chk
 ----------------------------------------------------------------------
 #rhf/gen scf(symm,tight,novaracc,noincfock,fulldiag) stable(crhf) geom
 =nocrowd test
 ----------------------------------------------------------------------
 1/38=1/1;
 2/12=1,17=6,18=5,40=1/2;
 3/5=7,16=1,25=1,30=1,116=1/1,2,3;
 4/9=4/1;
 5/5=100002,15=2,16=1,32=2,38=1/2;
 8/6=1,10=90,11=11/1,4;
 9/8=4,13=1/2;
 6/7=2,8=2,9=2,10=2,28=1/1;
 99/5=1,9=1/99;
 ----------------------------------------------------------------------
 hf stability analysis of h10 triangular lattice, y= 0.6293333646024982
 2
 ----------------------------------------------------------------------
 Symbolic Z-matrix:
 Charge =  0 Multiplicity = 1
 H
 H                    1     1.11251 
 H                    1     1.11251  2     111.1 
 H                    2     1.11251  1     68.9     3     0.       0
 H                    3     1.11251  4     180.     1     0.       0
 H                    3     1.11251  1     180.     2     0.       0
 H                    3     1.8348   2     180.     1     0.       0
 H                    7     1.11251  6     180.     1     0.       0
 H                    7     1.11251  5     180.     2     0.       0
 H                    7     1.8348   3     180.     1     0.       0
 
                          Input orientation:                          
 ---------------------------------------------------------------------
 Center     Atomic      Atomic             Coordinates (Angstroms)
 Number     Number       Type             X           Y           Z
 ---------------------------------------------------------------------
      1          1           0        0.000000    0.000000    0.000000
      2          1           0        0.000000    0.000000    1.112512
      3          1           0        1.037922    0.000000   -0.400501
      4          1           0        1.037922    0.000000    0.712011
      5          1           0        1.037922    0.000000   -1.513013
      6          1           0        2.075844    0.000000   -0.801001
      7          1           0        2.075844    0.000000   -1.913513
      8          1           0        2.075844    0.000000   -3.026025
      9          1           0        3.113766    0.000000   -2.314014
     10          1           0        3.113766    0.000000   -3.426526
 ---------------------------------------------------------------------
                    Distance matrix (angstroms):
                    1          2          3          4          5
     1  H    0.000000
     2  H    1.112512   0.000000
     3  H    1.112512   1.834800   0.000000
     4  H    1.258667   1.112512   1.112512   0.000000
     5  H    1.834800   2.823236   1.112512   2.225024   0.000000
     6  H    2.225024   2.823236   1.112512   1.834800   1.258667
     7  H    2.823236   3.669599   1.834799   2.823236   1.112512
     8  H    3.669599   4.629970   2.823236   3.879459   1.834799
     9  H    3.879459   4.629970   2.823236   3.669599   2.225024
    10  H    4.629970   5.504399   3.669599   4.629970   2.823236
                    6          7          8          9         10
     6  H    0.000000
     7  H    1.112512   0.000000
     8  H    2.225024   1.112512   0.000000
     9  H    1.834799   1.112512   1.258667   0.000000
    10  H    2.823236   1.834799   1.112512   1.112512   0.000000
 Stoichiometry    H10
 Framework group  D2H[C2'(H.H),C2"(HH.HH),SG(H4)]
 Deg. of freedom     5
 Full point group                 D2H     NOp   8
 Largest Abelian subgroup         D2H     NOp   8
 Largest concise Abelian subgroup D2      NOp   4
                         Standard orientation:                         
 ---------------------------------------------------------------------
 Center     Atomic      Atomic             Coordinates (Angstroms)
 Number     Number       Type             X           Y           Z
 ---------------------------------------------------------------------
      1          1           0        0.000000    0.629333    1.834800
      2          1           0        0.000000    0.000000    2.752199
      3          1           0        0.000000    0.000000    0.917400
      4          1           0       -0.000000   -0.629333    1.834800
      5          1           0       -0.000000    0.629333   -0.000000
      6          1           0       -0.000000   -0.629333    0.000000
      7          1           0        0.000000   -0.000000   -0.917400
      8          1           0        0.000000    0.629333   -1.834800
      9          1           0       -0.000000   -0.629333   -1.834800
     10          1           0        0.000000   -0.000000   -2.752199
 ---------------------------------------------------------------------
 Rotational constants (GHZ):    211.0179065     16.5505456     15.3468614
 General basis read from cards:  (5D, 7F)
 There are     4 symmetry adapted cartesian basis functions of AG  symmetry.
 There are     0 symmetry adapted cartesian basis functions of B1G symmetry.
 There are     0 symmetry adapted cartesian basis functions of B2G symmetry.
 There are     1 symmetry adapted cartesian basis functions of B3G symmetry.
 There are     0 symmetry adapted cartesian basis functions of AU  symmetry.
 There are     3 symmetry adapted cartesian basis functions of B1U symmetry.
 There are     2 symmetry adapted cartesian basis functions of B2U symmetry.
 There are     0 symmetry adapted cartesian basis functions of B3U symmetry.
 There are     4 symmetry adapted basis functions of AG  symmetry.
 There are     0 symmetry adapted basis functions of B1G symmetry.
 There are     0 symmetry adapted basis functions of B2G symmetry.
 There are     1 symmetry adapted basis functions of B3G symmetry.
 There are     0 symmetry adapted basis functions of AU  symmetry.
 There are     3 symmetry adapted basis functions of B1U symmetry.
 There are     2 symmetry adapted basis functions of B2U symmetry.
 There are     0 symmetry adapted basis functions of B3U symmetry.
    10 basis functions,   100 primitive gaussians,    10 cartesian basis functions
     5 alpha electrons        5 beta electrons
       nuclear repulsion energy        12.8418346970 Hartrees.
 NAtoms=   10 NActive=   10 NUniq=    4 SFac= 4.00D+00 NAtFMM=   60 NAOKFM=F Big=F
 Integral buffers will be    131072 words long.
 Regular integral format.
 Two-electron integral symmetry is turned on.
 One-electron integrals computed using PRISM.
 NBasis=    10 RedAO= T EigKep=  1.86D-01  NBF=     4     0     0     1     0     3     2     0
 NBsUse=    10 1.00D-06 EigRej= -1.00D+00 NBFU=     4     0     0     1     0     3     2     0
 ExpMin= 3.16D-02 ExpMax= 1.00D+03 ExpMxC= 1.00D+01 IAcc=3 IRadAn=         5 AccDes= 0.00D+00
 Harris functional with IExCor=  205 and IRadAn=       5 diagonalized for initial guess.
 HarFok:  IExCor=  205 AccDes= 0.00D+00 IRadAn=         5 IDoV= 1 UseB2=F ITyADJ=14
 ICtDFT=  3500011 ScaDFX=  1.000000  1.000000  1.000000  1.000000
 FoFCou: FMM=F IPFlag=           0 FMFlag=      100000 FMFlg1=           0
         NFxFlg=           0 DoJE=T BraDBF=F KetDBF=T FulRan=T
         wScrn=  0.000000 ICntrl=     500 IOpCl=  0 I1Cent=   200000004 NGrid=           0
         NMat0=    1 NMatS0=      1 NMatT0=    0 NMatD0=    1 NMtDS0=    0 NMtDT0=    0
 Petite list used in FoFCou.
 Initial guess orbital symmetries:
       Occupied  (AG) (B1U) (AG) (B1U) (B2U)
       Virtual   (B3G) (AG) (B2U) (B1U) (AG)
 The electronic state of the initial guess is 1-AG.
 Keep R1 ints in memory in symmetry-blocked form, NReq=878605.
 Requested convergence on RMS density matrix=1.00D-08 within 128 cycles.
 Requested convergence on MAX density matrix=1.00D-06.
 Requested convergence on             energy=1.00D-06.
 No special actions if energy rises.
 SCF Done:  E(RHF) =  -4.81007408717     A.U. after    9 cycles
            NFock=  9  Conv=0.83D-09     -V/T= 1.9475
 Range of M.O.s used for correlation:     1    10
 NBasis=    10 NAE=     5 NBE=     5 NFC=     0 NFV=     0
 NROrb=     10 NOA=     5 NOB=     5 NVA=     5 NVB=     5
 Semi-Direct transformation.
 ModeAB=           4 MOrb=             5 LenV=     134107288
 LASXX=         1030 LTotXX=        1030 LenRXX=        2480
 LTotAB=        1450 MaxLAS=        1000 LenRXY=           0
 NonZer=        3510 LenScr=      655360 LnRSAI=        1000
 LnScr1=      655360 LExtra=           0 Total=      1314200
 MaxDsk=          -1 SrtSym=           T ITran=            3
 JobTyp=0 Pass  1:  I=   1 to   5.
 (rs|ai) integrals will be sorted in core.
 Spin components of T(2) and E(2):
     alpha-alpha T2 =       0.9834462773D-02 E2=     -0.9750135967D-02
     alpha-beta  T2 =       0.1024975476D+00 E2=     -0.1080482665D+00
     beta-beta   T2 =       0.9834462773D-02 E2=     -0.9750135967D-02
 ANorm=    0.1059323592D+01
 E2 =    -0.1275485384D+00 EUMP2 =    -0.49376226255731D+01
 Second order stability test of a single determinant RHF wave function:
 Stabil:  MDV=134217728
 ***********************************************************************
 Matrix         Lowest Root    Major Pairs
 ***********************************************************************
 Internal RHF     0.0322406    Stable
 RRHF --> CRHF    0.0211342    Stable
 RRHF --> RUHF   -0.111231     5A=6B
 Not stable.
 ***********************************************************************

 **********************************************************************

            Population analysis using the SCF density.

 **********************************************************************

 Orbital symmetries:
       Occupied  (AG) (B1U) (AG) (B1U) (B2U)
       Virtual   (B3G) (AG) (B2U) (B1U) (AG)
 The electronic state is 1-AG.
 Alpha  occ. eigenvalues --   -0.81547  -0.73111  -0.55884  -0.30147  -0.27416
 Alpha virt. eigenvalues --    0.01112   0.15376   0.20307   0.46296   0.70007
          Condensed to atoms (all electrons):
               1          2          3          4          5          6
     1  H    0.644769   0.170079   0.046724  -0.054762   0.119433  -0.105313
     2  H    0.170079   1.050491  -0.220957   0.170079  -0.014698  -0.014698
     3  H    0.046724  -0.220957   1.345413   0.046724   0.123167   0.123167
     4  H   -0.054762   0.170079   0.046724   0.644769  -0.105313   0.119433
     5  H    0.119433  -0.014698   0.123167  -0.105313   0.998201  -0.266188
     6  H   -0.105313  -0.014698   0.123167   0.119433  -0.266188   0.998201
     7  H   -0.009355   0.013361  -0.220843  -0.009355   0.123167   0.123167
     8  H    0.008981   0.000378  -0.009355  -0.005536   0.119433  -0.105313
     9  H   -0.005536   0.000378  -0.009355   0.008981  -0.105313   0.119433
    10  H    0.000378  -0.000450   0.013361   0.000378  -0.014698  -0.014698
               7          8          9         10
     1  H   -0.009355   0.008981  -0.005536   0.000378
     2  H    0.013361   0.000378   0.000378  -0.000450
     3  H   -0.220843  -0.009355  -0.009355   0.013361
     4  H   -0.009355  -0.005536   0.008981   0.000378
     5  H    0.123167   0.119433  -0.105313  -0.014698
     6  H    0.123167  -0.105313   0.119433  -0.014698
     7  H    1.345413   0.046724   0.046724  -0.220957
     8  H    0.046724   0.644769  -0.054762   0.170079
     9  H    0.046724  -0.054762   0.644769   0.170079
    10  H   -0.220957   0.170079   0.170079   1.050491
 Mulliken charges:
               1
     1  H    0.184601
     2  H   -0.153965
     3  H   -0.238046
     4  H    0.184601
     5  H    0.022809
     6  H    0.022809
     7  H   -0.238046
     8  H    0.184601
     9  H    0.184601
    10  H   -0.153965
 Sum of Mulliken charges =  -0.00000
 Mulliken charges with hydrogens summed into heavy atoms:
               1
 Electronic spatial extent (au):  <R**2>=            148.3319
 Charge=              0.0000 electrons
 Dipole moment (field-independent basis, Debye):
    X=             -0.0000    Y=             -0.0000    Z=             -0.0000  Tot=              0.0000
 Quadrupole moment (field-independent basis, Debye-Ang):
   XX=            -13.0494   YY=            -13.0678   ZZ=            -16.4508
   XY=              0.0000   XZ=              0.0000   YZ=             -0.0000
 Traceless Quadrupole moment (field-independent basis, Debye-Ang):
   XX=              1.1399   YY=              1.1215   ZZ=             -2.2615
   XY=              0.0000   XZ=              0.0000   YZ=             -0.0000
 Octapole moment (field-independent basis, Debye-Ang**2):
  XXX=             -0.0000  YYY=              0.0000  ZZZ=             -0.0000  XYY=             -0.0000
  XXY=              0.0000  XXZ=              0.0000  XZZ=             -0.0000  YZZ=             -0.0000
  YYZ=              0.0000  XYZ=             -0.0000
 Hexadecapole moment (field-independent basis, Debye-Ang**3):
 XXXX=            -15.8699 YYYY=            -36.7179 ZZZZ=           -339.5593 XXXY=             -0.0000
 XXXZ=              0.0000 YYYX=             -0.0000 YYYZ=             -0.0000 ZZZX=              0.0000
 ZZZY=             -0.0000 XXYY=             -8.7902 XXZZ=            -47.1082 YYZZ=            -46.7493
 XXYZ=              0.0000 YYXZ=              0.0000 ZZXY=              0.0000
 N-N= 1.284183469703D+01 E-N=-3.501842357560D+01  KE= 5.076724892229D+00
 Symmetry AG   KE= 1.455569113898D+00
 Symmetry B1G  KE= 0.000000000000D+00
 Symmetry B2G  KE= 0.000000000000D+00
 Symmetry B3G  KE= 5.691675203677D-17
 Symmetry AU   KE= 0.000000000000D+00
 Symmetry B1U  KE= 2.254017827643D+00
 Symmetry B2U  KE= 1.367137950688D+00
 Symmetry B3U  KE= 0.000000000000D+00

 Test job not archived.
 1\1\GINC-SULU\Stability\RHF\Gen\H10\LCJ1\09-Feb-2017\0\\#rhf/gen scf(s
 ymm,tight,novaracc,noincfock,fulldiag) stable(crhf) geom=nocrowd test\
 \hf stability analysis of h10 triangular lattice, y= 0.629333364602498
 22\\0,1\H\H,1,1.112511923\H,1,1.112511923,2,111.1\H,2,1.112511923,1,68
 .9,3,0.,0\H,3,1.112511923,4,180.,1,0.,0\H,3,1.112511923,1,180.,2,0.,0\
 H,3,1.8347994931,2,180.,1,0.,0\H,7,1.112511923,6,180.,1,0.,0\H,7,1.112
 511923,5,180.,2,0.,0\H,7,1.8347994931,3,180.,1,0.,0\\Version=ES64L-G09
 RevE.01\State=1-AG\HF=-4.8100741\MP2=-4.9376226\RMSD=8.278e-10\Dipole=
 0.,0.,0.\Quadrupole=0.0289725,0.8475084,-0.8764809,0.,1.1732688,0.\PG=
 D02H [C2'(H1.H1),C2"(H1H1.H1H1),SG(H4)]\\@


 WE'RE IN THE POSITION OF A VISITOR FROM ANOTHER
 DIMENSION WHO COMES TO EARTH AND SEES A CHESS MATCH.
 ASSUMING HE KNOWS IT'S A GAME, HE'S GOT TWO PROBLEMS:
 FIRST, FIGURE OUT THE RULES, AND SECOND, FIGURE OUT HOW TO WIN.
 NINETY PERCENT OF SCIENCE (INCLUDING VIRTUALLY ALL OF CHEMISRY)
 IS IN THAT SECOND CATEGORY.  THEY'RE TRYING TO APPLY
 THE LAWS THAT ARE ALREADY KNOWN.

                     -- SHELDON GLASHOW, 1979
 Job cpu time:       0 days  0 hours  0 minutes  0.8 seconds.
 File lengths (MBytes):  RWF=     84 Int=      0 D2E=      0 Chk=      2 Scr=      2
 Normal termination of Gaussian 09 at Thu Feb  9 15:43:54 2017.
