 Entering Gaussian System, Link 0=g09
 AtFile(1): H.gbs
            H     0
            S   10   1.00
               1000.000000000000            0.000068713567
                316.227766000000            0.000169141320
                100.000000000000            0.000823394812
                 31.622776600000            0.003425569236
                 10.000000000000            0.013951996000
                  3.162277660000            0.056909313560
                  1.000000000000            0.198286399900
                  0.316227766000            0.496922426700
                  0.100000000000            0.369846276400
                  0.031622776600            0.003752720039
            ****
 Initial command:
 /projects/guscus/apps/gau/g09-e1/g09/l1.exe "/users/lcj1/gaussian/h10/rhfstability/3rows/zmatrix/bck/Gau-17493.inp" -scrdir="/users/lcj1/gaussian/h10/rhfstability/3rows/zmatrix/bck/"
 Entering Link 1 = /projects/guscus/apps/gau/g09-e1/g09/l1.exe PID=     17494.
  
 Copyright (c) 1988,1990,1992,1993,1995,1998,2003,2009,2015,
            Gaussian, Inc.  All Rights Reserved.
  
 This is part of the Gaussian(R) 09 program.  It is based on
 the Gaussian(R) 03 system (copyright 2003, Gaussian, Inc.),
 the Gaussian(R) 98 system (copyright 1998, Gaussian, Inc.),
 the Gaussian(R) 94 system (copyright 1995, Gaussian, Inc.),
 the Gaussian 92(TM) system (copyright 1992, Gaussian, Inc.),
 the Gaussian 90(TM) system (copyright 1990, Gaussian, Inc.),
 the Gaussian 88(TM) system (copyright 1988, Gaussian, Inc.),
 the Gaussian 86(TM) system (copyright 1986, Carnegie Mellon
 University), and the Gaussian 82(TM) system (copyright 1983,
 Carnegie Mellon University). Gaussian is a federally registered
 trademark of Gaussian, Inc.
  
 This software contains proprietary and confidential information,
 including trade secrets, belonging to Gaussian, Inc.
  
 This software is provided under written license and may be
 used, copied, transmitted, or stored only in accord with that
 written license.
  
 The following legend is applicable only to US Government
 contracts under FAR:
  
                    RESTRICTED RIGHTS LEGEND
  
 Use, reproduction and disclosure by the US Government is
 subject to restrictions as set forth in subparagraphs (a)
 and (c) of the Commercial Computer Software - Restricted
 Rights clause in FAR 52.227-19.
  
 Gaussian, Inc.
 340 Quinnipiac St., Bldg. 40, Wallingford CT 06492
  
  
 ---------------------------------------------------------------
 Warning -- This program may not be used in any manner that
 competes with the business of Gaussian, Inc. or will provide
 assistance to any competitor of Gaussian, Inc.  The licensee
 of this program is prohibited from giving any competitor of
 Gaussian, Inc. access to this program.  By using this program,
 the user acknowledges that Gaussian, Inc. is engaged in the
 business of creating and licensing software in the field of
 computational chemistry and represents and warrants to the
 licensee that it is not a competitor of Gaussian, Inc. and that
 it will not use this program in any manner prohibited above.
 ---------------------------------------------------------------
  

 Cite this work as:
 Gaussian 09, Revision E.01,
 M. J. Frisch, G. W. Trucks, H. B. Schlegel, G. E. Scuseria, 
 M. A. Robb, J. R. Cheeseman, G. Scalmani, V. Barone, B. Mennucci, 
 G. A. Petersson, H. Nakatsuji, M. Caricato, X. Li, H. P. Hratchian, 
 A. F. Izmaylov, J. Bloino, G. Zheng, J. L. Sonnenberg, M. Hada, 
 M. Ehara, K. Toyota, R. Fukuda, J. Hasegawa, M. Ishida, T. Nakajima, 
 Y. Honda, O. Kitao, H. Nakai, T. Vreven, J. A. Montgomery, Jr., 
 J. E. Peralta, F. Ogliaro, M. Bearpark, J. J. Heyd, E. Brothers, 
 K. N. Kudin, V. N. Staroverov, T. Keith, R. Kobayashi, J. Normand, 
 K. Raghavachari, A. Rendell, J. C. Burant, S. S. Iyengar, J. Tomasi, 
 M. Cossi, N. Rega, J. M. Millam, M. Klene, J. E. Knox, J. B. Cross, 
 V. Bakken, C. Adamo, J. Jaramillo, R. Gomperts, R. E. Stratmann, 
 O. Yazyev, A. J. Austin, R. Cammi, C. Pomelli, J. W. Ochterski, 
 R. L. Martin, K. Morokuma, V. G. Zakrzewski, G. A. Voth, 
 P. Salvador, J. J. Dannenberg, S. Dapprich, A. D. Daniels, 
 O. Farkas, J. B. Foresman, J. V. Ortiz, J. Cioslowski, 
 and D. J. Fox, Gaussian, Inc., Wallingford CT, 2013.
 
 ******************************************
 Gaussian 09:  ES64L-G09RevE.01 30-Nov-2015
                 9-Feb-2017 
 ******************************************
 %chk=h10.chk
 ----------------------------------------------------------------------
 #rhf/gen scf(symm,tight,novaracc,noincfock,fulldiag) stable(crhf) geom
 =nocrowd test
 ----------------------------------------------------------------------
 1/38=1/1;
 2/12=1,17=6,18=5,40=1/2;
 3/5=7,16=1,25=1,30=1,116=1/1,2,3;
 4/9=4/1;
 5/5=100002,15=2,16=1,32=2,38=1/2;
 8/6=1,10=90,11=11/1,4;
 9/8=4,13=1/2;
 6/7=2,8=2,9=2,10=2,28=1/1;
 99/5=1,9=1/99;
 ----------------------------------------------------------------------
 hf stability analysis of h10 triangular lattice, y= 0.3884927615234244
 9
 ----------------------------------------------------------------------
 Symbolic Z-matrix:
 Charge =  0 Multiplicity = 1
 H
 H                    1     1.53607 
 H                    1     1.53607  2     150.7 
 H                    2     1.53607  1     29.3     3     0.       0
 H                    3     1.53607  4     180.     1     0.       0
 H                    3     1.53607  1     180.     2     0.       0
 H                    3     2.97226  2     180.     1     0.       0
 H                    7     1.53607  6     180.     1     0.       0
 H                    7     1.53607  5     180.     2     0.       0
 H                    7     2.97226  3     180.     1     0.       0
 
                          Input orientation:                          
 ---------------------------------------------------------------------
 Center     Atomic      Atomic             Coordinates (Angstroms)
 Number     Number       Type             X           Y           Z
 ---------------------------------------------------------------------
      1          1           0        0.000000    0.000000    0.000000
      2          1           0        0.000000    0.000000    1.536068
      3          1           0        0.751725    0.000000   -1.339558
      4          1           0        0.751725    0.000000    0.196510
      5          1           0        0.751725    0.000000   -2.875626
      6          1           0        1.503450    0.000000   -2.679116
      7          1           0        1.503450    0.000000   -4.215184
      8          1           0        1.503450    0.000000   -5.751252
      9          1           0        2.255174    0.000000   -5.554742
     10          1           0        2.255174    0.000000   -7.090810
 ---------------------------------------------------------------------
                    Distance matrix (angstroms):
                    1          2          3          4          5
     1  H    0.000000
     2  H    1.536068   0.000000
     3  H    1.536068   2.972258   0.000000
     4  H    0.776986   1.536068   1.536068   0.000000
     5  H    2.972258   4.475280   1.536068   3.072136   0.000000
     6  H    3.072136   4.475280   1.536068   2.972258   0.776986
     7  H    4.475280   5.944515   2.972258   4.475280   1.536068
     8  H    5.944515   7.440793   4.475280   5.995078   2.972258
     9  H    5.995078   7.440793   4.475280   5.944515   3.072136
    10  H    7.440793   8.916773   5.944515   7.440793   4.475280
                    6          7          8          9         10
     6  H    0.000000
     7  H    1.536068   0.000000
     8  H    3.072136   1.536068   0.000000
     9  H    2.972258   1.536068   0.776986   0.000000
    10  H    4.475280   2.972258   1.536068   1.536068   0.000000
 Stoichiometry    H10
 Framework group  D2H[C2'(H.H),C2"(HH.HH),SG(H4)]
 Deg. of freedom     5
 Full point group                 D2H     NOp   8
 Largest Abelian subgroup         D2H     NOp   8
 Largest concise Abelian subgroup D2      NOp   4
                         Standard orientation:                         
 ---------------------------------------------------------------------
 Center     Atomic      Atomic             Coordinates (Angstroms)
 Number     Number       Type             X           Y           Z
 ---------------------------------------------------------------------
      1          1           0        0.000000    0.388493    2.972258
      2          1           0       -0.000000    0.000000    4.458386
      3          1           0       -0.000000    0.000000    1.486129
      4          1           0       -0.000000   -0.388493    2.972258
      5          1           0       -0.000000    0.388493    0.000000
      6          1           0       -0.000000   -0.388493    0.000000
      7          1           0        0.000000    0.000000   -1.486129
      8          1           0        0.000000    0.388493   -2.972258
      9          1           0       -0.000000   -0.388493   -2.972258
     10          1           0        0.000000    0.000000   -4.458386
 ---------------------------------------------------------------------
 Rotational constants (GHZ):    553.7515609      6.3069105      6.2358874
 General basis read from cards:  (5D, 7F)
 There are     4 symmetry adapted cartesian basis functions of AG  symmetry.
 There are     0 symmetry adapted cartesian basis functions of B1G symmetry.
 There are     0 symmetry adapted cartesian basis functions of B2G symmetry.
 There are     1 symmetry adapted cartesian basis functions of B3G symmetry.
 There are     0 symmetry adapted cartesian basis functions of AU  symmetry.
 There are     3 symmetry adapted cartesian basis functions of B1U symmetry.
 There are     2 symmetry adapted cartesian basis functions of B2U symmetry.
 There are     0 symmetry adapted cartesian basis functions of B3U symmetry.
 There are     4 symmetry adapted basis functions of AG  symmetry.
 There are     0 symmetry adapted basis functions of B1G symmetry.
 There are     0 symmetry adapted basis functions of B2G symmetry.
 There are     1 symmetry adapted basis functions of B3G symmetry.
 There are     0 symmetry adapted basis functions of AU  symmetry.
 There are     3 symmetry adapted basis functions of B1U symmetry.
 There are     2 symmetry adapted basis functions of B2U symmetry.
 There are     0 symmetry adapted basis functions of B3U symmetry.
    10 basis functions,   100 primitive gaussians,    10 cartesian basis functions
     5 alpha electrons        5 beta electrons
       nuclear repulsion energy         9.9348713861 Hartrees.
 NAtoms=   10 NActive=   10 NUniq=    4 SFac= 4.00D+00 NAtFMM=   60 NAOKFM=F Big=F
 Integral buffers will be    131072 words long.
 Regular integral format.
 Two-electron integral symmetry is turned on.
 One-electron integrals computed using PRISM.
 NBasis=    10 RedAO= T EigKep=  1.87D-01  NBF=     4     0     0     1     0     3     2     0
 NBsUse=    10 1.00D-06 EigRej= -1.00D+00 NBFU=     4     0     0     1     0     3     2     0
 ExpMin= 3.16D-02 ExpMax= 1.00D+03 ExpMxC= 1.00D+01 IAcc=3 IRadAn=         5 AccDes= 0.00D+00
 Harris functional with IExCor=  205 and IRadAn=       5 diagonalized for initial guess.
 HarFok:  IExCor=  205 AccDes= 0.00D+00 IRadAn=         5 IDoV= 1 UseB2=F ITyADJ=14
 ICtDFT=  3500011 ScaDFX=  1.000000  1.000000  1.000000  1.000000
 FoFCou: FMM=F IPFlag=           0 FMFlag=      100000 FMFlg1=           0
         NFxFlg=           0 DoJE=T BraDBF=F KetDBF=T FulRan=T
         wScrn=  0.000000 ICntrl=     500 IOpCl=  0 I1Cent=   200000004 NGrid=           0
         NMat0=    1 NMatS0=      1 NMatT0=    0 NMatD0=    1 NMtDS0=    0 NMtDT0=    0
 Petite list used in FoFCou.
 Initial guess orbital symmetries:
       Occupied  (AG) (B1U) (AG) (B1U) (AG)
       Virtual   (B1U) (AG) (B2U) (B3G) (B2U)
 The electronic state of the initial guess is 1-AG.
 Keep R1 ints in memory in symmetry-blocked form, NReq=872571.
 Requested convergence on RMS density matrix=1.00D-08 within 128 cycles.
 Requested convergence on MAX density matrix=1.00D-06.
 Requested convergence on             energy=1.00D-06.
 No special actions if energy rises.
 SCF Done:  E(RHF) =  -4.88719278688     A.U. after    9 cycles
            NFock=  9  Conv=0.23D-09     -V/T= 2.0559
 Range of M.O.s used for correlation:     1    10
 NBasis=    10 NAE=     5 NBE=     5 NFC=     0 NFV=     0
 NROrb=     10 NOA=     5 NOB=     5 NVA=     5 NVB=     5
 Semi-Direct transformation.
 ModeAB=           4 MOrb=             5 LenV=     134113406
 LASXX=         1030 LTotXX=        1030 LenRXX=        2480
 LTotAB=        1450 MaxLAS=        1000 LenRXY=           0
 NonZer=        3510 LenScr=      655360 LnRSAI=        1000
 LnScr1=      655360 LExtra=           0 Total=      1314200
 MaxDsk=          -1 SrtSym=           T ITran=            3
 JobTyp=0 Pass  1:  I=   1 to   5.
 (rs|ai) integrals will be sorted in core.
 Spin components of T(2) and E(2):
     alpha-alpha T2 =       0.1645232044D-02 E2=     -0.1330315826D-02
     alpha-beta  T2 =       0.2044997932D+00 E2=     -0.1511222482D+00
     beta-beta   T2 =       0.1645232044D-02 E2=     -0.1330315826D-02
 ANorm=    0.1098995112D+01
 E2 =    -0.1537828798D+00 EUMP2 =    -0.50409756667037D+01
 Second order stability test of a single determinant RHF wave function:
 Stabil:  MDV=134217728
 ***********************************************************************
 Matrix         Lowest Root    Major Pairs
 ***********************************************************************
 Internal RHF     0.1958617    Stable
 RRHF --> CRHF    0.0985703    Stable
 RRHF --> RUHF   -0.2899519    5A=6B 4A=7B
 Not stable.
 ***********************************************************************

 **********************************************************************

            Population analysis using the SCF density.

 **********************************************************************

 Orbital symmetries:
       Occupied  (AG) (B1U) (AG) (B1U) (AG)
       Virtual   (B1U) (AG) (B2U) (B3G) (B2U)
 The electronic state is 1-AG.
 Alpha  occ. eigenvalues --   -0.72249  -0.70026  -0.66225  -0.31576  -0.23674
 Alpha virt. eigenvalues --    0.01019   0.10502   0.29647   0.31707   0.35239
          Condensed to atoms (all electrons):
               1          2          3          4          5          6
     1  H    0.478143   0.026354   0.046101   0.350992  -0.006418  -0.005571
     2  H    0.026354   1.199947  -0.066593   0.026354   0.001577   0.001577
     3  H    0.046101  -0.066593   1.168075   0.046101  -0.048418  -0.048418
     4  H    0.350992   0.026354   0.046101   0.478143  -0.005571  -0.006418
     5  H   -0.006418   0.001577  -0.048418  -0.005571   0.616312   0.452419
     6  H   -0.005571   0.001577  -0.048418  -0.006418   0.452419   0.616312
     7  H    0.000512  -0.000012  -0.018382   0.000512  -0.048418  -0.048418
     8  H    0.000008  -0.000004   0.000512   0.000007  -0.006418  -0.005571
     9  H    0.000007  -0.000004   0.000512   0.000008  -0.005571  -0.006418
    10  H   -0.000004   0.000001  -0.000012  -0.000004   0.001577   0.001577
               7          8          9         10
     1  H    0.000512   0.000008   0.000007  -0.000004
     2  H   -0.000012  -0.000004  -0.000004   0.000001
     3  H   -0.018382   0.000512   0.000512  -0.000012
     4  H    0.000512   0.000007   0.000008  -0.000004
     5  H   -0.048418  -0.006418  -0.005571   0.001577
     6  H   -0.048418  -0.005571  -0.006418   0.001577
     7  H    1.168075   0.046101   0.046101  -0.066593
     8  H    0.046101   0.478143   0.350992   0.026354
     9  H    0.046101   0.350992   0.478143   0.026354
    10  H   -0.066593   0.026354   0.026354   1.199947
 Mulliken charges:
               1
     1  H    0.109874
     2  H   -0.189198
     3  H   -0.079480
     4  H    0.109874
     5  H    0.048929
     6  H    0.048929
     7  H   -0.079480
     8  H    0.109874
     9  H    0.109874
    10  H   -0.189198
 Sum of Mulliken charges =   0.00000
 Mulliken charges with hydrogens summed into heavy atoms:
               1
 Electronic spatial extent (au):  <R**2>=            332.3425
 Charge=              0.0000 electrons
 Dipole moment (field-independent basis, Debye):
    X=             -0.0000    Y=             -0.0000    Z=              0.0000  Tot=              0.0000
 Quadrupole moment (field-independent basis, Debye-Ang):
   XX=            -13.5304   YY=            -11.7985   ZZ=            -35.4364
   XY=              0.0000   XZ=              0.0000   YZ=             -0.0000
 Traceless Quadrupole moment (field-independent basis, Debye-Ang):
   XX=              6.7247   YY=              8.4566   ZZ=            -15.1813
   XY=              0.0000   XZ=              0.0000   YZ=             -0.0000
 Octapole moment (field-independent basis, Debye-Ang**2):
  XXX=             -0.0000  YYY=             -0.0000  ZZZ=              0.0000  XYY=             -0.0000
  XXY=             -0.0000  XXZ=              0.0000  XZZ=             -0.0000  YZZ=             -0.0000
  YYZ=             -0.0000  XYZ=             -0.0000
 Hexadecapole moment (field-independent basis, Debye-Ang**3):
 XXXX=            -16.8998 YYYY=            -20.8541 ZZZZ=          -1337.7260 XXXY=             -0.0000
 XXXZ=              0.0000 YYYX=             -0.0000 YYYZ=              0.0000 ZZZX=              0.0000
 ZZZY=             -0.0000 XXYY=             -6.3412 XXZZ=           -120.3075 YYZZ=           -110.3707
 XXYZ=              0.0000 YYXZ=              0.0000 ZZXY=              0.0000
 N-N= 9.934871386085D+00 E-N=-2.899775445541D+01  KE= 4.628643018269D+00
 Symmetry AG   KE= 2.783536783134D+00
 Symmetry B1G  KE= 0.000000000000D+00
 Symmetry B2G  KE= 0.000000000000D+00
 Symmetry B3G  KE= 0.000000000000D+00
 Symmetry AU   KE= 0.000000000000D+00
 Symmetry B1U  KE= 1.845106235135D+00
 Symmetry B2U  KE= 0.000000000000D+00
 Symmetry B3U  KE= 0.000000000000D+00

 Test job not archived.
 1\1\GINC-SULU\Stability\RHF\Gen\H10\UNKNOWN\09-Feb-2017\0\\#rhf/gen sc
 f(symm,tight,novaracc,noincfock,fulldiag) stable(crhf) geom=nocrowd te
 st\\hf stability analysis of h10 triangular lattice, y= 0.388492761523
 42449\\0,1\H\H,1,1.5360681436\H,1,1.5360681436,2,150.7\H,2,1.536068143
 6,1,29.3,3,0.,0\H,3,1.5360681436,4,180.,1,0.,0\H,3,1.5360681436,1,180.
 ,2,0.,0\H,3,2.9722575367,2,180.,1,0.,0\H,7,1.5360681436,6,180.,1,0.,0\
 H,7,1.5360681436,5,180.,2,0.,0\H,7,2.9722575367,3,180.,1,0.,0\\Version
 =ES64L-G09RevE.01\State=1-AG\HF=-4.8871928\MP2=-5.0409757\RMSD=2.305e-
 10\Dipole=0.,0.,0.\Quadrupole=5.1631129,4.999674,-10.1627869,0.,4.3002
 469,0.\PG=D02H [C2'(H1.H1),C2"(H1H1.H1H1),SG(H4)]\\@


 WHEN ALL ELSE FAILS, TRY THE BOSS'S SUGGESTION.
 Job cpu time:       0 days  0 hours  0 minutes  0.8 seconds.
 File lengths (MBytes):  RWF=     84 Int=      0 D2E=      0 Chk=      2 Scr=      2
 Normal termination of Gaussian 09 at Thu Feb  9 16:00:52 2017.
