 Entering Gaussian System, Link 0=g09
 AtFile(1): H.gbs
            H     0
            S   10   1.00
               1000.000000000000            0.000068713567
                316.227766000000            0.000169141320
                100.000000000000            0.000823394812
                 31.622776600000            0.003425569236
                 10.000000000000            0.013951996000
                  3.162277660000            0.056909313560
                  1.000000000000            0.198286399900
                  0.316227766000            0.496922426700
                  0.100000000000            0.369846276400
                  0.031622776600            0.003752720039
            ****
 Initial command:
 /projects/guscus/apps/gau/g09-e1/g09/l1.exe "/users/lcj1/gaussian/h10/rhfstability/3rows/zmatrix/bck/Gau-16022.inp" -scrdir="/users/lcj1/gaussian/h10/rhfstability/3rows/zmatrix/bck/"
 Entering Link 1 = /projects/guscus/apps/gau/g09-e1/g09/l1.exe PID=     16023.
  
 Copyright (c) 1988,1990,1992,1993,1995,1998,2003,2009,2015,
            Gaussian, Inc.  All Rights Reserved.
  
 This is part of the Gaussian(R) 09 program.  It is based on
 the Gaussian(R) 03 system (copyright 2003, Gaussian, Inc.),
 the Gaussian(R) 98 system (copyright 1998, Gaussian, Inc.),
 the Gaussian(R) 94 system (copyright 1995, Gaussian, Inc.),
 the Gaussian 92(TM) system (copyright 1992, Gaussian, Inc.),
 the Gaussian 90(TM) system (copyright 1990, Gaussian, Inc.),
 the Gaussian 88(TM) system (copyright 1988, Gaussian, Inc.),
 the Gaussian 86(TM) system (copyright 1986, Carnegie Mellon
 University), and the Gaussian 82(TM) system (copyright 1983,
 Carnegie Mellon University). Gaussian is a federally registered
 trademark of Gaussian, Inc.
  
 This software contains proprietary and confidential information,
 including trade secrets, belonging to Gaussian, Inc.
  
 This software is provided under written license and may be
 used, copied, transmitted, or stored only in accord with that
 written license.
  
 The following legend is applicable only to US Government
 contracts under FAR:
  
                    RESTRICTED RIGHTS LEGEND
  
 Use, reproduction and disclosure by the US Government is
 subject to restrictions as set forth in subparagraphs (a)
 and (c) of the Commercial Computer Software - Restricted
 Rights clause in FAR 52.227-19.
  
 Gaussian, Inc.
 340 Quinnipiac St., Bldg. 40, Wallingford CT 06492
  
  
 ---------------------------------------------------------------
 Warning -- This program may not be used in any manner that
 competes with the business of Gaussian, Inc. or will provide
 assistance to any competitor of Gaussian, Inc.  The licensee
 of this program is prohibited from giving any competitor of
 Gaussian, Inc. access to this program.  By using this program,
 the user acknowledges that Gaussian, Inc. is engaged in the
 business of creating and licensing software in the field of
 computational chemistry and represents and warrants to the
 licensee that it is not a competitor of Gaussian, Inc. and that
 it will not use this program in any manner prohibited above.
 ---------------------------------------------------------------
  

 Cite this work as:
 Gaussian 09, Revision E.01,
 M. J. Frisch, G. W. Trucks, H. B. Schlegel, G. E. Scuseria, 
 M. A. Robb, J. R. Cheeseman, G. Scalmani, V. Barone, B. Mennucci, 
 G. A. Petersson, H. Nakatsuji, M. Caricato, X. Li, H. P. Hratchian, 
 A. F. Izmaylov, J. Bloino, G. Zheng, J. L. Sonnenberg, M. Hada, 
 M. Ehara, K. Toyota, R. Fukuda, J. Hasegawa, M. Ishida, T. Nakajima, 
 Y. Honda, O. Kitao, H. Nakai, T. Vreven, J. A. Montgomery, Jr., 
 J. E. Peralta, F. Ogliaro, M. Bearpark, J. J. Heyd, E. Brothers, 
 K. N. Kudin, V. N. Staroverov, T. Keith, R. Kobayashi, J. Normand, 
 K. Raghavachari, A. Rendell, J. C. Burant, S. S. Iyengar, J. Tomasi, 
 M. Cossi, N. Rega, J. M. Millam, M. Klene, J. E. Knox, J. B. Cross, 
 V. Bakken, C. Adamo, J. Jaramillo, R. Gomperts, R. E. Stratmann, 
 O. Yazyev, A. J. Austin, R. Cammi, C. Pomelli, J. W. Ochterski, 
 R. L. Martin, K. Morokuma, V. G. Zakrzewski, G. A. Voth, 
 P. Salvador, J. J. Dannenberg, S. Dapprich, A. D. Daniels, 
 O. Farkas, J. B. Foresman, J. V. Ortiz, J. Cioslowski, 
 and D. J. Fox, Gaussian, Inc., Wallingford CT, 2013.
 
 ******************************************
 Gaussian 09:  ES64L-G09RevE.01 30-Nov-2015
                 9-Feb-2017 
 ******************************************
 %chk=h10.chk
 ----------------------------------------------------------------------
 #rhf/gen scf(symm,tight,novaracc,noincfock,fulldiag) stable(crhf) geom
 =nocrowd test
 ----------------------------------------------------------------------
 1/38=1/1;
 2/12=1,17=6,18=5,40=1/2;
 3/5=7,16=1,25=1,30=1,116=1/1,2,3;
 4/9=4/1;
 5/5=100002,15=2,16=1,32=2,38=1/2;
 8/6=1,10=90,11=11/1,4;
 9/8=4,13=1/2;
 6/7=2,8=2,9=2,10=2,28=1/1;
 99/5=1,9=1/99;
 ----------------------------------------------------------------------
 hf stability analysis of h10 triangular lattice, y= 0.7331075402424347
 4
 ----------------------------------------------------------------------
 Symbolic Z-matrix:
 Charge =  0 Multiplicity = 1
 H
 H                    1     1.07595 
 H                    1     1.07595  2     94.1 
 H                    2     1.07595  1     85.9     3     0.       0
 H                    3     1.07595  4     180.     1     0.       0
 H                    3     1.07595  1     180.     2     0.       0
 H                    3     1.57508  2     180.     1     0.       0
 H                    7     1.07595  6     180.     1     0.       0
 H                    7     1.07595  5     180.     2     0.       0
 H                    7     1.57508  3     180.     1     0.       0
 
                          Input orientation:                          
 ---------------------------------------------------------------------
 Center     Atomic      Atomic             Coordinates (Angstroms)
 Number     Number       Type             X           Y           Z
 ---------------------------------------------------------------------
      1          1           0        0.000000    0.000000    0.000000
      2          1           0        0.000000    0.000000    1.075948
      3          1           0        1.073194    0.000000   -0.076928
      4          1           0        1.073194    0.000000    0.999020
      5          1           0        1.073194    0.000000   -1.152875
      6          1           0        2.146388    0.000000   -0.153855
      7          1           0        2.146388    0.000000   -1.229803
      8          1           0        2.146388    0.000000   -2.305750
      9          1           0        3.219582    0.000000   -1.306730
     10          1           0        3.219582    0.000000   -2.382678
 ---------------------------------------------------------------------
                    Distance matrix (angstroms):
                    1          2          3          4          5
     1  H    0.000000
     2  H    1.075948   0.000000
     3  H    1.075948   1.575077   0.000000
     4  H    1.466215   1.075948   1.075948   0.000000
     5  H    1.575077   2.473741   1.075948   2.151895   0.000000
     6  H    2.151895   2.473741   1.075948   1.575077   1.466215
     7  H    2.473741   3.150153   1.575077   2.473741   1.075948
     8  H    3.150153   4.005354   2.473741   3.474659   1.575077
     9  H    3.474659   4.005354   2.473741   3.150153   2.151895
    10  H    4.005354   4.725230   3.150153   4.005354   2.473741
                    6          7          8          9         10
     6  H    0.000000
     7  H    1.075948   0.000000
     8  H    2.151895   1.075948   0.000000
     9  H    1.575077   1.075948   1.466215   0.000000
    10  H    2.473741   1.575077   1.075948   1.075948   0.000000
 Stoichiometry    H10
 Framework group  D2H[C2'(H.H),C2"(HH.HH),SG(H4)]
 Deg. of freedom     5
 Full point group                 D2H     NOp   8
 Largest Abelian subgroup         D2H     NOp   8
 Largest concise Abelian subgroup D2      NOp   4
                         Standard orientation:                         
 ---------------------------------------------------------------------
 Center     Atomic      Atomic             Coordinates (Angstroms)
 Number     Number       Type             X           Y           Z
 ---------------------------------------------------------------------
      1          1           0        0.000000    0.733108    1.575077
      2          1           0        0.000000    0.000000    2.362615
      3          1           0        0.000000    0.000000    0.787538
      4          1           0       -0.000000   -0.733108    1.575077
      5          1           0       -0.000000    0.733108    0.000000
      6          1           0       -0.000000   -0.733108    0.000000
      7          1           0        0.000000   -0.000000   -0.787538
      8          1           0        0.000000    0.733108   -1.575077
      9          1           0       -0.000000   -0.733108   -1.575077
     10          1           0        0.000000   -0.000000   -2.362615
 ---------------------------------------------------------------------
 Rotational constants (GHZ):    155.5053909     22.4587806     19.6245200
 General basis read from cards:  (5D, 7F)
 There are     4 symmetry adapted cartesian basis functions of AG  symmetry.
 There are     0 symmetry adapted cartesian basis functions of B1G symmetry.
 There are     0 symmetry adapted cartesian basis functions of B2G symmetry.
 There are     1 symmetry adapted cartesian basis functions of B3G symmetry.
 There are     0 symmetry adapted cartesian basis functions of AU  symmetry.
 There are     3 symmetry adapted cartesian basis functions of B1U symmetry.
 There are     2 symmetry adapted cartesian basis functions of B2U symmetry.
 There are     0 symmetry adapted cartesian basis functions of B3U symmetry.
 There are     4 symmetry adapted basis functions of AG  symmetry.
 There are     0 symmetry adapted basis functions of B1G symmetry.
 There are     0 symmetry adapted basis functions of B2G symmetry.
 There are     1 symmetry adapted basis functions of B3G symmetry.
 There are     0 symmetry adapted basis functions of AU  symmetry.
 There are     3 symmetry adapted basis functions of B1U symmetry.
 There are     2 symmetry adapted basis functions of B2U symmetry.
 There are     0 symmetry adapted basis functions of B3U symmetry.
    10 basis functions,   100 primitive gaussians,    10 cartesian basis functions
     5 alpha electrons        5 beta electrons
       nuclear repulsion energy        13.6483986675 Hartrees.
 NAtoms=   10 NActive=   10 NUniq=    4 SFac= 4.00D+00 NAtFMM=   60 NAOKFM=F Big=F
 Integral buffers will be    131072 words long.
 Regular integral format.
 Two-electron integral symmetry is turned on.
 One-electron integrals computed using PRISM.
 NBasis=    10 RedAO= T EigKep=  1.84D-01  NBF=     4     0     0     1     0     3     2     0
 NBsUse=    10 1.00D-06 EigRej= -1.00D+00 NBFU=     4     0     0     1     0     3     2     0
 ExpMin= 3.16D-02 ExpMax= 1.00D+03 ExpMxC= 1.00D+01 IAcc=3 IRadAn=         5 AccDes= 0.00D+00
 Harris functional with IExCor=  205 and IRadAn=       5 diagonalized for initial guess.
 HarFok:  IExCor=  205 AccDes= 0.00D+00 IRadAn=         5 IDoV= 1 UseB2=F ITyADJ=14
 ICtDFT=  3500011 ScaDFX=  1.000000  1.000000  1.000000  1.000000
 FoFCou: FMM=F IPFlag=           0 FMFlag=      100000 FMFlg1=           0
         NFxFlg=           0 DoJE=T BraDBF=F KetDBF=T FulRan=T
         wScrn=  0.000000 ICntrl=     500 IOpCl=  0 I1Cent=   200000004 NGrid=           0
         NMat0=    1 NMatS0=      1 NMatT0=    0 NMatD0=    1 NMtDS0=    0 NMtDT0=    0
 Petite list used in FoFCou.
 Initial guess orbital symmetries:
       Occupied  (AG) (B1U) (AG) (B2U) (B3G)
       Virtual   (B1U) (B2U) (AG) (B1U) (AG)
 The electronic state of the initial guess is 1-AG.
 Keep R1 ints in memory in symmetry-blocked form, NReq=879725.
 Requested convergence on RMS density matrix=1.00D-08 within 128 cycles.
 Requested convergence on MAX density matrix=1.00D-06.
 Requested convergence on             energy=1.00D-06.
 No special actions if energy rises.
 SCF Done:  E(RHF) =  -4.81601994039     A.U. after    8 cycles
            NFock=  8  Conv=0.40D-08     -V/T= 1.9564
 Range of M.O.s used for correlation:     1    10
 NBasis=    10 NAE=     5 NBE=     5 NFC=     0 NFV=     0
 NROrb=     10 NOA=     5 NOB=     5 NVA=     5 NVB=     5
 Semi-Direct transformation.
 ModeAB=           4 MOrb=             5 LenV=     134106448
 LASXX=         1030 LTotXX=        1030 LenRXX=        2480
 LTotAB=        1450 MaxLAS=        1000 LenRXY=           0
 NonZer=        3510 LenScr=      655360 LnRSAI=        1000
 LnScr1=      655360 LExtra=           0 Total=      1314200
 MaxDsk=          -1 SrtSym=           T ITran=            3
 JobTyp=0 Pass  1:  I=   1 to   5.
 (rs|ai) integrals will be sorted in core.
 Spin components of T(2) and E(2):
     alpha-alpha T2 =       0.6482005405D-02 E2=     -0.7274724662D-02
     alpha-beta  T2 =       0.6513530365D-01 E2=     -0.8398532204D-01
     beta-beta   T2 =       0.6482005405D-02 E2=     -0.7274724662D-02
 ANorm=    0.1038315614D+01
 E2 =    -0.9853477137D-01 EUMP2 =    -0.49145547117568D+01
 Second order stability test of a single determinant RHF wave function:
 Stabil:  MDV=134217728
 ***********************************************************************
 Matrix         Lowest Root    Major Pairs
 ***********************************************************************
 Internal RHF    -0.0573034    5A=6A
 RRHF --> CRHF   -0.0646027    5A=6A
 RRHF --> RUHF   -0.0872371    5A=6B
 Not stable.
 ***********************************************************************

 **********************************************************************

            Population analysis using the SCF density.

 **********************************************************************

 Orbital symmetries:
       Occupied  (AG) (B1U) (AG) (B2U) (B3G)
       Virtual   (B1U) (B2U) (AG) (B1U) (AG)
 The electronic state is 1-AG.
 Alpha  occ. eigenvalues --   -0.89897  -0.74368  -0.52895  -0.44104  -0.26239
 Alpha virt. eigenvalues --   -0.03959   0.14548   0.30881   0.54744   0.56506
          Condensed to atoms (all electrons):
               1          2          3          4          5          6
     1  H    1.379137   0.182352   0.052404  -0.356086   0.095320  -0.101867
     2  H    0.182352   0.432735   0.013872   0.182352  -0.029788  -0.029788
     3  H    0.052404   0.013872   0.443015   0.052404   0.136967   0.136967
     4  H   -0.356086   0.182352   0.052404   1.379137  -0.101867   0.095320
     5  H    0.095320  -0.029788   0.136967  -0.101867   0.899587  -0.122890
     6  H   -0.101867  -0.029788   0.136967   0.095320  -0.122890   0.899587
     7  H   -0.019938  -0.010548   0.040296  -0.019938   0.136967   0.136967
     8  H   -0.025513   0.001507  -0.019938   0.018414   0.095320  -0.101867
     9  H    0.018414   0.001507  -0.019938  -0.025513  -0.101867   0.095320
    10  H    0.001507   0.000878  -0.010548   0.001507  -0.029788  -0.029788
               7          8          9         10
     1  H   -0.019938  -0.025513   0.018414   0.001507
     2  H   -0.010548   0.001507   0.001507   0.000878
     3  H    0.040296  -0.019938  -0.019938  -0.010548
     4  H   -0.019938   0.018414  -0.025513   0.001507
     5  H    0.136967   0.095320  -0.101867  -0.029788
     6  H    0.136967  -0.101867   0.095320  -0.029788
     7  H    0.443015   0.052404   0.052404   0.013872
     8  H    0.052404   1.379137  -0.356086   0.182352
     9  H    0.052404  -0.356086   1.379137   0.182352
    10  H    0.013872   0.182352   0.182352   0.432735
 Mulliken charges:
               1
     1  H   -0.225729
     2  H    0.254921
     3  H    0.174499
     4  H   -0.225729
     5  H    0.022038
     6  H    0.022038
     7  H    0.174499
     8  H   -0.225729
     9  H   -0.225729
    10  H    0.254921
 Sum of Mulliken charges =   0.00000
 Mulliken charges with hydrogens summed into heavy atoms:
               1
 Electronic spatial extent (au):  <R**2>=            122.1953
 Charge=              0.0000 electrons
 Dipole moment (field-independent basis, Debye):
    X=              0.0000    Y=              0.0000    Z=             -0.0000  Tot=              0.0000
 Quadrupole moment (field-independent basis, Debye-Ang):
   XX=            -13.0191   YY=            -18.8822   ZZ=             -9.7218
   XY=             -0.0000   XZ=             -0.0000   YZ=             -0.0000
 Traceless Quadrupole moment (field-independent basis, Debye-Ang):
   XX=              0.8553   YY=             -5.0078   ZZ=              4.1525
   XY=             -0.0000   XZ=             -0.0000   YZ=             -0.0000
 Octapole moment (field-independent basis, Debye-Ang**2):
  XXX=             -0.0000  YYY=              0.0000  ZZZ=             -0.0000  XYY=             -0.0000
  XXY=             -0.0000  XXZ=             -0.0000  XZZ=              0.0000  YZZ=              0.0000
  YYZ=             -0.0000  XYZ=              0.0000
 Hexadecapole moment (field-independent basis, Debye-Ang**3):
 XXXX=            -15.7609 YYYY=            -55.9341 ZZZZ=           -131.6184 XXXY=             -0.0000
 XXXZ=              0.0000 YYYX=             -0.0000 YYYZ=              0.0000 ZZZX=             -0.0000
 ZZZY=              0.0000 XXYY=            -11.4536 XXZZ=            -34.1907 YYZZ=            -53.5393
 XXYZ=              0.0000 YYXZ=              0.0000 ZZXY=             -0.0000
 N-N= 1.364839866746D+01 E-N=-3.621449207321D+01  KE= 5.035724030099D+00
 Symmetry AG   KE= 1.578829147876D+00
 Symmetry B1G  KE= 0.000000000000D+00
 Symmetry B2G  KE= 0.000000000000D+00
 Symmetry B3G  KE= 1.586376913168D+00
 Symmetry AU   KE= 0.000000000000D+00
 Symmetry B1U  KE= 6.937081550179D-01
 Symmetry B2U  KE= 1.176809814037D+00
 Symmetry B3U  KE= 0.000000000000D+00

 Test job not archived.
 1\1\GINC-SULU\Stability\RHF\Gen\H10\LCJ1\09-Feb-2017\0\\#rhf/gen scf(s
 ymm,tight,novaracc,noincfock,fulldiag) stable(crhf) geom=nocrowd test\
 \hf stability analysis of h10 triangular lattice, y= 0.733107540242434
 74\\0,1\H\H,1,1.075947604\H,1,1.075947604,2,94.1\H,2,1.075947604,1,85.
 9,3,0.,0\H,3,1.075947604,4,180.,1,0.,0\H,3,1.075947604,1,180.,2,0.,0\H
 ,3,1.5750766088,2,180.,1,0.,0\H,7,1.075947604,6,180.,1,0.,0\H,7,1.0759
 47604,5,180.,2,0.,0\H,7,1.5750766088,3,180.,1,0.,0\\Version=ES64L-G09R
 evE.01\State=1-AG\HF=-4.8160199\MP2=-4.9145547\RMSD=3.965e-09\Dipole=0
 .,0.,0.\Quadrupole=-0.561418,0.6359011,-0.0744831,0.,-3.3965463,0.\PG=
 D02H [C2'(H1.H1),C2"(H1H1.H1H1),SG(H4)]\\@


 ... I FELL INTO A REVERIE ... THE ATOMS WERE GAMBOLING BEFORE MY EYES
 ... I SAW HOW TWO SMALL ONES UNITED TO FORM A PAIR;
 HOW THE LARGER ONES SEIZED TWO OF THE SMALLER ONES;
 HOW STILL LARGER ONES KEPT HOLD OF THREE OR FOUR
 SMALLER ONES ... I SAW HOW THE LARGER ONES FORMED A CHAIN ...
 THIS WAS THE ORIGIN OF THE STRUCTURE THEORY.

                                   -- C.F.KEKULE VON STRADONITZ
 Job cpu time:       0 days  0 hours  0 minutes  0.8 seconds.
 File lengths (MBytes):  RWF=     84 Int=      0 D2E=      0 Chk=      2 Scr=      2
 Normal termination of Gaussian 09 at Thu Feb  9 15:36:34 2017.
