 Entering Gaussian System, Link 0=gdv
 AtFile(1): H.gbs
            H     0
            S   10   1.00
               1000.000000000000            0.000068713567
                316.227766000000            0.000169141320
                100.000000000000            0.000823394812
                 31.622776600000            0.003425569236
                 10.000000000000            0.013951996000
                  3.162277660000            0.056909313560
                  1.000000000000            0.198286399900
                  0.316227766000            0.496922426700
                  0.100000000000            0.369846276400
                  0.031622776600            0.003752720039
            ****
 Initial command:
 /users/lcj1/GHF_hess/exe-dir/l1.exe "/users/lcj1/GHF_hess/h10_2rows/follow25/fwd/Gau-30580.inp" -scrdir="/users/lcj1/GHF_hess/h10_2rows/follow25/fwd/"
 Entering Link 1 = /users/lcj1/GHF_hess/exe-dir/l1.exe PID=     30581.
  
 Copyright (c) 1988,1990,1992,1993,1995,1998,2003,2009,2012,
            Gaussian, Inc.  All Rights Reserved.
  
 This is the private, development version of
 the Gaussian(R) DV system of programs. It is based on
 the Gaussian(R) 09 system (copyright 2009, Gaussian, Inc.),
 the Gaussian(R) 03 system (copyright 2003, Gaussian, Inc.),
 the Gaussian(R) 98 system (copyright 1998, Gaussian, Inc.),
 the Gaussian(R) 94 system (copyright 1995, Gaussian, Inc.),
 the Gaussian 92(TM) system (copyright 1992, Gaussian, Inc.),
 the Gaussian 90(TM) system (copyright 1990, Gaussian, Inc.),
 the Gaussian 88(TM) system (copyright 1988, Gaussian, Inc.),
 the Gaussian 86(TM) system (copyright 1986, Carnegie Mellon
 University), and the Gaussian 82(TM) system (copyright 1983,
 Carnegie Mellon University). Gaussian is a federally registered
 trademark of Gaussian, Inc.
  
 This software contains proprietary and confidential information,
 including trade secrets, belonging to Gaussian, Inc.
  
 This software is provided under written license and may be
 used, copied, transmitted, or stored only in accord with that
 written license.
  
 The following legend is applicable only to US Government
 contracts under FAR:
  
                    RESTRICTED RIGHTS LEGEND
  
 Use, reproduction and disclosure by the US Government is
 subject to restrictions as set forth in subparagraphs (a)
 and (c) of the Commercial Computer Software - Restricted
 Rights clause in FAR 52.227-19.
  
 Gaussian, Inc.
 340 Quinnipiac St., Bldg. 40, Wallingford CT 06492
  
  
 ---------------------------------------------------------------
 Warning -- This program may not be used in any manner that
 competes with the business of Gaussian, Inc. or will provide
 assistance to any competitor of Gaussian, Inc.  The licensee
 of this program is prohibited from giving any competitor of
 Gaussian, Inc. access to this program.  By using this program,
 the user acknowledges that Gaussian, Inc. is engaged in the
 business of creating and licensing software in the field of
 computational chemistry and represents and warrants to the
 licensee that it is not a competitor of Gaussian, Inc. and that
 it will not use this program in any manner prohibited above.
 ---------------------------------------------------------------
  

 Cite this work as:
 Gaussian Development Version, Revision H.21,
 M. J. Frisch, G. W. Trucks, H. B. Schlegel, G. E. Scuseria, 
 M. A. Robb, J. R. Cheeseman, G. Scalmani, V. Barone, B. Mennucci, 
 G. A. Petersson, H. Nakatsuji, M. Caricato, X. Li, H. P. Hratchian, 
 A. F. Izmaylov, J. Bloino, G. Zheng, J. L. Sonnenberg, W. Liang, 
 M. Hada, M. Ehara, K. Toyota, R. Fukuda, J. Hasegawa, M. Ishida, 
 T. Nakajima, Y. Honda, O. Kitao, H. Nakai, T. Vreven, 
 J. A. Montgomery, Jr., J. E. Peralta, F. Ogliaro, M. Bearpark, 
 J. J. Heyd, E. Brothers, K. N. Kudin, V. N. Staroverov, T. Keith, 
 R. Kobayashi, J. Normand, K. Raghavachari, A. Rendell, J. C. Burant, 
 S. S. Iyengar, J. Tomasi, M. Cossi, N. Rega, J. M. Millam, M. Klene, 
 J. E. Knox, J. B. Cross, V. Bakken, C. Adamo, J. Jaramillo, 
 R. Gomperts, R. E. Stratmann, O. Yazyev, A. J. Austin, R. Cammi, 
 C. Pomelli, J. W. Ochterski, R. L. Martin, K. Morokuma, 
 V. G. Zakrzewski, G. A. Voth, P. Salvador, J. J. Dannenberg, 
 S. Dapprich, P. V. Parandekar, N. J. Mayhall, A. D. Daniels, 
 O. Farkas, J. B. Foresman, J. V. Ortiz, J. Cioslowski, 
 and D. J. Fox, Gaussian, Inc., Wallingford CT, 2010.
 
 ******************************************
 Gaussian DV:  EM64L-GDVRevH.21 13-May-2012
                28-Feb-2017 
 ******************************************
 %chk=h10.chk
 ----------------------------------------------------------------------
 #ghf/gen scf(tight,novaracc,noincfock,fulldiag) stable guess=read geom
 =nocrowd use=l802 use=l902 test
 ----------------------------------------------------------------------
 ********************************************
   THE COMPLEX ERI TRANSFORMATION WITH L802  
        COMPLEX STABILITY WITH L902          
 ********************************************
 1/38=1/1;
 2/12=1,17=6,18=5,40=1/2;
 3/5=7,16=1,25=20,28=1,116=7/1,2,3,20;
 4/5=1/1;
 5/5=100001,16=1,32=2,38=6/2;
 8/6=1,10=90,11=11/1,2;
 9/8=4,13=1/1,2;
 6/7=2,8=2,9=2,10=2,28=1/1;
 99/5=1,9=1/99;
 ----------------------------------------------------------------------
 hf stability analysis of h10 triangular lattice, y= 2.2086216254199424
  alpha= 83.250000000000000
 ----------------------------------------------------------------------
 Symbolic Z-Matrix:
 Charge =  0 Multiplicity = 1
 H
 H                    1     2.22404 
 H                    1     2.22404  2     13.5 
 H                    2     2.22404  1     166.5    3     0.       0
 H                    3     2.22404  1     180.     2     0.       0
 H                    4     2.22404  2     180.     1     0.       0
 H                    5     2.22404  3     180.     2     0.       0
 H                    6     2.22404  4     180.     1     0.       0
 H                    7     2.22404  5     180.     2     0.       0
 H                    8     2.22404  6     180.     1     0.       0
 
                          Input orientation:                          
 ---------------------------------------------------------------------
 Center     Atomic      Atomic             Coordinates (Angstroms)
 Number     Number       Type             X           Y           Z
 ---------------------------------------------------------------------
      1          1           0        0.000000    0.000000    0.000000
      2          1           0        0.000000    0.000000    2.224038
      3          1           0        0.519191    0.000000    2.162587
      4          1           0        0.519191    0.000000    4.386625
      5          1           0        1.038383    0.000000    4.325175
      6          1           0        1.038383    0.000000    6.549212
      7          1           0        1.557574    0.000000    6.487762
      8          1           0        1.557574    0.000000    8.711799
      9          1           0        2.076765    0.000000    8.650349
     10          1           0        2.076765    0.000000   10.874387
 ---------------------------------------------------------------------
                    Distance matrix (angstroms):
                    1          2          3          4          5
     1  H    0.000000
     2  H    2.224038   0.000000
     3  H    2.224038   0.522815   0.000000
     4  H    4.417243   2.224038   2.224038   0.000000
     5  H    4.448075   2.343718   2.224038   0.522815   0.000000
     6  H    6.631019   4.448075   4.417243   2.224038   2.224038
     7  H    6.672113   4.539315   4.448075   2.343718   2.224038
     8  H    8.849943   6.672113   6.631019   4.448075   4.417243
     9  H    8.896151   6.753550   6.672113   4.539315   4.448075
    10  H   11.070919   8.896151   8.849943   6.672113   6.631019
                    6          7          8          9         10
     6  H    0.000000
     7  H    0.522815   0.000000
     8  H    2.224038   2.224038   0.000000
     9  H    2.343718   2.224038   0.522815   0.000000
    10  H    4.448075   4.417243   2.224038   2.224038   0.000000
 Stoichiometry    H10
 Framework group  C2H[SGH(H10)]
 Deg. of freedom     9
 Full point group                 C2H     NOp   4
 Largest Abelian subgroup         C2H     NOp   4
 Largest concise Abelian subgroup C2      NOp   2
                         Standard orientation:                         
 ---------------------------------------------------------------------
 Center     Atomic      Atomic             Coordinates (Angstroms)
 Number     Number       Type             X           Y           Z
 ---------------------------------------------------------------------
      1          1           0        1.038383    5.437193    0.000000
      2          1           0        1.038383    3.213156    0.000000
      3          1           0        0.519191    3.274606    0.000000
      4          1           0        0.519191    1.050568    0.000000
      5          1           0        0.000000    1.112019    0.000000
      6          1           0        0.000000   -1.112019    0.000000
      7          1           0       -0.519191   -1.050568    0.000000
      8          1           0       -0.519191   -3.274606    0.000000
      9          1           0       -1.038383   -3.213156    0.000000
     10          1           0       -1.038383   -5.437193    0.000000
 ---------------------------------------------------------------------
 Rotational constants (GHZ):    832.5937701      4.5302474      4.5057312
 General basis read from cards:  (5D, 7F)
 There are     5 symmetry adapted cartesian basis functions of AG  symmetry.
 There are     0 symmetry adapted cartesian basis functions of BG  symmetry.
 There are     0 symmetry adapted cartesian basis functions of AU  symmetry.
 There are     5 symmetry adapted cartesian basis functions of BU  symmetry.
 There are     5 symmetry adapted basis functions of AG  symmetry.
 There are     0 symmetry adapted basis functions of BG  symmetry.
 There are     0 symmetry adapted basis functions of AU  symmetry.
 There are     5 symmetry adapted basis functions of BU  symmetry.
    10 basis functions,   100 primitive gaussians,    10 cartesian basis functions
     5 alpha electrons        5 beta electrons
       nuclear repulsion energy        10.1667100431 Hartrees.
 NAtoms=   10 NActive=   10 NUniq=    5 SFac= 4.00D+00 NAtFMM=   60 NAOKFM=F Big=F
 Integral buffers will be    131072 words long.
 Regular integral format.
 Two-electron integral symmetry is turned off.
 One-electron integrals computed using PRISM.
 NBasis=    10 RedAO= T EigKep=  1.20D-01  NBF=     5     0     0     5
 NBsUse=    10 1.00D-06 EigRej= -1.00D+00 NBFU=     5     0     0     5
 IOp(28)                       1
                        1                       0
                        2                       1
                        3                       1
                        4                      20
                        5                       0
                        6                       0
                        7                      10
                        8                       1
                        9                       4
                       10                       0
                       11              1073741824
                       12                      20
                       13                       2
                       14                  131070
                       15                       1
                       16                       1
                       17                  131073
                       18                       0
                       19                       0
                       20                       0
                       21                       2
                       22                  131070
                       23                       0
                       24                       0
                       25                       0
                       26                       0
                       27                   65535
                       28                       2
                       29                  131072
                       30                       0
 IHMeth                       1
 ib3: ISMode =                        0                       4
 Enter DskPsm, NBasis=  10 NBas6D=  10 NShell=  10 IDoSP=4.
 Out2e will use a cutoff of  1.00D-10
 FoFCou: FMM=F IPFlag=           0 FMFlag=           0 FMFlg1=           0
         NFxFlg=           0 DoJE=F BraDBF=F KetDBF=F FulRan=T
         wScrn=  0.000000 ICntrl=     600 IOpCl=  9 I1Cent=           0 NGrid=           0
         NMat0=    0 NMatS0=      0 NMatT0=    0 NMatD0=    0 NMtDS0=    0 NMtDT0=    0
 Symmetry not used in FoFCou.
 Entering PrmDigJobTyp =                      20
 LenSav and NKeep                       0                       0
 Entered Stor2E with KNTT1,2                       2                  131070
 Leave Stor2X
 Entering PrmDigJobTyp =                      20
 LenSav and NKeep                       0                       0
 Entered Stor2E with KNTT1,2                       2                  131056
 Leave Stor2X
 Entering PrmDigJobTyp =                      20
 LenSav and NKeep                       0                       0
 Entered Stor2E with KNTT1,2                       2                  131042
 Leave Stor2X
 Entering PrmDigJobTyp =                      20
 LenSav and NKeep                       0                       0
 Entered Stor2E with KNTT1,2                       2                  131028
 Leave Stor2X
 Entering PrmDigJobTyp =                      20
 LenSav and NKeep                       0                       0
 Entered Stor2E with KNTT1,2                       2                  131014
 Leave Stor2X
 Entering PrmDigJobTyp =                      20
 LenSav and NKeep                       0                       0
 Entered Stor2E with KNTT1,2                       2                  131000
 Leave Stor2X
 Entering PrmDigJobTyp =                      20
 LenSav and NKeep                       0                       0
 Entered Stor2E with KNTT1,2                       2                  130986
 Leave Stor2X
 Entering PrmDigJobTyp =                      20
 LenSav and NKeep                       0                       0
 Entered Stor2E with KNTT1,2                       2                  130972
 Leave Stor2X
 Entering PrmDigJobTyp =                      20
 LenSav and NKeep                       0                       0
 Entered Stor2E with KNTT1,2                       2                  130960
 Leave Stor2X
 Entering PrmDigJobTyp =                      20
 LenSav and NKeep                       0                       0
 Entered Stor2E with KNTT1,2                       2                  130942
 Leave Stor2X
 Entering PrmDigJobTyp =                      20
 LenSav and NKeep                       0                       0
 Entered Stor2E with KNTT1,2                       2                  130924
 Leave Stor2X
 Entering PrmDigJobTyp =                      20
 LenSav and NKeep                       0                       0
 Entered Stor2E with KNTT1,2                       2                  130906
 Leave Stor2X
 Entering PrmDigJobTyp =                      20
 LenSav and NKeep                       0                       0
 Entered Stor2E with KNTT1,2                       2                  130888
 Leave Stor2X
 Entering PrmDigJobTyp =                      20
 LenSav and NKeep                       0                       0
 Entered Stor2E with KNTT1,2                       2                  130870
 Leave Stor2X
 Entering PrmDigJobTyp =                      20
 LenSav and NKeep                       0                       0
 Entered Stor2E with KNTT1,2                       2                  130852
 Leave Stor2X
 Entering PrmDigJobTyp =                      20
 LenSav and NKeep                       0                       0
 Entered Stor2E with KNTT1,2                       2                  130834
 Leave Stor2X
 Entering PrmDigJobTyp =                      20
 LenSav and NKeep                       0                       0
 Entered Stor2E with KNTT1,2                       2                  130816
 Leave Stor2X
 Entering PrmDigJobTyp =                      20
 LenSav and NKeep                       0                       0
 Entered Stor2E with KNTT1,2                       2                  130798
 Leave Stor2X
 Entering PrmDigJobTyp =                      20
 LenSav and NKeep                       0                       0
 Entered Stor2E with KNTT1,2                       2                  130780
 Leave Stor2X
 Entering PrmDigJobTyp =                      20
 LenSav and NKeep                       0                       0
 Entered Stor2E with KNTT1,2                       2                  130762
 Leave Stor2X
 Entering PrmDigJobTyp =                      20
 LenSav and NKeep                       0                       0
 Entered Stor2E with KNTT1,2                       2                  130744
 Leave Stor2X
 Entering PrmDigJobTyp =                      20
 LenSav and NKeep                       0                       0
 Entered Stor2E with KNTT1,2                       2                  130726
 Leave Stor2X
 Entering PrmDigJobTyp =                      20
 LenSav and NKeep                       0                       0
 Entered Stor2E with KNTT1,2                       2                  130708
 Leave Stor2X
 Entering PrmDigJobTyp =                      20
 LenSav and NKeep                       0                       0
 Entered Stor2E with KNTT1,2                       2                  130700
 Leave Stor2X
 Entering PrmDigJobTyp =                      20
 LenSav and NKeep                       0                       0
 Entered Stor2E with KNTT1,2                      10                  130680
 Leave Stor2X
 Entering PrmDigJobTyp =                      20
 LenSav and NKeep                       0                       0
 Entered Stor2E with KNTT1,2                      24                  130666
 Leave Stor2X
 Entering PrmDigJobTyp =                      20
 LenSav and NKeep                       0                       0
 Entered Stor2E with KNTT1,2                      44                  130658
 Leave Stor2X
 Entering PrmDigJobTyp =                      20
 LenSav and NKeep                       0                       0
 Entered Stor2E with KNTT1,2                      62                  130648
 Leave Stor2X
 Entering PrmDigJobTyp =                      20
 LenSav and NKeep                       0                       0
 Entered Stor2E with KNTT1,2                      84                  130642
 Leave Stor2X
 Entering PrmDigJobTyp =                      20
 LenSav and NKeep                       0                       0
 Entered Stor2E with KNTT1,2                     106                  130636
 Leave Stor2X
 Entering PrmDigJobTyp =                      20
 LenSav and NKeep                       0                       0
 Entered Stor2E with KNTT1,2                     114                  130630
 Leave Stor2X
 Entering PrmDigJobTyp =                      20
 LenSav and NKeep                       0                       0
 Entered Stor2E with KNTT1,2                     114                  130616
 Leave Stor2X
 Entering PrmDigJobTyp =                      20
 LenSav and NKeep                       0                       0
 Entered Stor2E with KNTT1,2                     114                  130602
 Leave Stor2X
 Entering PrmDigJobTyp =                      20
 LenSav and NKeep                       0                       0
 Entered Stor2E with KNTT1,2                     114                  130588
 Leave Stor2X
 Entering PrmDigJobTyp =                      20
 LenSav and NKeep                       0                       0
 Entered Stor2E with KNTT1,2                     114                  130574
 Leave Stor2X
 Entering PrmDigJobTyp =                      20
 LenSav and NKeep                       0                       0
 Entered Stor2E with KNTT1,2                     114                  130560
 Leave Stor2X
 Entering PrmDigJobTyp =                      20
 LenSav and NKeep                       0                       0
 Entered Stor2E with KNTT1,2                     114                  130550
 Leave Stor2X
 Entering PrmDigJobTyp =                      20
 LenSav and NKeep                       0                       0
 Entered Stor2E with KNTT1,2                     124                  130540
 Leave Stor2X
 Entering PrmDigJobTyp =                      20
 LenSav and NKeep                       0                       0
 Entered Stor2E with KNTT1,2                     134                  130530
 Leave Stor2X
 Entering PrmDigJobTyp =                      20
 LenSav and NKeep                       0                       0
 Entered Stor2E with KNTT1,2                     152                  130528
 Leave Stor2X
 Entering PrmDigJobTyp =                      20
 LenSav and NKeep                       0                       0
 Entered Stor2E with KNTT1,2                     160                  130516
 Leave Stor2X
 Entering PrmDigJobTyp =                      20
 LenSav and NKeep                       0                       0
 Entered Stor2E with KNTT1,2                     174                  130510
 Leave Stor2X
 Entering PrmDigJobTyp =                      20
 LenSav and NKeep                       0                       0
 Entered Stor2E with KNTT1,2                     174                  130506
 Leave Stor2X
 Entering PrmDigJobTyp =                      20
 LenSav and NKeep                       0                       0
 Entered Stor2E with KNTT1,2                     184                  130500
 Leave Stor2X
 Entering PrmDigJobTyp =                      20
 LenSav and NKeep                       0                       0
 Entered Stor2E with KNTT1,2                     186                  130498
 Leave Stor2X
 Entering PrmDigJobTyp =                      20
 LenSav and NKeep                       0                       0
 Entered Stor2E with KNTT1,2                     186                  130474
 Leave Stor2X
 Entering PrmDigJobTyp =                      20
 LenSav and NKeep                       0                       0
 Entered Stor2E with KNTT1,2                     186                  130450
 Leave Stor2X
 Entering PrmDigJobTyp =                      20
 LenSav and NKeep                       0                       0
 Entered Stor2E with KNTT1,2                     186                  130426
 Leave Stor2X
 Entering PrmDigJobTyp =                      20
 LenSav and NKeep                       0                       0
 Entered Stor2E with KNTT1,2                     186                  130402
 Leave Stor2X
 Entering PrmDigJobTyp =                      20
 LenSav and NKeep                       0                       0
 Entered Stor2E with KNTT1,2                     186                  130378
 Leave Stor2X
 Entering PrmDigJobTyp =                      20
 LenSav and NKeep                       0                       0
 Entered Stor2E with KNTT1,2                     186                  130354
 Leave Stor2X
 Entering PrmDigJobTyp =                      20
 LenSav and NKeep                       0                       0
 Entered Stor2E with KNTT1,2                     186                  130330
 Leave Stor2X
 Entering PrmDigJobTyp =                      20
 LenSav and NKeep                       0                       0
 Entered Stor2E with KNTT1,2                     186                  130306
 Leave Stor2X
 Entering PrmDigJobTyp =                      20
 LenSav and NKeep                       0                       0
 Entered Stor2E with KNTT1,2                     186                  130282
 Leave Stor2X
 Entering PrmDigJobTyp =                      20
 LenSav and NKeep                       0                       0
 Entered Stor2E with KNTT1,2                     186                  130258
 Leave Stor2X
 Entering PrmDigJobTyp =                      20
 LenSav and NKeep                       0                       0
 Entered Stor2E with KNTT1,2                     208                  130240
 Leave Stor2X
 Entering PrmDigJobTyp =                      20
 LenSav and NKeep                       0                       0
 Entered Stor2E with KNTT1,2                     236                  130228
 Leave Stor2X
 Entering PrmDigJobTyp =                      20
 LenSav and NKeep                       0                       0
 Entered Stor2E with KNTT1,2                     258                  130210
 Leave Stor2X
 Entering PrmDigJobTyp =                      20
 LenSav and NKeep                       0                       0
 Entered Stor2E with KNTT1,2                     282                  130194
 Leave Stor2X
 Entering PrmDigJobTyp =                      20
 LenSav and NKeep                       0                       0
 Entered Stor2E with KNTT1,2                     302                  130174
 Leave Stor2X
 Entering PrmDigJobTyp =                      20
 LenSav and NKeep                       0                       0
 Entered Stor2E with KNTT1,2                     328                  130160
 Leave Stor2X
 Entering PrmDigJobTyp =                      20
 LenSav and NKeep                       0                       0
 Entered Stor2E with KNTT1,2                     352                  130144
 Leave Stor2X
 Entering PrmDigJobTyp =                      20
 LenSav and NKeep                       0                       0
 Entered Stor2E with KNTT1,2                     370                  130130
 Leave Stor2X
 Entering PrmDigJobTyp =                      20
 LenSav and NKeep                       0                       0
 Entered Stor2E with KNTT1,2                     388                  130118
 Leave Stor2X
 Entering PrmDigJobTyp =                      20
 LenSav and NKeep                       0                       0
 Entered Stor2E with KNTT1,2                     404                  130104
 Leave Stor2X
 Entering PrmDigJobTyp =                      20
 LenSav and NKeep                       0                       0
 Entered Stor2E with KNTT1,2                     422                  130092
 Leave Stor2X
 Entering PrmDigJobTyp =                      20
 LenSav and NKeep                       0                       0
 Entered Stor2E with KNTT1,2                     426                  130090
 Leave Stor2X
 Entering PrmDigJobTyp =                      20
 LenSav and NKeep                       0                       0
 Entered Stor2E with KNTT1,2                     456                  130064
 Leave Stor2X
 Entering PrmDigJobTyp =                      20
 LenSav and NKeep                       0                       0
 Entered Stor2E with KNTT1,2                     492                  130044
 Leave Stor2X
 Entering PrmDigJobTyp =                      20
 LenSav and NKeep                       0                       0
 Entered Stor2E with KNTT1,2                     522                  130030
 Leave Stor2X
 Entering PrmDigJobTyp =                      20
 LenSav and NKeep                       0                       0
 Entered Stor2E with KNTT1,2                     522                  130012
 Leave Stor2X
 Entering PrmDigJobTyp =                      20
 LenSav and NKeep                       0                       0
 Entered Stor2E with KNTT1,2                     522                  129994
 Leave Stor2X
 Entering PrmDigJobTyp =                      20
 LenSav and NKeep                       0                       0
 Entered Stor2E with KNTT1,2                     522                  129976
 Leave Stor2X
 Entering PrmDigJobTyp =                      20
 LenSav and NKeep                       0                       0
 Entered Stor2E with KNTT1,2                     522                  129970
 Leave Stor2X
 Entering PrmDigJobTyp =                      20
 LenSav and NKeep                       0                       0
 Entered Stor2E with KNTT1,2                     540                  129960
 Leave Stor2X
 Entering PrmDigJobTyp =                      20
 LenSav and NKeep                       0                       0
 Entered Stor2E with KNTT1,2                     556                  129948
 Leave Stor2X
 Entering PrmDigJobTyp =                      20
 LenSav and NKeep                       0                       0
 Entered Stor2E with KNTT1,2                     568                  129938
 Leave Stor2X
 Entering PrmDigJobTyp =                      20
 LenSav and NKeep                       0                       0
 Entered Stor2E with KNTT1,2                     580                  129928
 Leave Stor2X
 Entering PrmDigJobTyp =                      20
 LenSav and NKeep                       0                       0
 Entered Stor2E with KNTT1,2                     580                  129926
 Leave Stor2X
 Entering PrmDigJobTyp =                      20
 LenSav and NKeep                       0                       0
 Entered Stor2E with KNTT1,2                     602                  129908
 Leave Stor2X
 Entering PrmDigJobTyp =                      20
 LenSav and NKeep                       0                       0
 Entered Stor2E with KNTT1,2                     620                  129894
 Leave Stor2X
 Entering PrmDigJobTyp =                      20
 LenSav and NKeep                       0                       0
 Entered Stor2E with KNTT1,2                     626                  129888
 Leave Stor2X
 Entering PrmDigJobTyp =                      20
 LenSav and NKeep                       0                       0
 Entered Stor2E with KNTT1,2                     626                  129858
 Leave Stor2X
 Entering PrmDigJobTyp =                      20
 LenSav and NKeep                       0                       0
 Entered Stor2E with KNTT1,2                     626                  129828
 Leave Stor2X
 Entering PrmDigJobTyp =                      20
 LenSav and NKeep                       0                       0
 Entered Stor2E with KNTT1,2                     626                  129798
 Leave Stor2X
 Entering PrmDigJobTyp =                      20
 LenSav and NKeep                       0                       0
 Entered Stor2E with KNTT1,2                     626                  129768
 Leave Stor2X
 Entering PrmDigJobTyp =                      20
 LenSav and NKeep                       0                       0
 Entered Stor2E with KNTT1,2                     626                  129738
 Leave Stor2X
 Entering PrmDigJobTyp =                      20
 LenSav and NKeep                       0                       0
 Entered Stor2E with KNTT1,2                     626                  129728
 Leave Stor2X
 Entering PrmDigJobTyp =                      20
 LenSav and NKeep                       0                       0
 Entered Stor2E with KNTT1,2                     654                  129708
 Leave Stor2X
 Entering PrmDigJobTyp =                      20
 LenSav and NKeep                       0                       0
 Entered Stor2E with KNTT1,2                     684                  129690
 Leave Stor2X
 Entering PrmDigJobTyp =                      20
 LenSav and NKeep                       0                       0
 Entered Stor2E with KNTT1,2                     714                  129672
 Leave Stor2X
 Entering PrmDigJobTyp =                      20
 LenSav and NKeep                       0                       0
 Entered Stor2E with KNTT1,2                     746                  129656
 Leave Stor2X
 Entering PrmDigJobTyp =                      20
 LenSav and NKeep                       0                       0
 Entered Stor2E with KNTT1,2                     754                  129648
 Leave Stor2X
 Entering PrmDigJobTyp =                      20
 LenSav and NKeep                       0                       0
 Entered Stor2E with KNTT1,2                     776                  129634
 Leave Stor2X
 Entering PrmDigJobTyp =                      20
 LenSav and NKeep                       0                       0
 Entered Stor2E with KNTT1,2                     794                  129624
 Leave Stor2X
 Entering PrmDigJobTyp =                      20
 LenSav and NKeep                       0                       0
 Entered Stor2E with KNTT1,2                     834                  129596
 Leave Stor2X
 Entering PrmDigJobTyp =                      20
 LenSav and NKeep                       0                       0
 Entered Stor2E with KNTT1,2                     882                  129576
 Leave Stor2X
 Entering PrmDigJobTyp =                      20
 LenSav and NKeep                       0                       0
 Entered Stor2E with KNTT1,2                     914                  129552
 Leave Stor2X
 Entering PrmDigJobTyp =                      20
 LenSav and NKeep                       0                       0
 Entered Stor2E with KNTT1,2                     946                  129536
 Leave Stor2X
 Entering PrmDigJobTyp =                      20
 LenSav and NKeep                       0                       0
 Entered Stor2E with KNTT1,2                     990                  129508
 Leave Stor2X
 Entering PrmDigJobTyp =                      20
 LenSav and NKeep                       0                       0
 Entered Stor2E with KNTT1,2                     990                  129460
 Leave Stor2X
 Entering PrmDigJobTyp =                      20
 LenSav and NKeep                       0                       0
 Entered Stor2E with KNTT1,2                     990                  129428
 Leave Stor2X
 Entering PrmDigJobTyp =                      20
 LenSav and NKeep                       0                       0
 Entered Stor2E with KNTT1,2                    1042                  129406
 Leave Stor2X
 Entering PrmDigJobTyp =                      20
 LenSav and NKeep                       0                       0
 Entered Stor2E with KNTT1,2                    1058                  129392
 Leave Stor2X
 Entering PrmDigJobTyp =                      20
 LenSav and NKeep                       0                       0
 Entered Stor2E with KNTT1,2                    1082                  129384
 Leave Stor2X
 Entering PrmDigJobTyp =                      20
 LenSav and NKeep                       0                       0
 Entered Stor2E with KNTT1,2                    1146                  129352
 Leave Stor2X
 Entering PrmDigJobTyp =                      20
 LenSav and NKeep                       0                       0
 Entered Stor2E with KNTT1,2                    1166                  129348
 Leave Stor2X
 Entering PrmDigJobTyp =                      20
 LenSav and NKeep                       0                       0
 Entered Stor2E with KNTT1,2                    1166                  129348
 Leave Stor2X
 Entering PrmDigJobTyp =                      20
 LenSav and NKeep                       0                       0
 Entered Stor2E with KNTT1,2                    1166                  129348
 Leave Stor2X
 Entering PrmDigJobTyp =                      20
 LenSav and NKeep                       0                       0
 Entered Stor2E with KNTT1,2                    1166                  129348
 Leave Stor2X
 Entering PrmDigJobTyp =                      20
 LenSav and NKeep                       0                       0
 Entered Stor2E with KNTT1,2                    1166                  129348
 Leave Stor2X
 Entering PrmDigJobTyp =                      20
 LenSav and NKeep                       0                       0
 Entered Stor2E with KNTT1,2                    1166                  129348
 Leave Stor2X
 Entering PrmDigJobTyp =                      20
 LenSav and NKeep                       0                       0
 Entered Stor2E with KNTT1,2                    1166                  129328
 Leave Stor2X
 Entering PrmDigJobTyp =                      20
 LenSav and NKeep                       0                       0
 Entered Stor2E with KNTT1,2                    1176                  129324
 Leave Stor2X
 Entering PrmDigJobTyp =                      20
 LenSav and NKeep                       0                       0
 Entered Stor2E with KNTT1,2                    1184                  129320
 Leave Stor2X
 Entering PrmDigJobTyp =                      20
 LenSav and NKeep                       0                       0
 Entered Stor2E with KNTT1,2                    1192                  129320
 Leave Stor2X
 Entering PrmDigJobTyp =                      20
 LenSav and NKeep                       0                       0
 Entered Stor2E with KNTT1,2                    1192                  129320
 Leave Stor2X
 Entering PrmDigJobTyp =                      20
 LenSav and NKeep                       0                       0
 Entered Stor2E with KNTT1,2                    1192                  129320
 Leave Stor2X
 Entering PrmDigJobTyp =                      20
 LenSav and NKeep                       0                       0
 Entered Stor2E with KNTT1,2                    1198                  129320
 Leave Stor2X
 In PrSumR
 Called IWRITE
         1473 integrals produced for a total of         1473.
 Initial guess from the checkpoint file:  "h10.chk"
 B after Tr=     0.000000    0.000000    0.000000
         Rot=    0.980875    0.000000    0.000000   -0.194638 Ang= -22.45 deg.
 Initial guess <Sx>= 0.0000 <Sy>= 0.0000 <Sz>= 0.0000 <S**2>= 0.0000 S= 0.0000
 Two-electron integrals will be kept in memory, NGetB=      152788.
 Requested convergence on RMS density matrix=1.00D-08 within 128 cycles.
 Requested convergence on MAX density matrix=1.00D-06.
 Requested convergence on             energy=1.00D-06.
 No special actions if energy rises.
 Density File Not Found. Continue as usual
 SCF Done:  E(GHF) =  -4.62920841212     A.U. after   10 cycles
            NFock= 10  Conv=0.71D-08     -V/T= 1.9806
 <Sx>= 0.0000 <Sy>= 0.0000 <Sz>= 0.0000 <S**2>= 0.0000 S= 0.0000
 <L.S>= 0.000000000000E+00
 Range of M.O.s used for correlation:     1    10
 NBasis=    10 NAE=    10 NBE=     0 NFC=     0 NFV=     0
 NROrb=     20 NOA=    10 NOB=     0 NVA=    10 NVB=     0

 **** Warning!!: The smallest alpha delta epsilon is  0.47794025D-01

 jaja DoHack is true or false? T
 jaja in hckghf.F, NBasis=                      10
 jaja in hckGHF/FixOG, LC =                      800
 jaja in hckGHF/FixOG, IRwC=                      548
 bfr conversion (real):
                 1             2             3             4             5 
      1a -0.206023D-02  0.551129D-03 -0.267618D-03 -0.349831D-02 -0.584713D-03
      1b -0.551129D-03 -0.206023D-02 -0.349831D-02  0.267619D-03 -0.457979D-05
      2a  0.165855D+00 -0.443677D-01  0.227144D-01  0.296922D+00  0.328801D+00
      2b  0.443677D-01  0.165855D+00  0.296922D+00 -0.227144D-01  0.257549D-02
      3a  0.164625D+00 -0.440387D-01  0.227015D-01  0.296754D+00  0.331328D+00
      3b  0.440387D-01  0.164625D+00  0.296754D+00 -0.227015D-01  0.259528D-02
      4a  0.265352D+00 -0.709840D-01  0.138381D-01  0.180892D+00 -0.207968D+00
      4b  0.709840D-01  0.265352D+00  0.180892D+00 -0.138381D-01 -0.162900D-02
      5a  0.264517D+00 -0.707605D-01  0.140870D-01  0.184145D+00 -0.204315D+00
      5b  0.707605D-01  0.264517D+00  0.184145D+00 -0.140870D-01 -0.160039D-02
      6a  0.264517D+00 -0.707605D-01 -0.140870D-01 -0.184145D+00 -0.204315D+00
      6b  0.707605D-01  0.264517D+00 -0.184145D+00  0.140870D-01 -0.160039D-02
      7a  0.265352D+00 -0.709840D-01 -0.138381D-01 -0.180892D+00 -0.207967D+00
      7b  0.709840D-01  0.265352D+00 -0.180892D+00  0.138381D-01 -0.162900D-02
      8a  0.164625D+00 -0.440387D-01 -0.227015D-01 -0.296754D+00  0.331328D+00
      8b  0.440387D-01  0.164625D+00 -0.296754D+00  0.227015D-01  0.259528D-02
      9a  0.165855D+00 -0.443677D-01 -0.227144D-01 -0.296922D+00  0.328801D+00
      9b  0.443677D-01  0.165855D+00 -0.296922D+00  0.227144D-01  0.257549D-02
     10a -0.206023D-02  0.551129D-03  0.267619D-03  0.349831D-02 -0.584713D-03
     10b -0.551129D-03 -0.206023D-02  0.349831D-02 -0.267618D-03 -0.458029D-05
                 6             7             8             9            10 
      1a  0.458028D-05  0.368558D-05  0.188041D-03  0.379528D-01  0.717184D+00
      1b -0.584713D-03  0.188041D-03 -0.368590D-05  0.717184D+00 -0.379527D-01
      2a -0.257549D-02 -0.437829D-02 -0.223373D+00 -0.343232D-02 -0.648596D-01
      2b  0.328801D+00 -0.223373D+00  0.437829D-02 -0.648596D-01  0.343231D-02
      3a -0.259528D-02 -0.443720D-02 -0.226379D+00 -0.340854D-02 -0.644102D-01
      3b  0.331328D+00 -0.226379D+00  0.443720D-02 -0.644102D-01  0.340853D-02
      4a  0.162900D-02  0.718301D-02  0.366466D+00  0.512838D-03  0.969095D-02
      4b -0.207968D+00  0.366466D+00 -0.718301D-02  0.969095D-02 -0.512837D-03
      5a  0.160039D-02  0.719826D-02  0.367244D+00  0.681728D-03  0.128824D-01
      5b -0.204315D+00  0.367244D+00 -0.719826D-02  0.128824D-01 -0.681727D-03
      6a  0.160039D-02 -0.719826D-02 -0.367244D+00 -0.681727D-03 -0.128824D-01
      6b -0.204315D+00 -0.367244D+00  0.719826D-02 -0.128824D-01  0.681728D-03
      7a  0.162900D-02 -0.718301D-02 -0.366466D+00 -0.512836D-03 -0.969095D-02
      7b -0.207967D+00 -0.366466D+00  0.718301D-02 -0.969095D-02  0.512838D-03
      8a -0.259528D-02  0.443721D-02  0.226379D+00  0.340853D-02  0.644102D-01
      8b  0.331328D+00  0.226379D+00 -0.443720D-02  0.644101D-01 -0.340854D-02
      9a -0.257549D-02  0.437829D-02  0.223373D+00  0.343231D-02  0.648596D-01
      9b  0.328801D+00  0.223373D+00 -0.437829D-02  0.648596D-01 -0.343232D-02
     10a  0.457980D-05 -0.368591D-05 -0.188041D-03 -0.379527D-01 -0.717184D+00
     10b -0.584714D-03 -0.188041D-03  0.368559D-05 -0.717184D+00  0.379528D-01
                11            12            13            14            15 
      1a  0.511725D+00  0.503861D+00 -0.866917D-04 -0.277791D-02  0.250746D-04
      1b -0.503861D+00  0.511725D+00 -0.277791D-02  0.866917D-04 -0.225613D-02
      2a -0.465266D-01 -0.458116D-01 -0.209141D-01 -0.670162D+00  0.124384D-01
      2b  0.458116D-01 -0.465266D-01 -0.670162D+00  0.209141D-01 -0.111917D+01
      3a -0.462838D-01 -0.455725D-01  0.213204D-01  0.683181D+00 -0.125649D-01
      3b  0.455725D-01 -0.462837D-01  0.683181D+00 -0.213204D-01  0.113055D+01
      4a  0.485801D-02  0.478336D-02 -0.330778D-01 -0.105993D+01  0.760273D-02
      4b -0.478336D-02  0.485801D-02 -0.105993D+01  0.330778D-01 -0.684071D+00
      5a  0.743481D-02  0.732056D-02  0.331856D-01  0.106339D+01 -0.737374D-02
      5b -0.732056D-02  0.743481D-02  0.106339D+01 -0.331856D-01  0.663466D+00
      6a  0.743481D-02  0.732056D-02 -0.331856D-01 -0.106339D+01 -0.737374D-02
      6b -0.732056D-02  0.743481D-02 -0.106339D+01  0.331856D-01  0.663466D+00
      7a  0.485801D-02  0.478336D-02  0.330778D-01  0.105993D+01  0.760273D-02
      7b -0.478336D-02  0.485801D-02  0.105993D+01 -0.330778D-01 -0.684071D+00
      8a -0.462837D-01 -0.455725D-01 -0.213204D-01 -0.683181D+00 -0.125649D-01
      8b  0.455725D-01 -0.462838D-01 -0.683181D+00  0.213204D-01  0.113055D+01
      9a -0.465266D-01 -0.458116D-01  0.209141D-01  0.670162D+00  0.124384D-01
      9b  0.458116D-01 -0.465266D-01  0.670162D+00 -0.209141D-01 -0.111917D+01
     10a  0.511725D+00  0.503861D+00  0.866917D-04  0.277791D-02  0.250746D-04
     10b -0.503861D+00  0.511725D+00  0.277791D-02 -0.866917D-04 -0.225613D-02
                16            17            18            19            20 
      1a -0.225613D-02 -0.353472D-05 -0.115766D-02  0.277147D-04  0.300667D-02
      1b -0.250746D-04 -0.115766D-02  0.353473D-05  0.300667D-02 -0.277147D-04
      2a -0.111917D+01  0.356684D-02  0.116818D+01 -0.691968D-02 -0.750692D+00
      2b -0.124384D-01  0.116818D+01 -0.356684D-02 -0.750692D+00  0.691968D-02
      3a  0.113055D+01 -0.355000D-02 -0.116266D+01  0.677191D-02  0.734660D+00
      3b  0.125649D-01 -0.116266D+01  0.355000D-02  0.734660D+00 -0.677191D-02
      4a -0.684071D+00 -0.222310D-02 -0.728091D+00  0.114337D-01  0.124040D+01
      4b -0.760273D-02 -0.728091D+00  0.222310D-02  0.124040D+01 -0.114337D-01
      5a  0.663466D+00  0.230139D-02  0.753732D+00 -0.113687D-01 -0.123335D+01
      5b  0.737374D-02  0.753732D+00 -0.230139D-02 -0.123335D+01  0.113687D-01
      6a  0.663466D+00 -0.230139D-02 -0.753732D+00 -0.113687D-01 -0.123335D+01
      6b  0.737374D-02 -0.753732D+00  0.230139D-02 -0.123335D+01  0.113687D-01
      7a -0.684071D+00  0.222310D-02  0.728091D+00  0.114337D-01  0.124040D+01
      7b -0.760273D-02  0.728091D+00 -0.222310D-02  0.124040D+01 -0.114337D-01
      8a  0.113055D+01  0.355000D-02  0.116266D+01  0.677191D-02  0.734660D+00
      8b  0.125649D-01  0.116266D+01 -0.355000D-02  0.734660D+00 -0.677191D-02
      9a -0.111917D+01 -0.356684D-02 -0.116818D+01 -0.691968D-02 -0.750692D+00
      9b -0.124384D-01 -0.116818D+01  0.356684D-02 -0.750692D+00  0.691968D-02
     10a -0.225613D-02  0.353473D-05  0.115766D-02  0.277147D-04  0.300667D-02
     10b -0.250746D-04  0.115766D-02 -0.353472D-05  0.300667D-02 -0.277147D-04
 bfr conversion (imaginary):
                 1             2             3             4             5 
      1a  0.000000D+00  0.000000D+00  0.000000D+00  0.000000D+00  0.000000D+00
      1b  0.000000D+00  0.000000D+00  0.000000D+00  0.000000D+00  0.000000D+00
      2a  0.000000D+00  0.000000D+00  0.000000D+00  0.000000D+00  0.000000D+00
      2b  0.000000D+00  0.000000D+00  0.000000D+00  0.000000D+00  0.000000D+00
      3a  0.000000D+00  0.000000D+00  0.000000D+00  0.000000D+00  0.000000D+00
      3b  0.000000D+00  0.000000D+00  0.000000D+00  0.000000D+00  0.000000D+00
      4a  0.000000D+00  0.000000D+00  0.000000D+00  0.000000D+00  0.000000D+00
      4b  0.000000D+00  0.000000D+00  0.000000D+00  0.000000D+00  0.000000D+00
      5a  0.000000D+00  0.000000D+00  0.000000D+00  0.000000D+00  0.000000D+00
      5b  0.000000D+00  0.000000D+00  0.000000D+00  0.000000D+00  0.000000D+00
      6a  0.000000D+00  0.000000D+00  0.000000D+00  0.000000D+00  0.000000D+00
      6b  0.000000D+00  0.000000D+00  0.000000D+00  0.000000D+00  0.000000D+00
      7a  0.000000D+00  0.000000D+00  0.000000D+00  0.000000D+00  0.000000D+00
      7b  0.000000D+00  0.000000D+00  0.000000D+00  0.000000D+00  0.000000D+00
      8a  0.000000D+00  0.000000D+00  0.000000D+00  0.000000D+00  0.000000D+00
      8b  0.000000D+00  0.000000D+00  0.000000D+00  0.000000D+00  0.000000D+00
      9a  0.000000D+00  0.000000D+00  0.000000D+00  0.000000D+00  0.000000D+00
      9b  0.000000D+00  0.000000D+00  0.000000D+00  0.000000D+00  0.000000D+00
     10a  0.000000D+00  0.000000D+00  0.000000D+00  0.000000D+00  0.000000D+00
     10b  0.000000D+00  0.000000D+00  0.000000D+00  0.000000D+00  0.000000D+00
                 6             7             8             9            10 
      1a  0.000000D+00  0.000000D+00  0.000000D+00  0.000000D+00  0.000000D+00
      1b  0.000000D+00  0.000000D+00  0.000000D+00  0.000000D+00  0.000000D+00
      2a  0.000000D+00  0.000000D+00  0.000000D+00  0.000000D+00  0.000000D+00
      2b  0.000000D+00  0.000000D+00  0.000000D+00  0.000000D+00  0.000000D+00
      3a  0.000000D+00  0.000000D+00  0.000000D+00  0.000000D+00  0.000000D+00
      3b  0.000000D+00  0.000000D+00  0.000000D+00  0.000000D+00  0.000000D+00
      4a  0.000000D+00  0.000000D+00  0.000000D+00  0.000000D+00  0.000000D+00
      4b  0.000000D+00  0.000000D+00  0.000000D+00  0.000000D+00  0.000000D+00
      5a  0.000000D+00  0.000000D+00  0.000000D+00  0.000000D+00  0.000000D+00
      5b  0.000000D+00  0.000000D+00  0.000000D+00  0.000000D+00  0.000000D+00
      6a  0.000000D+00  0.000000D+00  0.000000D+00  0.000000D+00  0.000000D+00
      6b  0.000000D+00  0.000000D+00  0.000000D+00  0.000000D+00  0.000000D+00
      7a  0.000000D+00  0.000000D+00  0.000000D+00  0.000000D+00  0.000000D+00
      7b  0.000000D+00  0.000000D+00  0.000000D+00  0.000000D+00  0.000000D+00
      8a  0.000000D+00  0.000000D+00  0.000000D+00  0.000000D+00  0.000000D+00
      8b  0.000000D+00  0.000000D+00  0.000000D+00  0.000000D+00  0.000000D+00
      9a  0.000000D+00  0.000000D+00  0.000000D+00  0.000000D+00  0.000000D+00
      9b  0.000000D+00  0.000000D+00  0.000000D+00  0.000000D+00  0.000000D+00
     10a  0.000000D+00  0.000000D+00  0.000000D+00  0.000000D+00  0.000000D+00
     10b  0.000000D+00  0.000000D+00  0.000000D+00  0.000000D+00  0.000000D+00
                11            12            13            14            15 
      1a  0.000000D+00  0.000000D+00  0.000000D+00  0.000000D+00  0.000000D+00
      1b  0.000000D+00  0.000000D+00  0.000000D+00  0.000000D+00  0.000000D+00
      2a  0.000000D+00  0.000000D+00  0.000000D+00  0.000000D+00  0.000000D+00
      2b  0.000000D+00  0.000000D+00  0.000000D+00  0.000000D+00  0.000000D+00
      3a  0.000000D+00  0.000000D+00  0.000000D+00  0.000000D+00  0.000000D+00
      3b  0.000000D+00  0.000000D+00  0.000000D+00  0.000000D+00  0.000000D+00
      4a  0.000000D+00  0.000000D+00  0.000000D+00  0.000000D+00  0.000000D+00
      4b  0.000000D+00  0.000000D+00  0.000000D+00  0.000000D+00  0.000000D+00
      5a  0.000000D+00  0.000000D+00  0.000000D+00  0.000000D+00  0.000000D+00
      5b  0.000000D+00  0.000000D+00  0.000000D+00  0.000000D+00  0.000000D+00
      6a  0.000000D+00  0.000000D+00  0.000000D+00  0.000000D+00  0.000000D+00
      6b  0.000000D+00  0.000000D+00  0.000000D+00  0.000000D+00  0.000000D+00
      7a  0.000000D+00  0.000000D+00  0.000000D+00  0.000000D+00  0.000000D+00
      7b  0.000000D+00  0.000000D+00  0.000000D+00  0.000000D+00  0.000000D+00
      8a  0.000000D+00  0.000000D+00  0.000000D+00  0.000000D+00  0.000000D+00
      8b  0.000000D+00  0.000000D+00  0.000000D+00  0.000000D+00  0.000000D+00
      9a  0.000000D+00  0.000000D+00  0.000000D+00  0.000000D+00  0.000000D+00
      9b  0.000000D+00  0.000000D+00  0.000000D+00  0.000000D+00  0.000000D+00
     10a  0.000000D+00  0.000000D+00  0.000000D+00  0.000000D+00  0.000000D+00
     10b  0.000000D+00  0.000000D+00  0.000000D+00  0.000000D+00  0.000000D+00
                16            17            18            19            20 
      1a  0.000000D+00  0.000000D+00  0.000000D+00  0.000000D+00  0.000000D+00
      1b  0.000000D+00  0.000000D+00  0.000000D+00  0.000000D+00  0.000000D+00
      2a  0.000000D+00  0.000000D+00  0.000000D+00  0.000000D+00  0.000000D+00
      2b  0.000000D+00  0.000000D+00  0.000000D+00  0.000000D+00  0.000000D+00
      3a  0.000000D+00  0.000000D+00  0.000000D+00  0.000000D+00  0.000000D+00
      3b  0.000000D+00  0.000000D+00  0.000000D+00  0.000000D+00  0.000000D+00
      4a  0.000000D+00  0.000000D+00  0.000000D+00  0.000000D+00  0.000000D+00
      4b  0.000000D+00  0.000000D+00  0.000000D+00  0.000000D+00  0.000000D+00
      5a  0.000000D+00  0.000000D+00  0.000000D+00  0.000000D+00  0.000000D+00
      5b  0.000000D+00  0.000000D+00  0.000000D+00  0.000000D+00  0.000000D+00
      6a  0.000000D+00  0.000000D+00  0.000000D+00  0.000000D+00  0.000000D+00
      6b  0.000000D+00  0.000000D+00  0.000000D+00  0.000000D+00  0.000000D+00
      7a  0.000000D+00  0.000000D+00  0.000000D+00  0.000000D+00  0.000000D+00
      7b  0.000000D+00  0.000000D+00  0.000000D+00  0.000000D+00  0.000000D+00
      8a  0.000000D+00  0.000000D+00  0.000000D+00  0.000000D+00  0.000000D+00
      8b  0.000000D+00  0.000000D+00  0.000000D+00  0.000000D+00  0.000000D+00
      9a  0.000000D+00  0.000000D+00  0.000000D+00  0.000000D+00  0.000000D+00
      9b  0.000000D+00  0.000000D+00  0.000000D+00  0.000000D+00  0.000000D+00
     10a  0.000000D+00  0.000000D+00  0.000000D+00  0.000000D+00  0.000000D+00
     10b  0.000000D+00  0.000000D+00  0.000000D+00  0.000000D+00  0.000000D+00
 afr conversion (alpha, real):
                 1             2             3             4             5 
      1  -0.206023D-02  0.551129D-03 -0.267618D-03 -0.349831D-02 -0.584713D-03
      2   0.165855D+00 -0.443677D-01  0.227144D-01  0.296922D+00  0.328801D+00
      3   0.164625D+00 -0.440387D-01  0.227015D-01  0.296754D+00  0.331328D+00
      4   0.265352D+00 -0.709840D-01  0.138381D-01  0.180892D+00 -0.207968D+00
      5   0.264517D+00 -0.707605D-01  0.140870D-01  0.184145D+00 -0.204315D+00
      6   0.264517D+00 -0.707605D-01 -0.140870D-01 -0.184145D+00 -0.204315D+00
      7   0.265352D+00 -0.709840D-01 -0.138381D-01 -0.180892D+00 -0.207967D+00
      8   0.164625D+00 -0.440387D-01 -0.227015D-01 -0.296754D+00  0.331328D+00
      9   0.165855D+00 -0.443677D-01 -0.227144D-01 -0.296922D+00  0.328801D+00
     10  -0.206023D-02  0.551129D-03  0.267619D-03  0.349831D-02 -0.584713D-03
                 6             7             8             9            10 
      1   0.458028D-05  0.368558D-05  0.188041D-03  0.379528D-01  0.717184D+00
      2  -0.257549D-02 -0.437829D-02 -0.223373D+00 -0.343232D-02 -0.648596D-01
      3  -0.259528D-02 -0.443720D-02 -0.226379D+00 -0.340854D-02 -0.644102D-01
      4   0.162900D-02  0.718301D-02  0.366466D+00  0.512838D-03  0.969095D-02
      5   0.160039D-02  0.719826D-02  0.367244D+00  0.681728D-03  0.128824D-01
      6   0.160039D-02 -0.719826D-02 -0.367244D+00 -0.681727D-03 -0.128824D-01
      7   0.162900D-02 -0.718301D-02 -0.366466D+00 -0.512836D-03 -0.969095D-02
      8  -0.259528D-02  0.443721D-02  0.226379D+00  0.340853D-02  0.644102D-01
      9  -0.257549D-02  0.437829D-02  0.223373D+00  0.343231D-02  0.648596D-01
     10   0.457980D-05 -0.368591D-05 -0.188041D-03 -0.379527D-01 -0.717184D+00
                11            12            13            14            15 
      1   0.511725D+00  0.503861D+00 -0.866917D-04 -0.277791D-02  0.250746D-04
      2  -0.465266D-01 -0.458116D-01 -0.209141D-01 -0.670162D+00  0.124384D-01
      3  -0.462838D-01 -0.455725D-01  0.213204D-01  0.683181D+00 -0.125649D-01
      4   0.485801D-02  0.478336D-02 -0.330778D-01 -0.105993D+01  0.760273D-02
      5   0.743481D-02  0.732056D-02  0.331856D-01  0.106339D+01 -0.737374D-02
      6   0.743481D-02  0.732056D-02 -0.331856D-01 -0.106339D+01 -0.737374D-02
      7   0.485801D-02  0.478336D-02  0.330778D-01  0.105993D+01  0.760273D-02
      8  -0.462837D-01 -0.455725D-01 -0.213204D-01 -0.683181D+00 -0.125649D-01
      9  -0.465266D-01 -0.458116D-01  0.209141D-01  0.670162D+00  0.124384D-01
     10   0.511725D+00  0.503861D+00  0.866917D-04  0.277791D-02  0.250746D-04
                16            17            18            19            20 
      1  -0.225613D-02 -0.353472D-05 -0.115766D-02  0.277147D-04  0.300667D-02
      2  -0.111917D+01  0.356684D-02  0.116818D+01 -0.691968D-02 -0.750692D+00
      3   0.113055D+01 -0.355000D-02 -0.116266D+01  0.677191D-02  0.734660D+00
      4  -0.684071D+00 -0.222310D-02 -0.728091D+00  0.114337D-01  0.124040D+01
      5   0.663466D+00  0.230139D-02  0.753732D+00 -0.113687D-01 -0.123335D+01
      6   0.663466D+00 -0.230139D-02 -0.753732D+00 -0.113687D-01 -0.123335D+01
      7  -0.684071D+00  0.222310D-02  0.728091D+00  0.114337D-01  0.124040D+01
      8   0.113055D+01  0.355000D-02  0.116266D+01  0.677191D-02  0.734660D+00
      9  -0.111917D+01 -0.356684D-02 -0.116818D+01 -0.691968D-02 -0.750692D+00
     10  -0.225613D-02  0.353473D-05  0.115766D-02  0.277147D-04  0.300667D-02
 afr conversion (alpha, imaginary):
                 1             2             3             4             5 
      1   0.000000D+00  0.000000D+00  0.000000D+00  0.000000D+00  0.000000D+00
      2   0.000000D+00  0.000000D+00  0.000000D+00  0.000000D+00  0.000000D+00
      3   0.000000D+00  0.000000D+00  0.000000D+00  0.000000D+00  0.000000D+00
      4   0.000000D+00  0.000000D+00  0.000000D+00  0.000000D+00  0.000000D+00
      5   0.000000D+00  0.000000D+00  0.000000D+00  0.000000D+00  0.000000D+00
      6   0.000000D+00  0.000000D+00  0.000000D+00  0.000000D+00  0.000000D+00
      7   0.000000D+00  0.000000D+00  0.000000D+00  0.000000D+00  0.000000D+00
      8   0.000000D+00  0.000000D+00  0.000000D+00  0.000000D+00  0.000000D+00
      9   0.000000D+00  0.000000D+00  0.000000D+00  0.000000D+00  0.000000D+00
     10   0.000000D+00  0.000000D+00  0.000000D+00  0.000000D+00  0.000000D+00
                 6             7             8             9            10 
      1   0.000000D+00  0.000000D+00  0.000000D+00  0.000000D+00  0.000000D+00
      2   0.000000D+00  0.000000D+00  0.000000D+00  0.000000D+00  0.000000D+00
      3   0.000000D+00  0.000000D+00  0.000000D+00  0.000000D+00  0.000000D+00
      4   0.000000D+00  0.000000D+00  0.000000D+00  0.000000D+00  0.000000D+00
      5   0.000000D+00  0.000000D+00  0.000000D+00  0.000000D+00  0.000000D+00
      6   0.000000D+00  0.000000D+00  0.000000D+00  0.000000D+00  0.000000D+00
      7   0.000000D+00  0.000000D+00  0.000000D+00  0.000000D+00  0.000000D+00
      8   0.000000D+00  0.000000D+00  0.000000D+00  0.000000D+00  0.000000D+00
      9   0.000000D+00  0.000000D+00  0.000000D+00  0.000000D+00  0.000000D+00
     10   0.000000D+00  0.000000D+00  0.000000D+00  0.000000D+00  0.000000D+00
                11            12            13            14            15 
      1   0.000000D+00  0.000000D+00  0.000000D+00  0.000000D+00  0.000000D+00
      2   0.000000D+00  0.000000D+00  0.000000D+00  0.000000D+00  0.000000D+00
      3   0.000000D+00  0.000000D+00  0.000000D+00  0.000000D+00  0.000000D+00
      4   0.000000D+00  0.000000D+00  0.000000D+00  0.000000D+00  0.000000D+00
      5   0.000000D+00  0.000000D+00  0.000000D+00  0.000000D+00  0.000000D+00
      6   0.000000D+00  0.000000D+00  0.000000D+00  0.000000D+00  0.000000D+00
      7   0.000000D+00  0.000000D+00  0.000000D+00  0.000000D+00  0.000000D+00
      8   0.000000D+00  0.000000D+00  0.000000D+00  0.000000D+00  0.000000D+00
      9   0.000000D+00  0.000000D+00  0.000000D+00  0.000000D+00  0.000000D+00
     10   0.000000D+00  0.000000D+00  0.000000D+00  0.000000D+00  0.000000D+00
                16            17            18            19            20 
      1   0.000000D+00  0.000000D+00  0.000000D+00  0.000000D+00  0.000000D+00
      2   0.000000D+00  0.000000D+00  0.000000D+00  0.000000D+00  0.000000D+00
      3   0.000000D+00  0.000000D+00  0.000000D+00  0.000000D+00  0.000000D+00
      4   0.000000D+00  0.000000D+00  0.000000D+00  0.000000D+00  0.000000D+00
      5   0.000000D+00  0.000000D+00  0.000000D+00  0.000000D+00  0.000000D+00
      6   0.000000D+00  0.000000D+00  0.000000D+00  0.000000D+00  0.000000D+00
      7   0.000000D+00  0.000000D+00  0.000000D+00  0.000000D+00  0.000000D+00
      8   0.000000D+00  0.000000D+00  0.000000D+00  0.000000D+00  0.000000D+00
      9   0.000000D+00  0.000000D+00  0.000000D+00  0.000000D+00  0.000000D+00
     10   0.000000D+00  0.000000D+00  0.000000D+00  0.000000D+00  0.000000D+00
 afr conversion (beta, real):
                 1             2             3             4             5 
      1  -0.551129D-03 -0.206023D-02 -0.349831D-02  0.267619D-03 -0.457979D-05
      2   0.443677D-01  0.165855D+00  0.296922D+00 -0.227144D-01  0.257549D-02
      3   0.440387D-01  0.164625D+00  0.296754D+00 -0.227015D-01  0.259528D-02
      4   0.709840D-01  0.265352D+00  0.180892D+00 -0.138381D-01 -0.162900D-02
      5   0.707605D-01  0.264517D+00  0.184145D+00 -0.140870D-01 -0.160039D-02
      6   0.707605D-01  0.264517D+00 -0.184145D+00  0.140870D-01 -0.160039D-02
      7   0.709840D-01  0.265352D+00 -0.180892D+00  0.138381D-01 -0.162900D-02
      8   0.440387D-01  0.164625D+00 -0.296754D+00  0.227015D-01  0.259528D-02
      9   0.443677D-01  0.165855D+00 -0.296922D+00  0.227144D-01  0.257549D-02
     10  -0.551129D-03 -0.206023D-02  0.349831D-02 -0.267618D-03 -0.458029D-05
                 6             7             8             9            10 
      1  -0.584713D-03  0.188041D-03 -0.368590D-05  0.717184D+00 -0.379527D-01
      2   0.328801D+00 -0.223373D+00  0.437829D-02 -0.648596D-01  0.343231D-02
      3   0.331328D+00 -0.226379D+00  0.443720D-02 -0.644102D-01  0.340853D-02
      4  -0.207968D+00  0.366466D+00 -0.718301D-02  0.969095D-02 -0.512837D-03
      5  -0.204315D+00  0.367244D+00 -0.719826D-02  0.128824D-01 -0.681727D-03
      6  -0.204315D+00 -0.367244D+00  0.719826D-02 -0.128824D-01  0.681728D-03
      7  -0.207967D+00 -0.366466D+00  0.718301D-02 -0.969095D-02  0.512838D-03
      8   0.331328D+00  0.226379D+00 -0.443720D-02  0.644101D-01 -0.340854D-02
      9   0.328801D+00  0.223373D+00 -0.437829D-02  0.648596D-01 -0.343232D-02
     10  -0.584714D-03 -0.188041D-03  0.368559D-05 -0.717184D+00  0.379528D-01
                11            12            13            14            15 
      1  -0.503861D+00  0.511725D+00 -0.277791D-02  0.866917D-04 -0.225613D-02
      2   0.458116D-01 -0.465266D-01 -0.670162D+00  0.209141D-01 -0.111917D+01
      3   0.455725D-01 -0.462837D-01  0.683181D+00 -0.213204D-01  0.113055D+01
      4  -0.478336D-02  0.485801D-02 -0.105993D+01  0.330778D-01 -0.684071D+00
      5  -0.732056D-02  0.743481D-02  0.106339D+01 -0.331856D-01  0.663466D+00
      6  -0.732056D-02  0.743481D-02 -0.106339D+01  0.331856D-01  0.663466D+00
      7  -0.478336D-02  0.485801D-02  0.105993D+01 -0.330778D-01 -0.684071D+00
      8   0.455725D-01 -0.462838D-01 -0.683181D+00  0.213204D-01  0.113055D+01
      9   0.458116D-01 -0.465266D-01  0.670162D+00 -0.209141D-01 -0.111917D+01
     10  -0.503861D+00  0.511725D+00  0.277791D-02 -0.866917D-04 -0.225613D-02
                16            17            18            19            20 
      1  -0.250746D-04 -0.115766D-02  0.353473D-05  0.300667D-02 -0.277147D-04
      2  -0.124384D-01  0.116818D+01 -0.356684D-02 -0.750692D+00  0.691968D-02
      3   0.125649D-01 -0.116266D+01  0.355000D-02  0.734660D+00 -0.677191D-02
      4  -0.760273D-02 -0.728091D+00  0.222310D-02  0.124040D+01 -0.114337D-01
      5   0.737374D-02  0.753732D+00 -0.230139D-02 -0.123335D+01  0.113687D-01
      6   0.737374D-02 -0.753732D+00  0.230139D-02 -0.123335D+01  0.113687D-01
      7  -0.760273D-02  0.728091D+00 -0.222310D-02  0.124040D+01 -0.114337D-01
      8   0.125649D-01  0.116266D+01 -0.355000D-02  0.734660D+00 -0.677191D-02
      9  -0.124384D-01 -0.116818D+01  0.356684D-02 -0.750692D+00  0.691968D-02
     10  -0.250746D-04  0.115766D-02 -0.353472D-05  0.300667D-02 -0.277147D-04
 afr conversion (beta, imaginary):
                 1             2             3             4             5 
      1   0.000000D+00  0.000000D+00  0.000000D+00  0.000000D+00  0.000000D+00
      2   0.000000D+00  0.000000D+00  0.000000D+00  0.000000D+00  0.000000D+00
      3   0.000000D+00  0.000000D+00  0.000000D+00  0.000000D+00  0.000000D+00
      4   0.000000D+00  0.000000D+00  0.000000D+00  0.000000D+00  0.000000D+00
      5   0.000000D+00  0.000000D+00  0.000000D+00  0.000000D+00  0.000000D+00
      6   0.000000D+00  0.000000D+00  0.000000D+00  0.000000D+00  0.000000D+00
      7   0.000000D+00  0.000000D+00  0.000000D+00  0.000000D+00  0.000000D+00
      8   0.000000D+00  0.000000D+00  0.000000D+00  0.000000D+00  0.000000D+00
      9   0.000000D+00  0.000000D+00  0.000000D+00  0.000000D+00  0.000000D+00
     10   0.000000D+00  0.000000D+00  0.000000D+00  0.000000D+00  0.000000D+00
                 6             7             8             9            10 
      1   0.000000D+00  0.000000D+00  0.000000D+00  0.000000D+00  0.000000D+00
      2   0.000000D+00  0.000000D+00  0.000000D+00  0.000000D+00  0.000000D+00
      3   0.000000D+00  0.000000D+00  0.000000D+00  0.000000D+00  0.000000D+00
      4   0.000000D+00  0.000000D+00  0.000000D+00  0.000000D+00  0.000000D+00
      5   0.000000D+00  0.000000D+00  0.000000D+00  0.000000D+00  0.000000D+00
      6   0.000000D+00  0.000000D+00  0.000000D+00  0.000000D+00  0.000000D+00
      7   0.000000D+00  0.000000D+00  0.000000D+00  0.000000D+00  0.000000D+00
      8   0.000000D+00  0.000000D+00  0.000000D+00  0.000000D+00  0.000000D+00
      9   0.000000D+00  0.000000D+00  0.000000D+00  0.000000D+00  0.000000D+00
     10   0.000000D+00  0.000000D+00  0.000000D+00  0.000000D+00  0.000000D+00
                11            12            13            14            15 
      1   0.000000D+00  0.000000D+00  0.000000D+00  0.000000D+00  0.000000D+00
      2   0.000000D+00  0.000000D+00  0.000000D+00  0.000000D+00  0.000000D+00
      3   0.000000D+00  0.000000D+00  0.000000D+00  0.000000D+00  0.000000D+00
      4   0.000000D+00  0.000000D+00  0.000000D+00  0.000000D+00  0.000000D+00
      5   0.000000D+00  0.000000D+00  0.000000D+00  0.000000D+00  0.000000D+00
      6   0.000000D+00  0.000000D+00  0.000000D+00  0.000000D+00  0.000000D+00
      7   0.000000D+00  0.000000D+00  0.000000D+00  0.000000D+00  0.000000D+00
      8   0.000000D+00  0.000000D+00  0.000000D+00  0.000000D+00  0.000000D+00
      9   0.000000D+00  0.000000D+00  0.000000D+00  0.000000D+00  0.000000D+00
     10   0.000000D+00  0.000000D+00  0.000000D+00  0.000000D+00  0.000000D+00
                16            17            18            19            20 
      1   0.000000D+00  0.000000D+00  0.000000D+00  0.000000D+00  0.000000D+00
      2   0.000000D+00  0.000000D+00  0.000000D+00  0.000000D+00  0.000000D+00
      3   0.000000D+00  0.000000D+00  0.000000D+00  0.000000D+00  0.000000D+00
      4   0.000000D+00  0.000000D+00  0.000000D+00  0.000000D+00  0.000000D+00
      5   0.000000D+00  0.000000D+00  0.000000D+00  0.000000D+00  0.000000D+00
      6   0.000000D+00  0.000000D+00  0.000000D+00  0.000000D+00  0.000000D+00
      7   0.000000D+00  0.000000D+00  0.000000D+00  0.000000D+00  0.000000D+00
      8   0.000000D+00  0.000000D+00  0.000000D+00  0.000000D+00  0.000000D+00
      9   0.000000D+00  0.000000D+00  0.000000D+00  0.000000D+00  0.000000D+00
     10   0.000000D+00  0.000000D+00  0.000000D+00  0.000000D+00  0.000000D+00
 jaja in hckghf.F, ISPECT =                     548
Spin block MO for GHF transformation
NOA =   10   NOB =   10
NVA =   10   NVB =   10
 NOAvA in Hack                     100
 jaja in tranN3.F, ISPECT =                     548
 in l802/tranN3.F, LSPECT =                      800
 NMat, NBtSiz,MDV                    8372                   16000
                133954722
 TranN3:  NGot= 134217728 NBasic=    263006 NTTT=       550 NMat=      8372.
 Defined bucket =                      51                   10000
 Defined bucket =                      52                   10000
 Defined bucket =                      53                   10000
 Defined bucket =                      55                   10000
 Defined bucket =                      57                   10000
 Defined bucket =                      58                   10000
 Defined bucket =                      60                   10000
 Defined bucket =                      72                   10000
 Defined bucket =                      73                   10000
 Defined bucket =                      74                   10000
 Defined bucket =                      75                   10000
 Defined bucket =                      76                   10000
 (IK/LS) integrals will be saved in memory.
 TrCghf made   2 passes through the AO integrals.
 jaja DoHack is true or false? F
 jaja in hckghf.F, NBasis=                      10
 jaja in hckGHF/FixOG, LC =                      800
 jaja in hckGHF/FixOG, IRwC=                      548
 bfr conversion (alpha, real):
                 1             2             3             4             5 
      1  -0.206023D-02  0.551129D-03 -0.267618D-03 -0.349831D-02 -0.584713D-03
      2   0.165855D+00 -0.443677D-01  0.227144D-01  0.296922D+00  0.328801D+00
      3   0.164625D+00 -0.440387D-01  0.227015D-01  0.296754D+00  0.331328D+00
      4   0.265352D+00 -0.709840D-01  0.138381D-01  0.180892D+00 -0.207968D+00
      5   0.264517D+00 -0.707605D-01  0.140870D-01  0.184145D+00 -0.204315D+00
      6   0.264517D+00 -0.707605D-01 -0.140870D-01 -0.184145D+00 -0.204315D+00
      7   0.265352D+00 -0.709840D-01 -0.138381D-01 -0.180892D+00 -0.207967D+00
      8   0.164625D+00 -0.440387D-01 -0.227015D-01 -0.296754D+00  0.331328D+00
      9   0.165855D+00 -0.443677D-01 -0.227144D-01 -0.296922D+00  0.328801D+00
     10  -0.206023D-02  0.551129D-03  0.267619D-03  0.349831D-02 -0.584713D-03
                 6             7             8             9            10 
      1   0.458028D-05  0.368558D-05  0.188041D-03  0.379528D-01  0.717184D+00
      2  -0.257549D-02 -0.437829D-02 -0.223373D+00 -0.343232D-02 -0.648596D-01
      3  -0.259528D-02 -0.443720D-02 -0.226379D+00 -0.340854D-02 -0.644102D-01
      4   0.162900D-02  0.718301D-02  0.366466D+00  0.512838D-03  0.969095D-02
      5   0.160039D-02  0.719826D-02  0.367244D+00  0.681728D-03  0.128824D-01
      6   0.160039D-02 -0.719826D-02 -0.367244D+00 -0.681727D-03 -0.128824D-01
      7   0.162900D-02 -0.718301D-02 -0.366466D+00 -0.512836D-03 -0.969095D-02
      8  -0.259528D-02  0.443721D-02  0.226379D+00  0.340853D-02  0.644102D-01
      9  -0.257549D-02  0.437829D-02  0.223373D+00  0.343231D-02  0.648596D-01
     10   0.457980D-05 -0.368591D-05 -0.188041D-03 -0.379527D-01 -0.717184D+00
                11            12            13            14            15 
      1   0.511725D+00  0.503861D+00 -0.866917D-04 -0.277791D-02  0.250746D-04
      2  -0.465266D-01 -0.458116D-01 -0.209141D-01 -0.670162D+00  0.124384D-01
      3  -0.462838D-01 -0.455725D-01  0.213204D-01  0.683181D+00 -0.125649D-01
      4   0.485801D-02  0.478336D-02 -0.330778D-01 -0.105993D+01  0.760273D-02
      5   0.743481D-02  0.732056D-02  0.331856D-01  0.106339D+01 -0.737374D-02
      6   0.743481D-02  0.732056D-02 -0.331856D-01 -0.106339D+01 -0.737374D-02
      7   0.485801D-02  0.478336D-02  0.330778D-01  0.105993D+01  0.760273D-02
      8  -0.462837D-01 -0.455725D-01 -0.213204D-01 -0.683181D+00 -0.125649D-01
      9  -0.465266D-01 -0.458116D-01  0.209141D-01  0.670162D+00  0.124384D-01
     10   0.511725D+00  0.503861D+00  0.866917D-04  0.277791D-02  0.250746D-04
                16            17            18            19            20 
      1  -0.225613D-02 -0.353472D-05 -0.115766D-02  0.277147D-04  0.300667D-02
      2  -0.111917D+01  0.356684D-02  0.116818D+01 -0.691968D-02 -0.750692D+00
      3   0.113055D+01 -0.355000D-02 -0.116266D+01  0.677191D-02  0.734660D+00
      4  -0.684071D+00 -0.222310D-02 -0.728091D+00  0.114337D-01  0.124040D+01
      5   0.663466D+00  0.230139D-02  0.753732D+00 -0.113687D-01 -0.123335D+01
      6   0.663466D+00 -0.230139D-02 -0.753732D+00 -0.113687D-01 -0.123335D+01
      7  -0.684071D+00  0.222310D-02  0.728091D+00  0.114337D-01  0.124040D+01
      8   0.113055D+01  0.355000D-02  0.116266D+01  0.677191D-02  0.734660D+00
      9  -0.111917D+01 -0.356684D-02 -0.116818D+01 -0.691968D-02 -0.750692D+00
     10  -0.225613D-02  0.353473D-05  0.115766D-02  0.277147D-04  0.300667D-02
 bfr conversion (alpha, imaginary):
                 1             2             3             4             5 
      1   0.000000D+00  0.000000D+00  0.000000D+00  0.000000D+00  0.000000D+00
      2   0.000000D+00  0.000000D+00  0.000000D+00  0.000000D+00  0.000000D+00
      3   0.000000D+00  0.000000D+00  0.000000D+00  0.000000D+00  0.000000D+00
      4   0.000000D+00  0.000000D+00  0.000000D+00  0.000000D+00  0.000000D+00
      5   0.000000D+00  0.000000D+00  0.000000D+00  0.000000D+00  0.000000D+00
      6   0.000000D+00  0.000000D+00  0.000000D+00  0.000000D+00  0.000000D+00
      7   0.000000D+00  0.000000D+00  0.000000D+00  0.000000D+00  0.000000D+00
      8   0.000000D+00  0.000000D+00  0.000000D+00  0.000000D+00  0.000000D+00
      9   0.000000D+00  0.000000D+00  0.000000D+00  0.000000D+00  0.000000D+00
     10   0.000000D+00  0.000000D+00  0.000000D+00  0.000000D+00  0.000000D+00
                 6             7             8             9            10 
      1   0.000000D+00  0.000000D+00  0.000000D+00  0.000000D+00  0.000000D+00
      2   0.000000D+00  0.000000D+00  0.000000D+00  0.000000D+00  0.000000D+00
      3   0.000000D+00  0.000000D+00  0.000000D+00  0.000000D+00  0.000000D+00
      4   0.000000D+00  0.000000D+00  0.000000D+00  0.000000D+00  0.000000D+00
      5   0.000000D+00  0.000000D+00  0.000000D+00  0.000000D+00  0.000000D+00
      6   0.000000D+00  0.000000D+00  0.000000D+00  0.000000D+00  0.000000D+00
      7   0.000000D+00  0.000000D+00  0.000000D+00  0.000000D+00  0.000000D+00
      8   0.000000D+00  0.000000D+00  0.000000D+00  0.000000D+00  0.000000D+00
      9   0.000000D+00  0.000000D+00  0.000000D+00  0.000000D+00  0.000000D+00
     10   0.000000D+00  0.000000D+00  0.000000D+00  0.000000D+00  0.000000D+00
                11            12            13            14            15 
      1   0.000000D+00  0.000000D+00  0.000000D+00  0.000000D+00  0.000000D+00
      2   0.000000D+00  0.000000D+00  0.000000D+00  0.000000D+00  0.000000D+00
      3   0.000000D+00  0.000000D+00  0.000000D+00  0.000000D+00  0.000000D+00
      4   0.000000D+00  0.000000D+00  0.000000D+00  0.000000D+00  0.000000D+00
      5   0.000000D+00  0.000000D+00  0.000000D+00  0.000000D+00  0.000000D+00
      6   0.000000D+00  0.000000D+00  0.000000D+00  0.000000D+00  0.000000D+00
      7   0.000000D+00  0.000000D+00  0.000000D+00  0.000000D+00  0.000000D+00
      8   0.000000D+00  0.000000D+00  0.000000D+00  0.000000D+00  0.000000D+00
      9   0.000000D+00  0.000000D+00  0.000000D+00  0.000000D+00  0.000000D+00
     10   0.000000D+00  0.000000D+00  0.000000D+00  0.000000D+00  0.000000D+00
                16            17            18            19            20 
      1   0.000000D+00  0.000000D+00  0.000000D+00  0.000000D+00  0.000000D+00
      2   0.000000D+00  0.000000D+00  0.000000D+00  0.000000D+00  0.000000D+00
      3   0.000000D+00  0.000000D+00  0.000000D+00  0.000000D+00  0.000000D+00
      4   0.000000D+00  0.000000D+00  0.000000D+00  0.000000D+00  0.000000D+00
      5   0.000000D+00  0.000000D+00  0.000000D+00  0.000000D+00  0.000000D+00
      6   0.000000D+00  0.000000D+00  0.000000D+00  0.000000D+00  0.000000D+00
      7   0.000000D+00  0.000000D+00  0.000000D+00  0.000000D+00  0.000000D+00
      8   0.000000D+00  0.000000D+00  0.000000D+00  0.000000D+00  0.000000D+00
      9   0.000000D+00  0.000000D+00  0.000000D+00  0.000000D+00  0.000000D+00
     10   0.000000D+00  0.000000D+00  0.000000D+00  0.000000D+00  0.000000D+00
 bfr conversion (beta, real):
                 1             2             3             4             5 
      1  -0.551129D-03 -0.206023D-02 -0.349831D-02  0.267619D-03 -0.457979D-05
      2   0.443677D-01  0.165855D+00  0.296922D+00 -0.227144D-01  0.257549D-02
      3   0.440387D-01  0.164625D+00  0.296754D+00 -0.227015D-01  0.259528D-02
      4   0.709840D-01  0.265352D+00  0.180892D+00 -0.138381D-01 -0.162900D-02
      5   0.707605D-01  0.264517D+00  0.184145D+00 -0.140870D-01 -0.160039D-02
      6   0.707605D-01  0.264517D+00 -0.184145D+00  0.140870D-01 -0.160039D-02
      7   0.709840D-01  0.265352D+00 -0.180892D+00  0.138381D-01 -0.162900D-02
      8   0.440387D-01  0.164625D+00 -0.296754D+00  0.227015D-01  0.259528D-02
      9   0.443677D-01  0.165855D+00 -0.296922D+00  0.227144D-01  0.257549D-02
     10  -0.551129D-03 -0.206023D-02  0.349831D-02 -0.267618D-03 -0.458029D-05
                 6             7             8             9            10 
      1  -0.584713D-03  0.188041D-03 -0.368590D-05  0.717184D+00 -0.379527D-01
      2   0.328801D+00 -0.223373D+00  0.437829D-02 -0.648596D-01  0.343231D-02
      3   0.331328D+00 -0.226379D+00  0.443720D-02 -0.644102D-01  0.340853D-02
      4  -0.207968D+00  0.366466D+00 -0.718301D-02  0.969095D-02 -0.512837D-03
      5  -0.204315D+00  0.367244D+00 -0.719826D-02  0.128824D-01 -0.681727D-03
      6  -0.204315D+00 -0.367244D+00  0.719826D-02 -0.128824D-01  0.681728D-03
      7  -0.207967D+00 -0.366466D+00  0.718301D-02 -0.969095D-02  0.512838D-03
      8   0.331328D+00  0.226379D+00 -0.443720D-02  0.644101D-01 -0.340854D-02
      9   0.328801D+00  0.223373D+00 -0.437829D-02  0.648596D-01 -0.343232D-02
     10  -0.584714D-03 -0.188041D-03  0.368559D-05 -0.717184D+00  0.379528D-01
                11            12            13            14            15 
      1  -0.503861D+00  0.511725D+00 -0.277791D-02  0.866917D-04 -0.225613D-02
      2   0.458116D-01 -0.465266D-01 -0.670162D+00  0.209141D-01 -0.111917D+01
      3   0.455725D-01 -0.462837D-01  0.683181D+00 -0.213204D-01  0.113055D+01
      4  -0.478336D-02  0.485801D-02 -0.105993D+01  0.330778D-01 -0.684071D+00
      5  -0.732056D-02  0.743481D-02  0.106339D+01 -0.331856D-01  0.663466D+00
      6  -0.732056D-02  0.743481D-02 -0.106339D+01  0.331856D-01  0.663466D+00
      7  -0.478336D-02  0.485801D-02  0.105993D+01 -0.330778D-01 -0.684071D+00
      8   0.455725D-01 -0.462838D-01 -0.683181D+00  0.213204D-01  0.113055D+01
      9   0.458116D-01 -0.465266D-01  0.670162D+00 -0.209141D-01 -0.111917D+01
     10  -0.503861D+00  0.511725D+00  0.277791D-02 -0.866917D-04 -0.225613D-02
                16            17            18            19            20 
      1  -0.250746D-04 -0.115766D-02  0.353473D-05  0.300667D-02 -0.277147D-04
      2  -0.124384D-01  0.116818D+01 -0.356684D-02 -0.750692D+00  0.691968D-02
      3   0.125649D-01 -0.116266D+01  0.355000D-02  0.734660D+00 -0.677191D-02
      4  -0.760273D-02 -0.728091D+00  0.222310D-02  0.124040D+01 -0.114337D-01
      5   0.737374D-02  0.753732D+00 -0.230139D-02 -0.123335D+01  0.113687D-01
      6   0.737374D-02 -0.753732D+00  0.230139D-02 -0.123335D+01  0.113687D-01
      7  -0.760273D-02  0.728091D+00 -0.222310D-02  0.124040D+01 -0.114337D-01
      8   0.125649D-01  0.116266D+01 -0.355000D-02  0.734660D+00 -0.677191D-02
      9  -0.124384D-01 -0.116818D+01  0.356684D-02 -0.750692D+00  0.691968D-02
     10  -0.250746D-04  0.115766D-02 -0.353472D-05  0.300667D-02 -0.277147D-04
 bfr conversion (beta, imaginary):
                 1             2             3             4             5 
      1   0.000000D+00  0.000000D+00  0.000000D+00  0.000000D+00  0.000000D+00
      2   0.000000D+00  0.000000D+00  0.000000D+00  0.000000D+00  0.000000D+00
      3   0.000000D+00  0.000000D+00  0.000000D+00  0.000000D+00  0.000000D+00
      4   0.000000D+00  0.000000D+00  0.000000D+00  0.000000D+00  0.000000D+00
      5   0.000000D+00  0.000000D+00  0.000000D+00  0.000000D+00  0.000000D+00
      6   0.000000D+00  0.000000D+00  0.000000D+00  0.000000D+00  0.000000D+00
      7   0.000000D+00  0.000000D+00  0.000000D+00  0.000000D+00  0.000000D+00
      8   0.000000D+00  0.000000D+00  0.000000D+00  0.000000D+00  0.000000D+00
      9   0.000000D+00  0.000000D+00  0.000000D+00  0.000000D+00  0.000000D+00
     10   0.000000D+00  0.000000D+00  0.000000D+00  0.000000D+00  0.000000D+00
                 6             7             8             9            10 
      1   0.000000D+00  0.000000D+00  0.000000D+00  0.000000D+00  0.000000D+00
      2   0.000000D+00  0.000000D+00  0.000000D+00  0.000000D+00  0.000000D+00
      3   0.000000D+00  0.000000D+00  0.000000D+00  0.000000D+00  0.000000D+00
      4   0.000000D+00  0.000000D+00  0.000000D+00  0.000000D+00  0.000000D+00
      5   0.000000D+00  0.000000D+00  0.000000D+00  0.000000D+00  0.000000D+00
      6   0.000000D+00  0.000000D+00  0.000000D+00  0.000000D+00  0.000000D+00
      7   0.000000D+00  0.000000D+00  0.000000D+00  0.000000D+00  0.000000D+00
      8   0.000000D+00  0.000000D+00  0.000000D+00  0.000000D+00  0.000000D+00
      9   0.000000D+00  0.000000D+00  0.000000D+00  0.000000D+00  0.000000D+00
     10   0.000000D+00  0.000000D+00  0.000000D+00  0.000000D+00  0.000000D+00
                11            12            13            14            15 
      1   0.000000D+00  0.000000D+00  0.000000D+00  0.000000D+00  0.000000D+00
[...]
      6b 0.384879D-02 -0.131295D-01 -0.171052D-01  0.187269D+00 -0.169813D-01
      7a 0.374972D-02  0.551505D-02  0.129218D+00 -0.173890D-01  0.132816D+00
      7b 0.466613D-02 -0.118357D-01 -0.173046D-01  0.184889D+00 -0.171802D-01
      8a 0.156790D-01 -0.100987D-01 -0.110952D+00 -0.697482D-02 -0.111990D+00
      8b 0.156424D-02  0.428745D-01 -0.805127D-02  0.117294D-01 -0.797820D-02
      9a 0.161053D-01 -0.995775D-02 -0.109970D+00 -0.708106D-02 -0.110983D+00
      9b 0.174237D-02  0.429869D-01 -0.815709D-02  0.127066D-01 -0.808345D-02
     10a-0.259963D+00  0.344396D-01  0.341092D-01  0.369676D-02  0.340394D-01
     10b-0.923005D-01 -0.385270D+00  0.153969D-01  0.276023D-01  0.155330D-01
                3b            4a            4b            5a            5b
      3b 0.750617D+00
      4a-0.199769D-01  0.907774D+00
      4b-0.368349D+00 -0.327645D-01  0.937771D+00
      5a-0.200676D-01  0.908201D+00 -0.326519D-01  0.908698D+00
      5b-0.364481D+00 -0.326529D-01  0.937229D+00 -0.325421D-01  0.936758D+00
      6a-0.170788D-01 -0.536378D+00 -0.272640D-01 -0.541375D+00 -0.271288D-01
      6b 0.189883D+00 -0.272691D-01 -0.350305D+00 -0.271356D-01 -0.355253D+00
      7a-0.172631D-01 -0.531347D+00 -0.273777D-01 -0.536349D+00 -0.272426D-01
      7b 0.187464D+00 -0.273812D-01 -0.345369D+00 -0.272477D-01 -0.350328D+00
      8a-0.690132D-02  0.133819D+00 -0.164451D-01  0.135827D+00 -0.164407D-01
      8b 0.107808D-01 -0.163621D-01  0.186478D+00 -0.163433D-01  0.189138D+00
      9a-0.700699D-02  0.130217D+00 -0.165776D-01  0.132186D+00 -0.165727D-01
      9b 0.117758D-01 -0.164931D-01  0.183914D+00 -0.164737D-01  0.186536D+00
     10a 0.387005D-02 -0.934972D-02 -0.497657D-02 -0.103191D-01 -0.420297D-02
     10b 0.270869D-01 -0.582550D-02  0.606457D-03 -0.531040D-02 -0.247100D-02
                6a            6b            7a            7b            8a
      6a 0.908796D+00
      6b-0.324755D-01  0.936691D+00
      7a 0.908414D+00 -0.324961D-01  0.908104D+00
      7b-0.324971D-01  0.937060D+00 -0.325172D-01  0.937496D+00
      8a-0.427372D+00 -0.204263D-01 -0.431853D+00 -0.205594D-01  0.775110D+00
      8b-0.203823D-01 -0.364185D+00 -0.204985D-01 -0.367764D+00 -0.171500D-01
      9a-0.420214D+00 -0.205586D-01 -0.424679D+00 -0.206914D-01  0.769783D+00
      9b-0.205159D-01 -0.357047D+00 -0.206317D-01 -0.360608D+00 -0.172725D-01
     10a 0.918087D-02  0.158131D-02  0.820458D-02  0.228745D-02 -0.300914D-01
     10b 0.118104D-02  0.737778D-02  0.159496D-02  0.445909D-02  0.197978D-01
                8b            9a            9b           10a           10b
      8b 0.753824D+00
      9a-0.172708D-01  0.764520D+00
      9b 0.749097D+00 -0.173936D-01  0.744431D+00
     10a 0.199585D-01 -0.301630D-01  0.201069D-01  0.197369D+00
     10b-0.824186D-01  0.198957D-01 -0.828763D-01 -0.293821D+00  0.964463D+00
 jaja lower-tri density matrix (imaginary):
                1a            1b            2a            2b            3a
      1a 0.000000D+00
      1b 0.000000D+00  0.000000D+00
      2a 0.000000D+00  0.000000D+00  0.000000D+00
      2b 0.000000D+00  0.000000D+00  0.000000D+00  0.000000D+00
      3a 0.000000D+00  0.000000D+00  0.000000D+00  0.000000D+00  0.000000D+00
      3b 0.000000D+00  0.000000D+00  0.000000D+00  0.000000D+00  0.000000D+00
      4a 0.000000D+00  0.000000D+00  0.000000D+00  0.000000D+00  0.000000D+00
      4b 0.000000D+00  0.000000D+00  0.000000D+00  0.000000D+00  0.000000D+00
      5a 0.000000D+00  0.000000D+00  0.000000D+00  0.000000D+00  0.000000D+00
      5b 0.000000D+00  0.000000D+00  0.000000D+00  0.000000D+00  0.000000D+00
      6a 0.000000D+00  0.000000D+00  0.000000D+00  0.000000D+00  0.000000D+00
      6b 0.000000D+00  0.000000D+00  0.000000D+00  0.000000D+00  0.000000D+00
      7a 0.000000D+00  0.000000D+00  0.000000D+00  0.000000D+00  0.000000D+00
      7b 0.000000D+00  0.000000D+00  0.000000D+00  0.000000D+00  0.000000D+00
      8a 0.000000D+00  0.000000D+00  0.000000D+00  0.000000D+00  0.000000D+00
      8b 0.000000D+00  0.000000D+00  0.000000D+00  0.000000D+00  0.000000D+00
      9a 0.000000D+00  0.000000D+00  0.000000D+00  0.000000D+00  0.000000D+00
      9b 0.000000D+00  0.000000D+00  0.000000D+00  0.000000D+00  0.000000D+00
     10a 0.000000D+00  0.000000D+00  0.000000D+00  0.000000D+00  0.000000D+00
     10b 0.000000D+00  0.000000D+00  0.000000D+00  0.000000D+00  0.000000D+00
                3b            4a            4b            5a            5b
      3b 0.000000D+00
      4a 0.000000D+00  0.000000D+00
      4b 0.000000D+00  0.000000D+00  0.000000D+00
      5a 0.000000D+00  0.000000D+00  0.000000D+00  0.000000D+00
      5b 0.000000D+00  0.000000D+00  0.000000D+00  0.000000D+00  0.000000D+00
      6a 0.000000D+00  0.000000D+00  0.000000D+00  0.000000D+00  0.000000D+00
      6b 0.000000D+00  0.000000D+00  0.000000D+00  0.000000D+00  0.000000D+00
      7a 0.000000D+00  0.000000D+00  0.000000D+00  0.000000D+00  0.000000D+00
      7b 0.000000D+00  0.000000D+00  0.000000D+00  0.000000D+00  0.000000D+00
      8a 0.000000D+00  0.000000D+00  0.000000D+00  0.000000D+00  0.000000D+00
      8b 0.000000D+00  0.000000D+00  0.000000D+00  0.000000D+00  0.000000D+00
      9a 0.000000D+00  0.000000D+00  0.000000D+00  0.000000D+00  0.000000D+00
      9b 0.000000D+00  0.000000D+00  0.000000D+00  0.000000D+00  0.000000D+00
     10a 0.000000D+00  0.000000D+00  0.000000D+00  0.000000D+00  0.000000D+00
     10b 0.000000D+00  0.000000D+00  0.000000D+00  0.000000D+00  0.000000D+00
                6a            6b            7a            7b            8a
      6a 0.000000D+00
      6b 0.000000D+00  0.000000D+00
      7a 0.000000D+00  0.000000D+00  0.000000D+00
      7b 0.000000D+00  0.000000D+00  0.000000D+00  0.000000D+00
      8a 0.000000D+00  0.000000D+00  0.000000D+00  0.000000D+00  0.000000D+00
      8b 0.000000D+00  0.000000D+00  0.000000D+00  0.000000D+00  0.000000D+00
      9a 0.000000D+00  0.000000D+00  0.000000D+00  0.000000D+00  0.000000D+00
      9b 0.000000D+00  0.000000D+00  0.000000D+00  0.000000D+00  0.000000D+00
     10a 0.000000D+00  0.000000D+00  0.000000D+00  0.000000D+00  0.000000D+00
     10b 0.000000D+00  0.000000D+00  0.000000D+00  0.000000D+00  0.000000D+00
                8b            9a            9b           10a           10b
      8b 0.000000D+00
      9a 0.000000D+00  0.000000D+00
      9b 0.000000D+00  0.000000D+00  0.000000D+00
     10a 0.000000D+00  0.000000D+00  0.000000D+00  0.000000D+00
     10b 0.000000D+00  0.000000D+00  0.000000D+00  0.000000D+00  0.000000D+00
 jaja non-ortho density matrix               [Gau-style] (real):
                 1             2             3             4             5 
      1a  0.783775D+00  0.259985D+00 -0.653166D-01 -0.166519D-01 -0.649494D-01
      1b  0.259985D+00  0.218805D+00 -0.164408D-01 -0.306674D-01 -0.163327D-01
      2a -0.653166D-01 -0.164408D-01  0.766139D+00 -0.152640D-01  0.771308D+00
      2b -0.166519D-01 -0.306674D-01 -0.152640D-01  0.741026D+00 -0.152207D-01
      3a -0.649494D-01 -0.163327D-01  0.771308D+00 -0.152207D-01  0.776540D+00
      3b -0.164934D-01 -0.305347D-01 -0.152224D-01  0.745790D+00 -0.151803D-01
      4a  0.223673D-02 -0.146901D-02 -0.423874D+00 -0.201441D-01 -0.431000D+00
      4b -0.216150D-02  0.783278D-02 -0.200845D-01 -0.361154D+00 -0.199160D-01
      5a  0.448039D-02 -0.989850D-03 -0.419660D+00 -0.202337D-01 -0.426772D+00
      5b -0.139013D-02  0.916598D-02 -0.201910D-01 -0.357306D+00 -0.200236D-01
      6a  0.135716D-02  0.495622D-02  0.131380D+00 -0.172042D-01  0.135016D+00
      6b  0.384879D-02 -0.131295D-01 -0.171052D-01  0.187269D+00 -0.169813D-01
      7a  0.374972D-02  0.551505D-02  0.129218D+00 -0.173890D-01  0.132816D+00
      7b  0.466613D-02 -0.118357D-01 -0.173046D-01  0.184889D+00 -0.171802D-01
      8a  0.156790D-01 -0.100987D-01 -0.110952D+00 -0.697482D-02 -0.111990D+00
      8b  0.156424D-02  0.428745D-01 -0.805127D-02  0.117294D-01 -0.797820D-02
      9a  0.161053D-01 -0.995775D-02 -0.109970D+00 -0.708106D-02 -0.110983D+00
      9b  0.174237D-02  0.429869D-01 -0.815709D-02  0.127066D-01 -0.808345D-02
     10a -0.259963D+00  0.344396D-01  0.341092D-01  0.369676D-02  0.340394D-01
     10b -0.923005D-01 -0.385270D+00  0.153969D-01  0.276023D-01  0.155330D-01
                 6             7             8             9            10 
      1a -0.164934D-01  0.223673D-02 -0.216150D-02  0.448039D-02 -0.139013D-02
      1b -0.305347D-01 -0.146901D-02  0.783278D-02 -0.989850D-03  0.916598D-02
      2a -0.152224D-01 -0.423874D+00 -0.200845D-01 -0.419660D+00 -0.201910D-01
      2b  0.745790D+00 -0.201441D-01 -0.361154D+00 -0.202337D-01 -0.357306D+00
      3a -0.151803D-01 -0.431000D+00 -0.199160D-01 -0.426772D+00 -0.200236D-01
      3b  0.750617D+00 -0.199769D-01 -0.368349D+00 -0.200676D-01 -0.364481D+00
      4a -0.199769D-01  0.907774D+00 -0.327645D-01  0.908201D+00 -0.326529D-01
      4b -0.368349D+00 -0.327645D-01  0.937771D+00 -0.326519D-01  0.937229D+00
      5a -0.200676D-01  0.908201D+00 -0.326519D-01  0.908698D+00 -0.325421D-01
      5b -0.364481D+00 -0.326529D-01  0.937229D+00 -0.325421D-01  0.936758D+00
      6a -0.170788D-01 -0.536378D+00 -0.272640D-01 -0.541375D+00 -0.271288D-01
      6b  0.189883D+00 -0.272691D-01 -0.350305D+00 -0.271356D-01 -0.355253D+00
      7a -0.172631D-01 -0.531347D+00 -0.273777D-01 -0.536349D+00 -0.272426D-01
      7b  0.187464D+00 -0.273812D-01 -0.345369D+00 -0.272477D-01 -0.350328D+00
      8a -0.690132D-02  0.133819D+00 -0.164451D-01  0.135827D+00 -0.164407D-01
      8b  0.107808D-01 -0.163621D-01  0.186478D+00 -0.163433D-01  0.189138D+00
      9a -0.700699D-02  0.130217D+00 -0.165776D-01  0.132186D+00 -0.165727D-01
      9b  0.117758D-01 -0.164931D-01  0.183914D+00 -0.164737D-01  0.186536D+00
     10a  0.387005D-02 -0.934972D-02 -0.497657D-02 -0.103191D-01 -0.420297D-02
     10b  0.270869D-01 -0.582550D-02  0.606457D-03 -0.531040D-02 -0.247100D-02
                11            12            13            14            15 
      1a  0.135716D-02  0.384879D-02  0.374972D-02  0.466613D-02  0.156790D-01
      1b  0.495622D-02 -0.131295D-01  0.551505D-02 -0.118357D-01 -0.100987D-01
      2a  0.131380D+00 -0.171052D-01  0.129218D+00 -0.173046D-01 -0.110952D+00
      2b -0.172042D-01  0.187269D+00 -0.173890D-01  0.184889D+00 -0.697482D-02
      3a  0.135016D+00 -0.169813D-01  0.132816D+00 -0.171802D-01 -0.111990D+00
      3b -0.170788D-01  0.189883D+00 -0.172631D-01  0.187464D+00 -0.690132D-02
      4a -0.536378D+00 -0.272691D-01 -0.531347D+00 -0.273812D-01  0.133819D+00
      4b -0.272640D-01 -0.350305D+00 -0.273777D-01 -0.345369D+00 -0.164451D-01
      5a -0.541375D+00 -0.271356D-01 -0.536349D+00 -0.272477D-01  0.135827D+00
      5b -0.271288D-01 -0.355253D+00 -0.272426D-01 -0.350328D+00 -0.164407D-01
      6a  0.908796D+00 -0.324755D-01  0.908414D+00 -0.324971D-01 -0.427372D+00
      6b -0.324755D-01  0.936691D+00 -0.324961D-01  0.937060D+00 -0.204263D-01
      7a  0.908414D+00 -0.324961D-01  0.908104D+00 -0.325172D-01 -0.431853D+00
      7b -0.324971D-01  0.937060D+00 -0.325172D-01  0.937496D+00 -0.205594D-01
      8a -0.427372D+00 -0.204263D-01 -0.431853D+00 -0.205594D-01  0.775110D+00
      8b -0.203823D-01 -0.364185D+00 -0.204985D-01 -0.367764D+00 -0.171500D-01
      9a -0.420214D+00 -0.205586D-01 -0.424679D+00 -0.206914D-01  0.769783D+00
      9b -0.205159D-01 -0.357047D+00 -0.206317D-01 -0.360608D+00 -0.172725D-01
     10a  0.918087D-02  0.158131D-02  0.820458D-02  0.228745D-02 -0.300914D-01
     10b  0.118104D-02  0.737778D-02  0.159496D-02  0.445909D-02  0.197978D-01
                16            17            18            19            20 
      1a  0.156424D-02  0.161053D-01  0.174237D-02 -0.259963D+00 -0.923005D-01
      1b  0.428745D-01 -0.995775D-02  0.429869D-01  0.344396D-01 -0.385270D+00
      2a -0.805127D-02 -0.109970D+00 -0.815709D-02  0.341092D-01  0.153969D-01
      2b  0.117294D-01 -0.708106D-02  0.127066D-01  0.369676D-02  0.276023D-01
      3a -0.797820D-02 -0.110983D+00 -0.808345D-02  0.340394D-01  0.155330D-01
      3b  0.107808D-01 -0.700699D-02  0.117758D-01  0.387005D-02  0.270869D-01
      4a -0.163621D-01  0.130217D+00 -0.164931D-01 -0.934972D-02 -0.582550D-02
      4b  0.186478D+00 -0.165776D-01  0.183914D+00 -0.497657D-02  0.606457D-03
      5a -0.163433D-01  0.132186D+00 -0.164737D-01 -0.103191D-01 -0.531040D-02
      5b  0.189138D+00 -0.165727D-01  0.186536D+00 -0.420297D-02 -0.247100D-02
      6a -0.203823D-01 -0.420214D+00 -0.205159D-01  0.918087D-02  0.118104D-02
      6b -0.364185D+00 -0.205586D-01 -0.357047D+00  0.158131D-02  0.737778D-02
      7a -0.204985D-01 -0.424679D+00 -0.206317D-01  0.820458D-02  0.159496D-02
      7b -0.367764D+00 -0.206914D-01 -0.360608D+00  0.228745D-02  0.445909D-02
      8a -0.171500D-01  0.769783D+00 -0.172725D-01 -0.300914D-01  0.197978D-01
      8b  0.753824D+00 -0.172708D-01  0.749097D+00  0.199585D-01 -0.824186D-01
      9a -0.172708D-01  0.764520D+00 -0.173936D-01 -0.301630D-01  0.198957D-01
      9b  0.749097D+00 -0.173936D-01  0.744431D+00  0.201069D-01 -0.828763D-01
     10a  0.199585D-01 -0.301630D-01  0.201069D-01  0.197369D+00 -0.293821D+00
     10b -0.824186D-01  0.198957D-01 -0.828763D-01 -0.293821D+00  0.964463D+00
 jaja non-ortho density matrix               [Gau-style] (imaginary):
                 1             2             3             4             5 
      1a  0.000000D+00  0.000000D+00  0.000000D+00  0.000000D+00  0.000000D+00
      1b  0.000000D+00  0.000000D+00  0.000000D+00  0.000000D+00  0.000000D+00
      2a  0.000000D+00  0.000000D+00  0.000000D+00  0.000000D+00  0.000000D+00
      2b  0.000000D+00  0.000000D+00  0.000000D+00  0.000000D+00  0.000000D+00
      3a  0.000000D+00  0.000000D+00  0.000000D+00  0.000000D+00  0.000000D+00
      3b  0.000000D+00  0.000000D+00  0.000000D+00  0.000000D+00  0.000000D+00
      4a  0.000000D+00  0.000000D+00  0.000000D+00  0.000000D+00  0.000000D+00
      4b  0.000000D+00  0.000000D+00  0.000000D+00  0.000000D+00  0.000000D+00
      5a  0.000000D+00  0.000000D+00  0.000000D+00  0.000000D+00  0.000000D+00
      5b  0.000000D+00  0.000000D+00  0.000000D+00  0.000000D+00  0.000000D+00
      6a  0.000000D+00  0.000000D+00  0.000000D+00  0.000000D+00  0.000000D+00
      6b  0.000000D+00  0.000000D+00  0.000000D+00  0.000000D+00  0.000000D+00
      7a  0.000000D+00  0.000000D+00  0.000000D+00  0.000000D+00  0.000000D+00
      7b  0.000000D+00  0.000000D+00  0.000000D+00  0.000000D+00  0.000000D+00
      8a  0.000000D+00  0.000000D+00  0.000000D+00  0.000000D+00  0.000000D+00
      8b  0.000000D+00  0.000000D+00  0.000000D+00  0.000000D+00  0.000000D+00
      9a  0.000000D+00  0.000000D+00  0.000000D+00  0.000000D+00  0.000000D+00
      9b  0.000000D+00  0.000000D+00  0.000000D+00  0.000000D+00  0.000000D+00
     10a  0.000000D+00  0.000000D+00  0.000000D+00  0.000000D+00  0.000000D+00
     10b  0.000000D+00  0.000000D+00  0.000000D+00  0.000000D+00  0.000000D+00
                 6             7             8             9            10 
      1a  0.000000D+00  0.000000D+00  0.000000D+00  0.000000D+00  0.000000D+00
      1b  0.000000D+00  0.000000D+00  0.000000D+00  0.000000D+00  0.000000D+00
      2a  0.000000D+00  0.000000D+00  0.000000D+00  0.000000D+00  0.000000D+00
      2b  0.000000D+00  0.000000D+00  0.000000D+00  0.000000D+00  0.000000D+00
      3a  0.000000D+00  0.000000D+00  0.000000D+00  0.000000D+00  0.000000D+00
      3b  0.000000D+00  0.000000D+00  0.000000D+00  0.000000D+00  0.000000D+00
      4a  0.000000D+00  0.000000D+00  0.000000D+00  0.000000D+00  0.000000D+00
      4b  0.000000D+00  0.000000D+00  0.000000D+00  0.000000D+00  0.000000D+00
      5a  0.000000D+00  0.000000D+00  0.000000D+00  0.000000D+00  0.000000D+00
      5b  0.000000D+00  0.000000D+00  0.000000D+00  0.000000D+00  0.000000D+00
      6a  0.000000D+00  0.000000D+00  0.000000D+00  0.000000D+00  0.000000D+00
      6b  0.000000D+00  0.000000D+00  0.000000D+00  0.000000D+00  0.000000D+00
      7a  0.000000D+00  0.000000D+00  0.000000D+00  0.000000D+00  0.000000D+00
      7b  0.000000D+00  0.000000D+00  0.000000D+00  0.000000D+00  0.000000D+00
      8a  0.000000D+00  0.000000D+00  0.000000D+00  0.000000D+00  0.000000D+00
      8b  0.000000D+00  0.000000D+00  0.000000D+00  0.000000D+00  0.000000D+00
      9a  0.000000D+00  0.000000D+00  0.000000D+00  0.000000D+00  0.000000D+00
      9b  0.000000D+00  0.000000D+00  0.000000D+00  0.000000D+00  0.000000D+00
     10a  0.000000D+00  0.000000D+00  0.000000D+00  0.000000D+00  0.000000D+00
     10b  0.000000D+00  0.000000D+00  0.000000D+00  0.000000D+00  0.000000D+00
                11            12            13            14            15 
      1a  0.000000D+00  0.000000D+00  0.000000D+00  0.000000D+00  0.000000D+00
      1b  0.000000D+00  0.000000D+00  0.000000D+00  0.000000D+00  0.000000D+00
      2a  0.000000D+00  0.000000D+00  0.000000D+00  0.000000D+00  0.000000D+00
      2b  0.000000D+00  0.000000D+00  0.000000D+00  0.000000D+00  0.000000D+00
      3a  0.000000D+00  0.000000D+00  0.000000D+00  0.000000D+00  0.000000D+00
      3b  0.000000D+00  0.000000D+00  0.000000D+00  0.000000D+00  0.000000D+00
      4a  0.000000D+00  0.000000D+00  0.000000D+00  0.000000D+00  0.000000D+00
      4b  0.000000D+00  0.000000D+00  0.000000D+00  0.000000D+00  0.000000D+00
      5a  0.000000D+00  0.000000D+00  0.000000D+00  0.000000D+00  0.000000D+00
      5b  0.000000D+00  0.000000D+00  0.000000D+00  0.000000D+00  0.000000D+00
      6a  0.000000D+00  0.000000D+00  0.000000D+00  0.000000D+00  0.000000D+00
      6b  0.000000D+00  0.000000D+00  0.000000D+00  0.000000D+00  0.000000D+00
      7a  0.000000D+00  0.000000D+00  0.000000D+00  0.000000D+00  0.000000D+00
      7b  0.000000D+00  0.000000D+00  0.000000D+00  0.000000D+00  0.000000D+00
      8a  0.000000D+00  0.000000D+00  0.000000D+00  0.000000D+00  0.000000D+00
      8b  0.000000D+00  0.000000D+00  0.000000D+00  0.000000D+00  0.000000D+00
      9a  0.000000D+00  0.000000D+00  0.000000D+00  0.000000D+00  0.000000D+00
      9b  0.000000D+00  0.000000D+00  0.000000D+00  0.000000D+00  0.000000D+00
     10a  0.000000D+00  0.000000D+00  0.000000D+00  0.000000D+00  0.000000D+00
     10b  0.000000D+00  0.000000D+00  0.000000D+00  0.000000D+00  0.000000D+00
                16            17            18            19            20 
      1a  0.000000D+00  0.000000D+00  0.000000D+00  0.000000D+00  0.000000D+00
      1b  0.000000D+00  0.000000D+00  0.000000D+00  0.000000D+00  0.000000D+00
      2a  0.000000D+00  0.000000D+00  0.000000D+00  0.000000D+00  0.000000D+00
      2b  0.000000D+00  0.000000D+00  0.000000D+00  0.000000D+00  0.000000D+00
      3a  0.000000D+00  0.000000D+00  0.000000D+00  0.000000D+00  0.000000D+00
      3b  0.000000D+00  0.000000D+00  0.000000D+00  0.000000D+00  0.000000D+00
      4a  0.000000D+00  0.000000D+00  0.000000D+00  0.000000D+00  0.000000D+00
      4b  0.000000D+00  0.000000D+00  0.000000D+00  0.000000D+00  0.000000D+00
      5a  0.000000D+00  0.000000D+00  0.000000D+00  0.000000D+00  0.000000D+00
      5b  0.000000D+00  0.000000D+00  0.000000D+00  0.000000D+00  0.000000D+00
      6a  0.000000D+00  0.000000D+00  0.000000D+00  0.000000D+00  0.000000D+00
      6b  0.000000D+00  0.000000D+00  0.000000D+00  0.000000D+00  0.000000D+00
      7a  0.000000D+00  0.000000D+00  0.000000D+00  0.000000D+00  0.000000D+00
      7b  0.000000D+00  0.000000D+00  0.000000D+00  0.000000D+00  0.000000D+00
      8a  0.000000D+00  0.000000D+00  0.000000D+00  0.000000D+00  0.000000D+00
      8b  0.000000D+00  0.000000D+00  0.000000D+00  0.000000D+00  0.000000D+00
      9a  0.000000D+00  0.000000D+00  0.000000D+00  0.000000D+00  0.000000D+00
      9b  0.000000D+00  0.000000D+00  0.000000D+00  0.000000D+00  0.000000D+00
     10a  0.000000D+00  0.000000D+00  0.000000D+00  0.000000D+00  0.000000D+00
     10b  0.000000D+00  0.000000D+00  0.000000D+00  0.000000D+00  0.000000D+00
FORTRAN STOP
