 Entering Gaussian System, Link 0=gdv
 AtFile(1): H.gbs
            H     0
            S   10   1.00
               1000.000000000000            0.000068713567
                316.227766000000            0.000169141320
                100.000000000000            0.000823394812
                 31.622776600000            0.003425569236
                 10.000000000000            0.013951996000
                  3.162277660000            0.056909313560
                  1.000000000000            0.198286399900
                  0.316227766000            0.496922426700
                  0.100000000000            0.369846276400
                  0.031622776600            0.003752720039
            ****
 Initial command:
 /users/lcj1/GHF_hess/exe-dir/l1.exe "/users/lcj1/GHF_hess/h10_2rows/follow25/fwd/Gau-29284.inp" -scrdir="/users/lcj1/GHF_hess/h10_2rows/follow25/fwd/"
 Entering Link 1 = /users/lcj1/GHF_hess/exe-dir/l1.exe PID=     29285.
  
 Copyright (c) 1988,1990,1992,1993,1995,1998,2003,2009,2012,
            Gaussian, Inc.  All Rights Reserved.
  
 This is the private, development version of
 the Gaussian(R) DV system of programs. It is based on
 the Gaussian(R) 09 system (copyright 2009, Gaussian, Inc.),
 the Gaussian(R) 03 system (copyright 2003, Gaussian, Inc.),
 the Gaussian(R) 98 system (copyright 1998, Gaussian, Inc.),
 the Gaussian(R) 94 system (copyright 1995, Gaussian, Inc.),
 the Gaussian 92(TM) system (copyright 1992, Gaussian, Inc.),
 the Gaussian 90(TM) system (copyright 1990, Gaussian, Inc.),
 the Gaussian 88(TM) system (copyright 1988, Gaussian, Inc.),
 the Gaussian 86(TM) system (copyright 1986, Carnegie Mellon
 University), and the Gaussian 82(TM) system (copyright 1983,
 Carnegie Mellon University). Gaussian is a federally registered
 trademark of Gaussian, Inc.
  
 This software contains proprietary and confidential information,
 including trade secrets, belonging to Gaussian, Inc.
  
 This software is provided under written license and may be
 used, copied, transmitted, or stored only in accord with that
 written license.
  
 The following legend is applicable only to US Government
 contracts under FAR:
  
                    RESTRICTED RIGHTS LEGEND
  
 Use, reproduction and disclosure by the US Government is
 subject to restrictions as set forth in subparagraphs (a)
 and (c) of the Commercial Computer Software - Restricted
 Rights clause in FAR 52.227-19.
  
 Gaussian, Inc.
 340 Quinnipiac St., Bldg. 40, Wallingford CT 06492
  
  
 ---------------------------------------------------------------
 Warning -- This program may not be used in any manner that
 competes with the business of Gaussian, Inc. or will provide
 assistance to any competitor of Gaussian, Inc.  The licensee
 of this program is prohibited from giving any competitor of
 Gaussian, Inc. access to this program.  By using this program,
 the user acknowledges that Gaussian, Inc. is engaged in the
 business of creating and licensing software in the field of
 computational chemistry and represents and warrants to the
 licensee that it is not a competitor of Gaussian, Inc. and that
 it will not use this program in any manner prohibited above.
 ---------------------------------------------------------------
  

 Cite this work as:
 Gaussian Development Version, Revision H.21,
 M. J. Frisch, G. W. Trucks, H. B. Schlegel, G. E. Scuseria, 
 M. A. Robb, J. R. Cheeseman, G. Scalmani, V. Barone, B. Mennucci, 
 G. A. Petersson, H. Nakatsuji, M. Caricato, X. Li, H. P. Hratchian, 
 A. F. Izmaylov, J. Bloino, G. Zheng, J. L. Sonnenberg, W. Liang, 
 M. Hada, M. Ehara, K. Toyota, R. Fukuda, J. Hasegawa, M. Ishida, 
 T. Nakajima, Y. Honda, O. Kitao, H. Nakai, T. Vreven, 
 J. A. Montgomery, Jr., J. E. Peralta, F. Ogliaro, M. Bearpark, 
 J. J. Heyd, E. Brothers, K. N. Kudin, V. N. Staroverov, T. Keith, 
 R. Kobayashi, J. Normand, K. Raghavachari, A. Rendell, J. C. Burant, 
 S. S. Iyengar, J. Tomasi, M. Cossi, N. Rega, J. M. Millam, M. Klene, 
 J. E. Knox, J. B. Cross, V. Bakken, C. Adamo, J. Jaramillo, 
 R. Gomperts, R. E. Stratmann, O. Yazyev, A. J. Austin, R. Cammi, 
 C. Pomelli, J. W. Ochterski, R. L. Martin, K. Morokuma, 
 V. G. Zakrzewski, G. A. Voth, P. Salvador, J. J. Dannenberg, 
 S. Dapprich, P. V. Parandekar, N. J. Mayhall, A. D. Daniels, 
 O. Farkas, J. B. Foresman, J. V. Ortiz, J. Cioslowski, 
 and D. J. Fox, Gaussian, Inc., Wallingford CT, 2010.
 
 ******************************************
 Gaussian DV:  EM64L-GDVRevH.21 13-May-2012
                28-Feb-2017 
 ******************************************
 %chk=h10.chk
 ----------------------------------------------------------------------
 #ghf/gen scf(tight,novaracc,noincfock,fulldiag) stable guess=read geom
 =nocrowd use=l802 use=l902 test
 ----------------------------------------------------------------------
 ********************************************
   THE COMPLEX ERI TRANSFORMATION WITH L802  
        COMPLEX STABILITY WITH L902          
 ********************************************
 1/38=1/1;
 2/12=1,17=6,18=5,40=1/2;
 3/5=7,16=1,25=20,28=1,116=7/1,2,3,20;
 4/5=1/1;
 5/5=100001,16=1,32=2,38=6/2;
 8/6=1,10=90,11=11/1,2;
 9/8=4,13=1/1,2;
 6/7=2,8=2,9=2,10=2,28=1/1;
 99/5=1,9=1/99;
 ----------------------------------------------------------------------
 hf stability analysis of h10 triangular lattice, y= 1.4808545702551064
  alpha= 75.250000000000000
 ----------------------------------------------------------------------
 Symbolic Z-Matrix:
 Charge =  0 Multiplicity = 1
 H
 H                    1     1.53132 
 H                    1     1.53132  2     29.5 
 H                    2     1.53132  1     150.5    3     0.       0
 H                    3     1.53132  1     180.     2     0.       0
 H                    4     1.53132  2     180.     1     0.       0
 H                    5     1.53132  3     180.     2     0.       0
 H                    6     1.53132  4     180.     1     0.       0
 H                    7     1.53132  5     180.     2     0.       0
 H                    8     1.53132  6     180.     1     0.       0
 
                          Input orientation:                          
 ---------------------------------------------------------------------
 Center     Atomic      Atomic             Coordinates (Angstroms)
 Number     Number       Type             X           Y           Z
 ---------------------------------------------------------------------
      1          1           0        0.000000    0.000000    0.000000
      2          1           0        0.000000    0.000000    1.531318
      3          1           0        0.754057    0.000000    1.332791
      4          1           0        0.754057    0.000000    2.864109
      5          1           0        1.508114    0.000000    2.665582
      6          1           0        1.508114    0.000000    4.196900
      7          1           0        2.262171    0.000000    3.998373
      8          1           0        2.262171    0.000000    5.529691
      9          1           0        3.016228    0.000000    5.331164
     10          1           0        3.016228    0.000000    6.862482
 ---------------------------------------------------------------------
                    Distance matrix (angstroms):
                    1          2          3          4          5
     1  H    0.000000
     2  H    1.531318   0.000000
     3  H    1.531318   0.779753   0.000000
     4  H    2.961709   1.531318   1.531318   0.000000
     5  H    3.062635   1.887051   1.531318   0.779753   0.000000
     6  H    4.459639   3.062635   2.961709   1.531318   1.531318
     7  H    4.593953   3.347205   3.062635   1.887051   1.531318
     8  H    5.974521   4.593953   4.459639   3.062635   2.961709
     9  H    6.125271   4.851439   4.593953   3.347205   3.062635
    10  H    7.496085   6.125271   5.974521   4.593953   4.459639
                    6          7          8          9         10
     6  H    0.000000
     7  H    0.779753   0.000000
     8  H    1.531318   1.531318   0.000000
     9  H    1.887051   1.531318   0.779753   0.000000
    10  H    3.062635   2.961709   1.531318   1.531318   0.000000
 Stoichiometry    H10
 Framework group  C2H[SGH(H10)]
 Deg. of freedom     9
 Full point group                 C2H     NOp   4
 Largest Abelian subgroup         C2H     NOp   4
 Largest concise Abelian subgroup C2      NOp   2
                         Standard orientation:                         
 ---------------------------------------------------------------------
 Center     Atomic      Atomic             Coordinates (Angstroms)
 Number     Number       Type             X           Y           Z
 ---------------------------------------------------------------------
      1          1           0        1.508114    3.431241    0.000000
      2          1           0        1.508114    1.899923    0.000000
      3          1           0        0.754057    2.098450    0.000000
      4          1           0        0.754057    0.567132    0.000000
      5          1           0        0.000000    0.765659    0.000000
      6          1           0        0.000000   -0.765659    0.000000
      7          1           0       -0.754057   -0.567132    0.000000
      8          1           0       -0.754057   -2.098450    0.000000
      9          1           0       -1.508114   -1.899923    0.000000
     10          1           0       -1.508114   -3.431241    0.000000
 ---------------------------------------------------------------------
 Rotational constants (GHZ):    387.1155896      9.7434912      9.5042738
 General basis read from cards:  (5D, 7F)
 There are     5 symmetry adapted cartesian basis functions of AG  symmetry.
 There are     0 symmetry adapted cartesian basis functions of BG  symmetry.
 There are     0 symmetry adapted cartesian basis functions of AU  symmetry.
 There are     5 symmetry adapted cartesian basis functions of BU  symmetry.
 There are     5 symmetry adapted basis functions of AG  symmetry.
 There are     0 symmetry adapted basis functions of BG  symmetry.
 There are     0 symmetry adapted basis functions of AU  symmetry.
 There are     5 symmetry adapted basis functions of BU  symmetry.
    10 basis functions,   100 primitive gaussians,    10 cartesian basis functions
     5 alpha electrons        5 beta electrons
       nuclear repulsion energy        11.4622022248 Hartrees.
 NAtoms=   10 NActive=   10 NUniq=    5 SFac= 4.00D+00 NAtFMM=   60 NAOKFM=F Big=F
 Integral buffers will be    131072 words long.
 Regular integral format.
 Two-electron integral symmetry is turned off.
 One-electron integrals computed using PRISM.
 NBasis=    10 RedAO= T EigKep=  1.72D-01  NBF=     5     0     0     5
 NBsUse=    10 1.00D-06 EigRej= -1.00D+00 NBFU=     5     0     0     5
 IOp(28)                       1
                        1                       0
                        2                       1
                        3                       1
                        4                      20
                        5                       0
                        6                       0
                        7                      10
                        8                       1
                        9                       4
                       10                       0
                       11              1073741824
                       12                      20
                       13                       2
                       14                  131070
                       15                       1
                       16                       1
                       17                  131073
                       18                       0
                       19                       0
                       20                       0
                       21                       2
                       22                  131070
                       23                       0
                       24                       0
                       25                       0
                       26                       0
                       27                   65535
                       28                       2
                       29                  131072
                       30                       0
 IHMeth                       1
 ib3: ISMode =                        0                       4
 Enter DskPsm, NBasis=  10 NBas6D=  10 NShell=  10 IDoSP=4.
 Out2e will use a cutoff of  1.00D-10
 FoFCou: FMM=F IPFlag=           0 FMFlag=           0 FMFlg1=           0
         NFxFlg=           0 DoJE=F BraDBF=F KetDBF=F FulRan=T
         wScrn=  0.000000 ICntrl=     600 IOpCl=  9 I1Cent=           0 NGrid=           0
         NMat0=    0 NMatS0=      0 NMatT0=    0 NMatD0=    0 NMtDS0=    0 NMtDT0=    0
 Symmetry not used in FoFCou.
 Entering PrmDigJobTyp =                      20
 LenSav and NKeep                       0                       0
 Entered Stor2E with KNTT1,2                       2                  131070
 Leave Stor2X
 Entering PrmDigJobTyp =                      20
 LenSav and NKeep                       0                       0
 Entered Stor2E with KNTT1,2                       2                  131056
 Leave Stor2X
 Entering PrmDigJobTyp =                      20
 LenSav and NKeep                       0                       0
 Entered Stor2E with KNTT1,2                       2                  131042
 Leave Stor2X
 Entering PrmDigJobTyp =                      20
 LenSav and NKeep                       0                       0
 Entered Stor2E with KNTT1,2                       2                  131028
 Leave Stor2X
 Entering PrmDigJobTyp =                      20
 LenSav and NKeep                       0                       0
 Entered Stor2E with KNTT1,2                       2                  131014
 Leave Stor2X
 Entering PrmDigJobTyp =                      20
 LenSav and NKeep                       0                       0
 Entered Stor2E with KNTT1,2                       2                  131000
 Leave Stor2X
 Entering PrmDigJobTyp =                      20
 LenSav and NKeep                       0                       0
 Entered Stor2E with KNTT1,2                       2                  130986
 Leave Stor2X
 Entering PrmDigJobTyp =                      20
 LenSav and NKeep                       0                       0
 Entered Stor2E with KNTT1,2                       2                  130972
 Leave Stor2X
 Entering PrmDigJobTyp =                      20
 LenSav and NKeep                       0                       0
 Entered Stor2E with KNTT1,2                       2                  130960
 Leave Stor2X
 Entering PrmDigJobTyp =                      20
 LenSav and NKeep                       0                       0
 Entered Stor2E with KNTT1,2                       2                  130944
 Leave Stor2X
 Entering PrmDigJobTyp =                      20
 LenSav and NKeep                       0                       0
 Entered Stor2E with KNTT1,2                       2                  130928
 Leave Stor2X
 Entering PrmDigJobTyp =                      20
 LenSav and NKeep                       0                       0
 Entered Stor2E with KNTT1,2                       2                  130912
 Leave Stor2X
 Entering PrmDigJobTyp =                      20
 LenSav and NKeep                       0                       0
 Entered Stor2E with KNTT1,2                       2                  130896
 Leave Stor2X
 Entering PrmDigJobTyp =                      20
 LenSav and NKeep                       0                       0
 Entered Stor2E with KNTT1,2                       2                  130880
 Leave Stor2X
 Entering PrmDigJobTyp =                      20
 LenSav and NKeep                       0                       0
 Entered Stor2E with KNTT1,2                       2                  130864
 Leave Stor2X
 Entering PrmDigJobTyp =                      20
 LenSav and NKeep                       0                       0
 Entered Stor2E with KNTT1,2                       2                  130848
 Leave Stor2X
 Entering PrmDigJobTyp =                      20
 LenSav and NKeep                       0                       0
 Entered Stor2E with KNTT1,2                       2                  130832
 Leave Stor2X
 Entering PrmDigJobTyp =                      20
 LenSav and NKeep                       0                       0
 Entered Stor2E with KNTT1,2                       2                  130816
 Leave Stor2X
 Entering PrmDigJobTyp =                      20
 LenSav and NKeep                       0                       0
 Entered Stor2E with KNTT1,2                       2                  130800
 Leave Stor2X
 Entering PrmDigJobTyp =                      20
 LenSav and NKeep                       0                       0
 Entered Stor2E with KNTT1,2                       2                  130784
 Leave Stor2X
 Entering PrmDigJobTyp =                      20
 LenSav and NKeep                       0                       0
 Entered Stor2E with KNTT1,2                       2                  130768
 Leave Stor2X
 Entering PrmDigJobTyp =                      20
 LenSav and NKeep                       0                       0
 Entered Stor2E with KNTT1,2                       2                  130752
 Leave Stor2X
 Entering PrmDigJobTyp =                      20
 LenSav and NKeep                       0                       0
 Entered Stor2E with KNTT1,2                       2                  130736
 Leave Stor2X
 Entering PrmDigJobTyp =                      20
 LenSav and NKeep                       0                       0
 Entered Stor2E with KNTT1,2                       2                  130720
 Leave Stor2X
 Entering PrmDigJobTyp =                      20
 LenSav and NKeep                       0                       0
 Entered Stor2E with KNTT1,2                       2                  130704
 Leave Stor2X
 Entering PrmDigJobTyp =                      20
 LenSav and NKeep                       0                       0
 Entered Stor2E with KNTT1,2                       2                  130700
 Leave Stor2X
 Entering PrmDigJobTyp =                      20
 LenSav and NKeep                       0                       0
 Entered Stor2E with KNTT1,2                       8                  130682
 Leave Stor2X
 Entering PrmDigJobTyp =                      20
 LenSav and NKeep                       0                       0
 Entered Stor2E with KNTT1,2                      22                  130672
 Leave Stor2X
 Entering PrmDigJobTyp =                      20
 LenSav and NKeep                       0                       0
 Entered Stor2E with KNTT1,2                      34                  130660
 Leave Stor2X
 Entering PrmDigJobTyp =                      20
 LenSav and NKeep                       0                       0
 Entered Stor2E with KNTT1,2                      52                  130654
 Leave Stor2X
 Entering PrmDigJobTyp =                      20
 LenSav and NKeep                       0                       0
 Entered Stor2E with KNTT1,2                      70                  130648
 Leave Stor2X
 Entering PrmDigJobTyp =                      20
 LenSav and NKeep                       0                       0
 Entered Stor2E with KNTT1,2                      88                  130642
 Leave Stor2X
 Entering PrmDigJobTyp =                      20
 LenSav and NKeep                       0                       0
 Entered Stor2E with KNTT1,2                     106                  130636
 Leave Stor2X
 Entering PrmDigJobTyp =                      20
 LenSav and NKeep                       0                       0
 Entered Stor2E with KNTT1,2                     114                  130630
 Leave Stor2X
 Entering PrmDigJobTyp =                      20
 LenSav and NKeep                       0                       0
 Entered Stor2E with KNTT1,2                     114                  130616
 Leave Stor2X
 Entering PrmDigJobTyp =                      20
 LenSav and NKeep                       0                       0
 Entered Stor2E with KNTT1,2                     114                  130602
 Leave Stor2X
 Entering PrmDigJobTyp =                      20
 LenSav and NKeep                       0                       0
 Entered Stor2E with KNTT1,2                     114                  130588
 Leave Stor2X
 Entering PrmDigJobTyp =                      20
 LenSav and NKeep                       0                       0
 Entered Stor2E with KNTT1,2                     114                  130574
 Leave Stor2X
 Entering PrmDigJobTyp =                      20
 LenSav and NKeep                       0                       0
 Entered Stor2E with KNTT1,2                     114                  130560
 Leave Stor2X
 Entering PrmDigJobTyp =                      20
 LenSav and NKeep                       0                       0
 Entered Stor2E with KNTT1,2                     114                  130550
 Leave Stor2X
 Entering PrmDigJobTyp =                      20
 LenSav and NKeep                       0                       0
 Entered Stor2E with KNTT1,2                     124                  130540
 Leave Stor2X
 Entering PrmDigJobTyp =                      20
 LenSav and NKeep                       0                       0
 Entered Stor2E with KNTT1,2                     134                  130530
 Leave Stor2X
 Entering PrmDigJobTyp =                      20
 LenSav and NKeep                       0                       0
 Entered Stor2E with KNTT1,2                     152                  130528
 Leave Stor2X
 Entering PrmDigJobTyp =                      20
 LenSav and NKeep                       0                       0
 Entered Stor2E with KNTT1,2                     160                  130516
 Leave Stor2X
 Entering PrmDigJobTyp =                      20
 LenSav and NKeep                       0                       0
 Entered Stor2E with KNTT1,2                     174                  130510
 Leave Stor2X
 Entering PrmDigJobTyp =                      20
 LenSav and NKeep                       0                       0
 Entered Stor2E with KNTT1,2                     174                  130506
 Leave Stor2X
 Entering PrmDigJobTyp =                      20
 LenSav and NKeep                       0                       0
 Entered Stor2E with KNTT1,2                     186                  130500
 Leave Stor2X
 Entering PrmDigJobTyp =                      20
 LenSav and NKeep                       0                       0
 Entered Stor2E with KNTT1,2                     186                  130498
 Leave Stor2X
 Entering PrmDigJobTyp =                      20
 LenSav and NKeep                       0                       0
 Entered Stor2E with KNTT1,2                     186                  130478
 Leave Stor2X
 Entering PrmDigJobTyp =                      20
 LenSav and NKeep                       0                       0
 Entered Stor2E with KNTT1,2                     186                  130458
 Leave Stor2X
 Entering PrmDigJobTyp =                      20
 LenSav and NKeep                       0                       0
 Entered Stor2E with KNTT1,2                     186                  130438
 Leave Stor2X
 Entering PrmDigJobTyp =                      20
 LenSav and NKeep                       0                       0
 Entered Stor2E with KNTT1,2                     186                  130418
 Leave Stor2X
 Entering PrmDigJobTyp =                      20
 LenSav and NKeep                       0                       0
 Entered Stor2E with KNTT1,2                     186                  130398
 Leave Stor2X
 Entering PrmDigJobTyp =                      20
 LenSav and NKeep                       0                       0
 Entered Stor2E with KNTT1,2                     186                  130378
 Leave Stor2X
 Entering PrmDigJobTyp =                      20
 LenSav and NKeep                       0                       0
 Entered Stor2E with KNTT1,2                     186                  130358
 Leave Stor2X
 Entering PrmDigJobTyp =                      20
 LenSav and NKeep                       0                       0
 Entered Stor2E with KNTT1,2                     186                  130338
 Leave Stor2X
 Entering PrmDigJobTyp =                      20
 LenSav and NKeep                       0                       0
 Entered Stor2E with KNTT1,2                     186                  130318
 Leave Stor2X
 Entering PrmDigJobTyp =                      20
 LenSav and NKeep                       0                       0
 Entered Stor2E with KNTT1,2                     186                  130298
 Leave Stor2X
 Entering PrmDigJobTyp =                      20
 LenSav and NKeep                       0                       0
 Entered Stor2E with KNTT1,2                     204                  130284
 Leave Stor2X
 Entering PrmDigJobTyp =                      20
 LenSav and NKeep                       0                       0
 Entered Stor2E with KNTT1,2                     224                  130272
 Leave Stor2X
 Entering PrmDigJobTyp =                      20
 LenSav and NKeep                       0                       0
 Entered Stor2E with KNTT1,2                     240                  130256
 Leave Stor2X
 Entering PrmDigJobTyp =                      20
 LenSav and NKeep                       0                       0
 Entered Stor2E with KNTT1,2                     260                  130244
 Leave Stor2X
 Entering PrmDigJobTyp =                      20
 LenSav and NKeep                       0                       0
 Entered Stor2E with KNTT1,2                     280                  130232
 Leave Stor2X
 Entering PrmDigJobTyp =                      20
 LenSav and NKeep                       0                       0
 Entered Stor2E with KNTT1,2                     298                  130218
 Leave Stor2X
 Entering PrmDigJobTyp =                      20
 LenSav and NKeep                       0                       0
 Entered Stor2E with KNTT1,2                     318                  130206
 Leave Stor2X
 Entering PrmDigJobTyp =                      20
 LenSav and NKeep                       0                       0
 Entered Stor2E with KNTT1,2                     338                  130194
 Leave Stor2X
 Entering PrmDigJobTyp =                      20
 LenSav and NKeep                       0                       0
 Entered Stor2E with KNTT1,2                     338                  130190
 Leave Stor2X
 Entering PrmDigJobTyp =                      20
 LenSav and NKeep                       0                       0
 Entered Stor2E with KNTT1,2                     354                  130180
 Leave Stor2X
 Entering PrmDigJobTyp =                      20
 LenSav and NKeep                       0                       0
 Entered Stor2E with KNTT1,2                     368                  130168
 Leave Stor2X
 Entering PrmDigJobTyp =                      20
 LenSav and NKeep                       0                       0
 Entered Stor2E with KNTT1,2                     384                  130158
 Leave Stor2X
 Entering PrmDigJobTyp =                      20
 LenSav and NKeep                       0                       0
 Entered Stor2E with KNTT1,2                     386                  130158
 Leave Stor2X
 Entering PrmDigJobTyp =                      20
 LenSav and NKeep                       0                       0
 Entered Stor2E with KNTT1,2                     406                  130140
 Leave Stor2X
 Entering PrmDigJobTyp =                      20
 LenSav and NKeep                       0                       0
 Entered Stor2E with KNTT1,2                     430                  130126
 Leave Stor2X
 Entering PrmDigJobTyp =                      20
 LenSav and NKeep                       0                       0
 Entered Stor2E with KNTT1,2                     452                  130114
 Leave Stor2X
 Entering PrmDigJobTyp =                      20
 LenSav and NKeep                       0                       0
 Entered Stor2E with KNTT1,2                     452                  130098
 Leave Stor2X
 Entering PrmDigJobTyp =                      20
 LenSav and NKeep                       0                       0
 Entered Stor2E with KNTT1,2                     452                  130082
 Leave Stor2X
 Entering PrmDigJobTyp =                      20
 LenSav and NKeep                       0                       0
 Entered Stor2E with KNTT1,2                     452                  130066
 Leave Stor2X
 Entering PrmDigJobTyp =                      20
 LenSav and NKeep                       0                       0
 Entered Stor2E with KNTT1,2                     452                  130054
 Leave Stor2X
 Entering PrmDigJobTyp =                      20
 LenSav and NKeep                       0                       0
 Entered Stor2E with KNTT1,2                     468                  130044
 Leave Stor2X
 Entering PrmDigJobTyp =                      20
 LenSav and NKeep                       0                       0
 Entered Stor2E with KNTT1,2                     482                  130032
 Leave Stor2X
 Entering PrmDigJobTyp =                      20
 LenSav and NKeep                       0                       0
 Entered Stor2E with KNTT1,2                     498                  130022
 Leave Stor2X
 Entering PrmDigJobTyp =                      20
 LenSav and NKeep                       0                       0
 Entered Stor2E with KNTT1,2                     510                  130012
 Leave Stor2X
 Entering PrmDigJobTyp =                      20
 LenSav and NKeep                       0                       0
 Entered Stor2E with KNTT1,2                     510                  130010
 Leave Stor2X
 Entering PrmDigJobTyp =                      20
 LenSav and NKeep                       0                       0
 Entered Stor2E with KNTT1,2                     528                  129996
 Leave Stor2X
 Entering PrmDigJobTyp =                      20
 LenSav and NKeep                       0                       0
 Entered Stor2E with KNTT1,2                     546                  129986
 Leave Stor2X
 Entering PrmDigJobTyp =                      20
 LenSav and NKeep                       0                       0
 Entered Stor2E with KNTT1,2                     552                  129980
 Leave Stor2X
 Entering PrmDigJobTyp =                      20
 LenSav and NKeep                       0                       0
 Entered Stor2E with KNTT1,2                     552                  129956
 Leave Stor2X
 Entering PrmDigJobTyp =                      20
 LenSav and NKeep                       0                       0
 Entered Stor2E with KNTT1,2                     552                  129932
 Leave Stor2X
 Entering PrmDigJobTyp =                      20
 LenSav and NKeep                       0                       0
 Entered Stor2E with KNTT1,2                     552                  129920
 Leave Stor2X
 Entering PrmDigJobTyp =                      20
 LenSav and NKeep                       0                       0
 Entered Stor2E with KNTT1,2                     574                  129904
 Leave Stor2X
 Entering PrmDigJobTyp =                      20
 LenSav and NKeep                       0                       0
 Entered Stor2E with KNTT1,2                     598                  129890
 Leave Stor2X
 Entering PrmDigJobTyp =                      20
 LenSav and NKeep                       0                       0
 Entered Stor2E with KNTT1,2                     598                  129888
 Leave Stor2X
 Entering PrmDigJobTyp =                      20
 LenSav and NKeep                       0                       0
 Entered Stor2E with KNTT1,2                     614                  129880
 Leave Stor2X
 Entering PrmDigJobTyp =                      20
 LenSav and NKeep                       0                       0
 Entered Stor2E with KNTT1,2                     640                  129860
 Leave Stor2X
 Entering PrmDigJobTyp =                      20
 LenSav and NKeep                       0                       0
 Entered Stor2E with KNTT1,2                     646                  129852
 Leave Stor2X
 Entering PrmDigJobTyp =                      20
 LenSav and NKeep                       0                       0
 Entered Stor2E with KNTT1,2                     660                  129848
 Leave Stor2X
 Entering PrmDigJobTyp =                      20
 LenSav and NKeep                       0                       0
 Entered Stor2E with KNTT1,2                     666                  129842
 Leave Stor2X
 Entering PrmDigJobTyp =                      20
 LenSav and NKeep                       0                       0
 Entered Stor2E with KNTT1,2                     666                  129816
 Leave Stor2X
 Entering PrmDigJobTyp =                      20
 LenSav and NKeep                       0                       0
 Entered Stor2E with KNTT1,2                     666                  129790
 Leave Stor2X
 Entering PrmDigJobTyp =                      20
 LenSav and NKeep                       0                       0
 Entered Stor2E with KNTT1,2                     666                  129764
 Leave Stor2X
 Entering PrmDigJobTyp =                      20
 LenSav and NKeep                       0                       0
 Entered Stor2E with KNTT1,2                     666                  129762
 Leave Stor2X
 Entering PrmDigJobTyp =                      20
 LenSav and NKeep                       0                       0
 Entered Stor2E with KNTT1,2                     692                  129748
 Leave Stor2X
 Entering PrmDigJobTyp =                      20
 LenSav and NKeep                       0                       0
 Entered Stor2E with KNTT1,2                     716                  129732
 Leave Stor2X
 Entering PrmDigJobTyp =                      20
 LenSav and NKeep                       0                       0
 Entered Stor2E with KNTT1,2                     730                  129722
 Leave Stor2X
 Entering PrmDigJobTyp =                      20
 LenSav and NKeep                       0                       0
 Entered Stor2E with KNTT1,2                     750                  129710
 Leave Stor2X
 Entering PrmDigJobTyp =                      20
 LenSav and NKeep                       0                       0
 Entered Stor2E with KNTT1,2                     782                  129692
 Leave Stor2X
 Entering PrmDigJobTyp =                      20
 LenSav and NKeep                       0                       0
 Entered Stor2E with KNTT1,2                     802                  129682
 Leave Stor2X
 Entering PrmDigJobTyp =                      20
 LenSav and NKeep                       0                       0
 Entered Stor2E with KNTT1,2                     818                  129674
 Leave Stor2X
 Entering PrmDigJobTyp =                      20
 LenSav and NKeep                       0                       0
 Entered Stor2E with KNTT1,2                     834                  129666
 Leave Stor2X
 Entering PrmDigJobTyp =                      20
 LenSav and NKeep                       0                       0
 Entered Stor2E with KNTT1,2                     846                  129658
 Leave Stor2X
 Entering PrmDigJobTyp =                      20
 LenSav and NKeep                       0                       0
 Entered Stor2E with KNTT1,2                     846                  129636
 Leave Stor2X
 Entering PrmDigJobTyp =                      20
 LenSav and NKeep                       0                       0
 Entered Stor2E with KNTT1,2                     846                  129618
 Leave Stor2X
 Entering PrmDigJobTyp =                      20
 LenSav and NKeep                       0                       0
 Entered Stor2E with KNTT1,2                     866                  129606
 Leave Stor2X
 Entering PrmDigJobTyp =                      20
 LenSav and NKeep                       0                       0
 Entered Stor2E with KNTT1,2                     878                  129598
 Leave Stor2X
 Entering PrmDigJobTyp =                      20
 LenSav and NKeep                       0                       0
 Entered Stor2E with KNTT1,2                     886                  129590
 Leave Stor2X
 Entering PrmDigJobTyp =                      20
 LenSav and NKeep                       0                       0
 Entered Stor2E with KNTT1,2                     914                  129578
 Leave Stor2X
 Entering PrmDigJobTyp =                      20
 LenSav and NKeep                       0                       0
 Entered Stor2E with KNTT1,2                     918                  129570
 Leave Stor2X
 Entering PrmDigJobTyp =                      20
 LenSav and NKeep                       0                       0
 Entered Stor2E with KNTT1,2                     930                  129570
 Leave Stor2X
 Entering PrmDigJobTyp =                      20
 LenSav and NKeep                       0                       0
 Entered Stor2E with KNTT1,2                     938                  129562
 Leave Stor2X
 Entering PrmDigJobTyp =                      20
 LenSav and NKeep                       0                       0
 Entered Stor2E with KNTT1,2                     940                  129558
 Leave Stor2X
 Entering PrmDigJobTyp =                      20
 LenSav and NKeep                       0                       0
 Entered Stor2E with KNTT1,2                     940                  129528
 Leave Stor2X
 Entering PrmDigJobTyp =                      20
 LenSav and NKeep                       0                       0
 Entered Stor2E with KNTT1,2                     940                  129498
 Leave Stor2X
 Entering PrmDigJobTyp =                      20
 LenSav and NKeep                       0                       0
 Entered Stor2E with KNTT1,2                     940                  129478
 Leave Stor2X
 Entering PrmDigJobTyp =                      20
 LenSav and NKeep                       0                       0
 Entered Stor2E with KNTT1,2                     972                  129464
 Leave Stor2X
 Entering PrmDigJobTyp =                      20
 LenSav and NKeep                       0                       0
 Entered Stor2E with KNTT1,2                    1000                  129446
 Leave Stor2X
 Entering PrmDigJobTyp =                      20
 LenSav and NKeep                       0                       0
 Entered Stor2E with KNTT1,2                    1008                  129442
 Leave Stor2X
 Entering PrmDigJobTyp =                      20
 LenSav and NKeep                       0                       0
 Entered Stor2E with KNTT1,2                    1032                  129434
 Leave Stor2X
 Entering PrmDigJobTyp =                      20
 LenSav and NKeep                       0                       0
 Entered Stor2E with KNTT1,2                    1072                  129416
 Leave Stor2X
 Entering PrmDigJobTyp =                      20
 LenSav and NKeep                       0                       0
 Entered Stor2E with KNTT1,2                    1084                  129406
 Leave Stor2X
 Entering PrmDigJobTyp =                      20
 LenSav and NKeep                       0                       0
 Entered Stor2E with KNTT1,2                    1104                  129402
 Leave Stor2X
 Entering PrmDigJobTyp =                      20
 LenSav and NKeep                       0                       0
 Entered Stor2E with KNTT1,2                    1116                  129390
 Leave Stor2X
 Entering PrmDigJobTyp =                      20
 LenSav and NKeep                       0                       0
 Entered Stor2E with KNTT1,2                    1132                  129374
 Leave Stor2X
 Entering PrmDigJobTyp =                      20
 LenSav and NKeep                       0                       0
 Entered Stor2E with KNTT1,2                    1144                  129370
 Leave Stor2X
 Entering PrmDigJobTyp =                      20
 LenSav and NKeep                       0                       0
 Entered Stor2E with KNTT1,2                    1152                  129358
 Leave Stor2X
 Entering PrmDigJobTyp =                      20
 LenSav and NKeep                       0                       0
 Entered Stor2E with KNTT1,2                    1152                  129338
 Leave Stor2X
 Entering PrmDigJobTyp =                      20
 LenSav and NKeep                       0                       0
 Entered Stor2E with KNTT1,2                    1170                  129330
 Leave Stor2X
 Entering PrmDigJobTyp =                      20
 LenSav and NKeep                       0                       0
 Entered Stor2E with KNTT1,2                    1174                  129326
 Leave Stor2X
 Entering PrmDigJobTyp =                      20
 LenSav and NKeep                       0                       0
 Entered Stor2E with KNTT1,2                    1190                  129322
 Leave Stor2X
 Entering PrmDigJobTyp =                      20
 LenSav and NKeep                       0                       0
 Entered Stor2E with KNTT1,2                    1192                  129318
 Leave Stor2X
 Entering PrmDigJobTyp =                      20
 LenSav and NKeep                       0                       0
 Entered Stor2E with KNTT1,2                    1198                  129318
 Leave Stor2X
 Entering PrmDigJobTyp =                      20
 LenSav and NKeep                       0                       0
 Entered Stor2E with KNTT1,2                    1202                  129314
 Leave Stor2X
 Entering PrmDigJobTyp =                      20
 LenSav and NKeep                       0                       0
 Entered Stor2E with KNTT1,2                    1202                  129310
 Leave Stor2X
 Entering PrmDigJobTyp =                      20
 LenSav and NKeep                       0                       0
 Entered Stor2E with KNTT1,2                    1206                  129306
 Leave Stor2X
 Entering PrmDigJobTyp =                      20
 LenSav and NKeep                       0                       0
 Entered Stor2E with KNTT1,2                    1206                  129304
 Leave Stor2X
 Entering PrmDigJobTyp =                      20
 LenSav and NKeep                       0                       0
 Entered Stor2E with KNTT1,2                    1206                  129284
 Leave Stor2X
 Entering PrmDigJobTyp =                      20
 LenSav and NKeep                       0                       0
 Entered Stor2E with KNTT1,2                    1224                  129276
 Leave Stor2X
 Entering PrmDigJobTyp =                      20
 LenSav and NKeep                       0                       0
 Entered Stor2E with KNTT1,2                    1232                  129276
 Leave Stor2X
 Entering PrmDigJobTyp =                      20
 LenSav and NKeep                       0                       0
 Entered Stor2E with KNTT1,2                    1244                  129268
 Leave Stor2X
 Entering PrmDigJobTyp =                      20
 LenSav and NKeep                       0                       0
 Entered Stor2E with KNTT1,2                    1250                  129268
 Leave Stor2X
 Entering PrmDigJobTyp =                      20
 LenSav and NKeep                       0                       0
 Entered Stor2E with KNTT1,2                    1252                  129264
 Leave Stor2X
 Entering PrmDigJobTyp =                      20
 LenSav and NKeep                       0                       0
 Entered Stor2E with KNTT1,2                    1256                  129260
 Leave Stor2X
 Entering PrmDigJobTyp =                      20
 LenSav and NKeep                       0                       0
 Entered Stor2E with KNTT1,2                    1260                  129260
 Leave Stor2X
 Entering PrmDigJobTyp =                      20
 LenSav and NKeep                       0                       0
 Entered Stor2E with KNTT1,2                    1260                  129252
 Leave Stor2X
 Entering PrmDigJobTyp =                      20
 LenSav and NKeep                       0                       0
 Entered Stor2E with KNTT1,2                    1262                  129252
 Leave Stor2X
 In PrSumR
 Called IWRITE
         1540 integrals produced for a total of         1540.
 Initial guess from the checkpoint file:  "h10.chk"
 B after Tr=     0.000000    0.000000    0.000000
         Rot=    0.997462    0.000000    0.000000   -0.071197 Ang=  -8.17 deg.
 Initial guess <Sx>= 0.0000 <Sy>= 0.0000 <Sz>= 0.0000 <S**2>= 0.0000 S= 0.0000
 Two-electron integrals will be kept in memory, NGetB=      152788.
 Requested convergence on RMS density matrix=1.00D-08 within 128 cycles.
 Requested convergence on MAX density matrix=1.00D-06.
 Requested convergence on             energy=1.00D-06.
 No special actions if energy rises.
 Density File Not Found. Continue as usual
 SCF Done:  E(GHF) =  -4.84467872573     A.U. after   14 cycles
            NFock= 14  Conv=0.83D-08     -V/T= 1.9157
 <Sx>= 0.0000 <Sy>= 0.0000 <Sz>= 0.0000 <S**2>= 0.0000 S= 0.0000
 <L.S>= 0.000000000000E+00
 Range of M.O.s used for correlation:     1    10
 NBasis=    10 NAE=    10 NBE=     0 NFC=     0 NFV=     0
 NROrb=     20 NOA=    10 NOB=     0 NVA=    10 NVB=     0

 **** Warning!!: The smallest alpha delta epsilon is  0.62942431D-01

 jaja DoHack is true or false? T
 jaja in hckghf.F, NBasis=                      10
 jaja in hckGHF/FixOG, LC =                      800
 jaja in hckGHF/FixOG, IRwC=                      548
 bfr conversion (real):
                 1             2             3             4             5 
      1a  0.132388D-01 -0.107173D-02  0.392675D-01  0.116242D-01  0.106467D+00
      1b  0.107173D-02  0.132388D-01 -0.116242D-01  0.392675D-01 -0.111312D-01
      2a  0.138915D+00 -0.112458D-01  0.262815D+00  0.778000D-01  0.351101D+00
      2b  0.112458D-01  0.138915D+00 -0.778000D-01  0.262815D+00 -0.367081D-01
      3a  0.157117D+00 -0.127193D-01  0.284532D+00  0.842287D-01  0.347116D+00
      3b  0.127193D-01  0.157117D+00 -0.842287D-01  0.284532D+00 -0.362915D-01
      4a  0.248646D+00 -0.201290D-01  0.190590D+00  0.564196D-01 -0.214787D+00
      4b  0.201290D-01  0.248646D+00 -0.564196D-01  0.190590D+00  0.224563D-01
      5a  0.249789D+00 -0.202214D-01  0.167948D+00  0.497171D-01 -0.252644D+00
      5b  0.202214D-01  0.249789D+00 -0.497171D-01  0.167948D+00  0.264143D-01
      6a  0.249789D+00 -0.202214D-01 -0.167948D+00 -0.497171D-01 -0.252644D+00
      6b  0.202214D-01  0.249789D+00  0.497171D-01 -0.167948D+00  0.264143D-01
      7a  0.248646D+00 -0.201290D-01 -0.190590D+00 -0.564196D-01 -0.214787D+00
      7b  0.201290D-01  0.248646D+00  0.564196D-01 -0.190590D+00  0.224563D-01
      8a  0.157117D+00 -0.127193D-01 -0.284532D+00 -0.842287D-01  0.347116D+00
      8b  0.127193D-01  0.157117D+00  0.842287D-01 -0.284532D+00 -0.362915D-01
      9a  0.138915D+00 -0.112458D-01 -0.262815D+00 -0.778000D-01  0.351101D+00
      9b  0.112458D-01  0.138915D+00  0.778000D-01 -0.262815D+00 -0.367081D-01
     10a  0.132388D-01 -0.107173D-02 -0.392675D-01 -0.116242D-01  0.106467D+00
     10b  0.107173D-02  0.132388D-01  0.116242D-01 -0.392675D-01 -0.111312D-01
                 6             7             8             9            10 
      1a  0.111312D-01 -0.147842D+00 -0.194652D-01  0.602804D+00  0.459806D+00
      1b  0.106467D+00  0.194652D-01 -0.147842D+00 -0.459806D+00  0.602804D+00
      2a  0.367081D-01 -0.276664D+00 -0.364262D-01 -0.232204D+00 -0.177120D+00
      2b  0.351101D+00  0.364262D-01 -0.276664D+00  0.177120D+00 -0.232204D+00
      3a  0.362915D-01 -0.229475D+00 -0.302132D-01 -0.172274D+00 -0.131407D+00
      3b  0.347116D+00  0.302132D-01 -0.229475D+00  0.131407D+00 -0.172274D+00
      4a -0.224563D-01  0.490539D+00  0.645854D-01  0.861704D-01  0.657290D-01
      4b -0.214787D+00 -0.645854D-01  0.490539D+00 -0.657290D-01  0.861704D-01
      5a -0.264143D-01  0.471463D+00  0.620739D-01  0.150842D+00  0.115059D+00
      5b -0.252644D+00 -0.620739D-01  0.471463D+00 -0.115059D+00  0.150842D+00
      6a -0.264143D-01 -0.471463D+00 -0.620739D-01 -0.150842D+00 -0.115059D+00
      6b -0.252644D+00  0.620739D-01 -0.471463D+00  0.115059D+00 -0.150842D+00
      7a -0.224563D-01 -0.490539D+00 -0.645854D-01 -0.861704D-01 -0.657290D-01
      7b -0.214787D+00  0.645854D-01 -0.490539D+00  0.657290D-01 -0.861704D-01
      8a  0.362915D-01  0.229475D+00  0.302132D-01  0.172274D+00  0.131407D+00
      8b  0.347116D+00 -0.302132D-01  0.229475D+00 -0.131407D+00  0.172274D+00
      9a  0.367081D-01  0.276664D+00  0.364262D-01  0.232204D+00  0.177120D+00
      9b  0.351101D+00 -0.364262D-01  0.276664D+00 -0.177120D+00  0.232204D+00
     10a  0.111312D-01  0.147842D+00  0.194652D-01 -0.602804D+00 -0.459806D+00
     10b  0.106467D+00 -0.194652D-01  0.147842D+00  0.459806D+00 -0.602804D+00
                11            12            13            14            15 
      1a  0.608829D+00 -0.464477D+00 -0.223913D-01  0.635363D-01 -0.496089D-01
      1b  0.464477D+00  0.608829D+00  0.635363D-01  0.223913D-01  0.549573D-02
      2a -0.201663D+00  0.153849D+00 -0.132127D+00  0.374915D+00 -0.749844D+00
      2b -0.153849D+00 -0.201663D+00  0.374915D+00  0.132127D+00  0.830686D-01
      3a -0.168422D+00  0.128490D+00  0.167298D+00 -0.474715D+00  0.848438D+00
      3b -0.128490D+00 -0.168422D+00 -0.474715D+00 -0.167298D+00 -0.939909D-01
      4a  0.162554D-01 -0.124013D-01 -0.232281D+00  0.659106D+00 -0.500941D+00
      4b  0.124013D-01  0.162554D-01  0.659106D+00  0.232281D+00  0.554948D-01
      5a  0.864552D-01 -0.659568D-01  0.225797D+00 -0.640706D+00  0.391143D+00
      5b  0.659568D-01  0.864552D-01 -0.640706D+00 -0.225797D+00 -0.433312D-01
      6a  0.864552D-01 -0.659568D-01 -0.225797D+00  0.640706D+00  0.391143D+00
      6b  0.659568D-01  0.864552D-01  0.640706D+00  0.225797D+00 -0.433312D-01
      7a  0.162554D-01 -0.124013D-01  0.232281D+00 -0.659106D+00 -0.500941D+00
      7b  0.124013D-01  0.162554D-01 -0.659106D+00 -0.232281D+00  0.554948D-01
      8a -0.168422D+00  0.128490D+00 -0.167298D+00  0.474715D+00  0.848438D+00
      8b -0.128490D+00 -0.168422D+00  0.474715D+00  0.167298D+00 -0.939909D-01
      9a -0.201663D+00  0.153849D+00  0.132127D+00 -0.374915D+00 -0.749844D+00
      9b -0.153849D+00 -0.201663D+00 -0.374915D+00 -0.132127D+00  0.830686D-01
     10a  0.608829D+00 -0.464477D+00  0.223913D-01 -0.635363D-01 -0.496089D-01
     10b  0.464477D+00  0.608829D+00 -0.635363D-01 -0.223913D-01  0.549573D-02
                16            17            18            19            20 
      1a -0.549573D-02 -0.113902D-02  0.126460D-03  0.454882D-02  0.379305D-01
      1b -0.496089D-01 -0.126460D-03 -0.113902D-02  0.379305D-01 -0.454882D-02
      2a -0.830686D-01 -0.880483D+00  0.977556D-01 -0.767383D-01 -0.639886D+00
      2b -0.749844D+00 -0.977556D-01 -0.880483D+00 -0.639886D+00  0.767383D-01
      3a  0.939909D-01  0.887690D+00 -0.985558D-01  0.639722D-01  0.533435D+00
      3b  0.848438D+00  0.985558D-01  0.887690D+00  0.533435D+00 -0.639722D-01
      4a -0.554948D-01  0.491965D+00 -0.546205D-01  0.127844D+00  0.106604D+01
      4b -0.500941D+00  0.546205D-01  0.491965D+00  0.106604D+01 -0.127844D+00
      5a  0.433312D-01 -0.668271D+00  0.741947D-01 -0.121802D+00 -0.101565D+01
      5b  0.391143D+00 -0.741947D-01 -0.668271D+00 -0.101565D+01  0.121802D+00
      6a  0.433312D-01  0.668271D+00 -0.741947D-01 -0.121802D+00 -0.101565D+01
      6b  0.391143D+00  0.741947D-01  0.668271D+00 -0.101565D+01  0.121802D+00
      7a -0.554948D-01 -0.491965D+00  0.546205D-01  0.127844D+00  0.106604D+01
      7b -0.500941D+00 -0.546205D-01 -0.491965D+00  0.106604D+01 -0.127844D+00
      8a  0.939909D-01 -0.887690D+00  0.985558D-01  0.639722D-01  0.533435D+00
      8b  0.848438D+00 -0.985558D-01 -0.887690D+00  0.533435D+00 -0.639722D-01
      9a -0.830686D-01  0.880483D+00 -0.977556D-01 -0.767383D-01 -0.639886D+00
      9b -0.749844D+00  0.977556D-01  0.880483D+00 -0.639886D+00  0.767383D-01
     10a -0.549573D-02  0.113902D-02 -0.126460D-03  0.454882D-02  0.379305D-01
     10b -0.496089D-01  0.126460D-03  0.113902D-02  0.379305D-01 -0.454882D-02
 bfr conversion (imaginary):
                 1             2             3             4             5 
      1a  0.000000D+00  0.000000D+00  0.000000D+00  0.000000D+00  0.000000D+00
      1b  0.000000D+00  0.000000D+00  0.000000D+00  0.000000D+00  0.000000D+00
      2a  0.000000D+00  0.000000D+00  0.000000D+00  0.000000D+00  0.000000D+00
      2b  0.000000D+00  0.000000D+00  0.000000D+00  0.000000D+00  0.000000D+00
      3a  0.000000D+00  0.000000D+00  0.000000D+00  0.000000D+00  0.000000D+00
      3b  0.000000D+00  0.000000D+00  0.000000D+00  0.000000D+00  0.000000D+00
      4a  0.000000D+00  0.000000D+00  0.000000D+00  0.000000D+00  0.000000D+00
      4b  0.000000D+00  0.000000D+00  0.000000D+00  0.000000D+00  0.000000D+00
      5a  0.000000D+00  0.000000D+00  0.000000D+00  0.000000D+00  0.000000D+00
      5b  0.000000D+00  0.000000D+00  0.000000D+00  0.000000D+00  0.000000D+00
      6a  0.000000D+00  0.000000D+00  0.000000D+00  0.000000D+00  0.000000D+00
      6b  0.000000D+00  0.000000D+00  0.000000D+00  0.000000D+00  0.000000D+00
      7a  0.000000D+00  0.000000D+00  0.000000D+00  0.000000D+00  0.000000D+00
      7b  0.000000D+00  0.000000D+00  0.000000D+00  0.000000D+00  0.000000D+00
      8a  0.000000D+00  0.000000D+00  0.000000D+00  0.000000D+00  0.000000D+00
      8b  0.000000D+00  0.000000D+00  0.000000D+00  0.000000D+00  0.000000D+00
      9a  0.000000D+00  0.000000D+00  0.000000D+00  0.000000D+00  0.000000D+00
      9b  0.000000D+00  0.000000D+00  0.000000D+00  0.000000D+00  0.000000D+00
     10a  0.000000D+00  0.000000D+00  0.000000D+00  0.000000D+00  0.000000D+00
     10b  0.000000D+00  0.000000D+00  0.000000D+00  0.000000D+00  0.000000D+00
                 6             7             8             9            10 
      1a  0.000000D+00  0.000000D+00  0.000000D+00  0.000000D+00  0.000000D+00
      1b  0.000000D+00  0.000000D+00  0.000000D+00  0.000000D+00  0.000000D+00
      2a  0.000000D+00  0.000000D+00  0.000000D+00  0.000000D+00  0.000000D+00
      2b  0.000000D+00  0.000000D+00  0.000000D+00  0.000000D+00  0.000000D+00
      3a  0.000000D+00  0.000000D+00  0.000000D+00  0.000000D+00  0.000000D+00
      3b  0.000000D+00  0.000000D+00  0.000000D+00  0.000000D+00  0.000000D+00
      4a  0.000000D+00  0.000000D+00  0.000000D+00  0.000000D+00  0.000000D+00
      4b  0.000000D+00  0.000000D+00  0.000000D+00  0.000000D+00  0.000000D+00
      5a  0.000000D+00  0.000000D+00  0.000000D+00  0.000000D+00  0.000000D+00
      5b  0.000000D+00  0.000000D+00  0.000000D+00  0.000000D+00  0.000000D+00
      6a  0.000000D+00  0.000000D+00  0.000000D+00  0.000000D+00  0.000000D+00
      6b  0.000000D+00  0.000000D+00  0.000000D+00  0.000000D+00  0.000000D+00
      7a  0.000000D+00  0.000000D+00  0.000000D+00  0.000000D+00  0.000000D+00
      7b  0.000000D+00  0.000000D+00  0.000000D+00  0.000000D+00  0.000000D+00
      8a  0.000000D+00  0.000000D+00  0.000000D+00  0.000000D+00  0.000000D+00
      8b  0.000000D+00  0.000000D+00  0.000000D+00  0.000000D+00  0.000000D+00
      9a  0.000000D+00  0.000000D+00  0.000000D+00  0.000000D+00  0.000000D+00
      9b  0.000000D+00  0.000000D+00  0.000000D+00  0.000000D+00  0.000000D+00
     10a  0.000000D+00  0.000000D+00  0.000000D+00  0.000000D+00  0.000000D+00
     10b  0.000000D+00  0.000000D+00  0.000000D+00  0.000000D+00  0.000000D+00
                11            12            13            14            15 
      1a  0.000000D+00  0.000000D+00  0.000000D+00  0.000000D+00  0.000000D+00
      1b  0.000000D+00  0.000000D+00  0.000000D+00  0.000000D+00  0.000000D+00
      2a  0.000000D+00  0.000000D+00  0.000000D+00  0.000000D+00  0.000000D+00
      2b  0.000000D+00  0.000000D+00  0.000000D+00  0.000000D+00  0.000000D+00
      3a  0.000000D+00  0.000000D+00  0.000000D+00  0.000000D+00  0.000000D+00
      3b  0.000000D+00  0.000000D+00  0.000000D+00  0.000000D+00  0.000000D+00
      4a  0.000000D+00  0.000000D+00  0.000000D+00  0.000000D+00  0.000000D+00
      4b  0.000000D+00  0.000000D+00  0.000000D+00  0.000000D+00  0.000000D+00
      5a  0.000000D+00  0.000000D+00  0.000000D+00  0.000000D+00  0.000000D+00
      5b  0.000000D+00  0.000000D+00  0.000000D+00  0.000000D+00  0.000000D+00
      6a  0.000000D+00  0.000000D+00  0.000000D+00  0.000000D+00  0.000000D+00
      6b  0.000000D+00  0.000000D+00  0.000000D+00  0.000000D+00  0.000000D+00
      7a  0.000000D+00  0.000000D+00  0.000000D+00  0.000000D+00  0.000000D+00
      7b  0.000000D+00  0.000000D+00  0.000000D+00  0.000000D+00  0.000000D+00
      8a  0.000000D+00  0.000000D+00  0.000000D+00  0.000000D+00  0.000000D+00
      8b  0.000000D+00  0.000000D+00  0.000000D+00  0.000000D+00  0.000000D+00
      9a  0.000000D+00  0.000000D+00  0.000000D+00  0.000000D+00  0.000000D+00
      9b  0.000000D+00  0.000000D+00  0.000000D+00  0.000000D+00  0.000000D+00
     10a  0.000000D+00  0.000000D+00  0.000000D+00  0.000000D+00  0.000000D+00
     10b  0.000000D+00  0.000000D+00  0.000000D+00  0.000000D+00  0.000000D+00
                16            17            18            19            20 
      1a  0.000000D+00  0.000000D+00  0.000000D+00  0.000000D+00  0.000000D+00
      1b  0.000000D+00  0.000000D+00  0.000000D+00  0.000000D+00  0.000000D+00
      2a  0.000000D+00  0.000000D+00  0.000000D+00  0.000000D+00  0.000000D+00
      2b  0.000000D+00  0.000000D+00  0.000000D+00  0.000000D+00  0.000000D+00
      3a  0.000000D+00  0.000000D+00  0.000000D+00  0.000000D+00  0.000000D+00
      3b  0.000000D+00  0.000000D+00  0.000000D+00  0.000000D+00  0.000000D+00
      4a  0.000000D+00  0.000000D+00  0.000000D+00  0.000000D+00  0.000000D+00
      4b  0.000000D+00  0.000000D+00  0.000000D+00  0.000000D+00  0.000000D+00
      5a  0.000000D+00  0.000000D+00  0.000000D+00  0.000000D+00  0.000000D+00
      5b  0.000000D+00  0.000000D+00  0.000000D+00  0.000000D+00  0.000000D+00
      6a  0.000000D+00  0.000000D+00  0.000000D+00  0.000000D+00  0.000000D+00
      6b  0.000000D+00  0.000000D+00  0.000000D+00  0.000000D+00  0.000000D+00
      7a  0.000000D+00  0.000000D+00  0.000000D+00  0.000000D+00  0.000000D+00
      7b  0.000000D+00  0.000000D+00  0.000000D+00  0.000000D+00  0.000000D+00
      8a  0.000000D+00  0.000000D+00  0.000000D+00  0.000000D+00  0.000000D+00
      8b  0.000000D+00  0.000000D+00  0.000000D+00  0.000000D+00  0.000000D+00
      9a  0.000000D+00  0.000000D+00  0.000000D+00  0.000000D+00  0.000000D+00
      9b  0.000000D+00  0.000000D+00  0.000000D+00  0.000000D+00  0.000000D+00
     10a  0.000000D+00  0.000000D+00  0.000000D+00  0.000000D+00  0.000000D+00
     10b  0.000000D+00  0.000000D+00  0.000000D+00  0.000000D+00  0.000000D+00
 afr conversion (alpha, real):
                 1             2             3             4             5 
      1   0.132388D-01 -0.107173D-02  0.392675D-01  0.116242D-01  0.106467D+00
      2   0.138915D+00 -0.112458D-01  0.262815D+00  0.778000D-01  0.351101D+00
      3   0.157117D+00 -0.127193D-01  0.284532D+00  0.842287D-01  0.347116D+00
      4   0.248646D+00 -0.201290D-01  0.190590D+00  0.564196D-01 -0.214787D+00
      5   0.249789D+00 -0.202214D-01  0.167948D+00  0.497171D-01 -0.252644D+00
      6   0.249789D+00 -0.202214D-01 -0.167948D+00 -0.497171D-01 -0.252644D+00
      7   0.248646D+00 -0.201290D-01 -0.190590D+00 -0.564196D-01 -0.214787D+00
      8   0.157117D+00 -0.127193D-01 -0.284532D+00 -0.842287D-01  0.347116D+00
      9   0.138915D+00 -0.112458D-01 -0.262815D+00 -0.778000D-01  0.351101D+00
     10   0.132388D-01 -0.107173D-02 -0.392675D-01 -0.116242D-01  0.106467D+00
                 6             7             8             9            10 
      1   0.111312D-01 -0.147842D+00 -0.194652D-01  0.602804D+00  0.459806D+00
      2   0.367081D-01 -0.276664D+00 -0.364262D-01 -0.232204D+00 -0.177120D+00
      3   0.362915D-01 -0.229475D+00 -0.302132D-01 -0.172274D+00 -0.131407D+00
      4  -0.224563D-01  0.490539D+00  0.645854D-01  0.861704D-01  0.657290D-01
      5  -0.264143D-01  0.471463D+00  0.620739D-01  0.150842D+00  0.115059D+00
      6  -0.264143D-01 -0.471463D+00 -0.620739D-01 -0.150842D+00 -0.115059D+00
      7  -0.224563D-01 -0.490539D+00 -0.645854D-01 -0.861704D-01 -0.657290D-01
      8   0.362915D-01  0.229475D+00  0.302132D-01  0.172274D+00  0.131407D+00
      9   0.367081D-01  0.276664D+00  0.364262D-01  0.232204D+00  0.177120D+00
     10   0.111312D-01  0.147842D+00  0.194652D-01 -0.602804D+00 -0.459806D+00
                11            12            13            14            15 
      1   0.608829D+00 -0.464477D+00 -0.223913D-01  0.635363D-01 -0.496089D-01
      2  -0.201663D+00  0.153849D+00 -0.132127D+00  0.374915D+00 -0.749844D+00
      3  -0.168422D+00  0.128490D+00  0.167298D+00 -0.474715D+00  0.848438D+00
      4   0.162554D-01 -0.124013D-01 -0.232281D+00  0.659106D+00 -0.500941D+00
      5   0.864552D-01 -0.659568D-01  0.225797D+00 -0.640706D+00  0.391143D+00
      6   0.864552D-01 -0.659568D-01 -0.225797D+00  0.640706D+00  0.391143D+00
      7   0.162554D-01 -0.124013D-01  0.232281D+00 -0.659106D+00 -0.500941D+00
      8  -0.168422D+00  0.128490D+00 -0.167298D+00  0.474715D+00  0.848438D+00
      9  -0.201663D+00  0.153849D+00  0.132127D+00 -0.374915D+00 -0.749844D+00
     10   0.608829D+00 -0.464477D+00  0.223913D-01 -0.635363D-01 -0.496089D-01
                16            17            18            19            20 
      1  -0.549573D-02 -0.113902D-02  0.126460D-03  0.454882D-02  0.379305D-01
      2  -0.830686D-01 -0.880483D+00  0.977556D-01 -0.767383D-01 -0.639886D+00
      3   0.939909D-01  0.887690D+00 -0.985558D-01  0.639722D-01  0.533435D+00
      4  -0.554948D-01  0.491965D+00 -0.546205D-01  0.127844D+00  0.106604D+01
      5   0.433312D-01 -0.668271D+00  0.741947D-01 -0.121802D+00 -0.101565D+01
      6   0.433312D-01  0.668271D+00 -0.741947D-01 -0.121802D+00 -0.101565D+01
      7  -0.554948D-01 -0.491965D+00  0.546205D-01  0.127844D+00  0.106604D+01
      8   0.939909D-01 -0.887690D+00  0.985558D-01  0.639722D-01  0.533435D+00
      9  -0.830686D-01  0.880483D+00 -0.977556D-01 -0.767383D-01 -0.639886D+00
     10  -0.549573D-02  0.113902D-02 -0.126460D-03  0.454882D-02  0.379305D-01
 afr conversion (alpha, imaginary):
                 1             2             3             4             5 
      1   0.000000D+00  0.000000D+00  0.000000D+00  0.000000D+00  0.000000D+00
      2   0.000000D+00  0.000000D+00  0.000000D+00  0.000000D+00  0.000000D+00
      3   0.000000D+00  0.000000D+00  0.000000D+00  0.000000D+00  0.000000D+00
      4   0.000000D+00  0.000000D+00  0.000000D+00  0.000000D+00  0.000000D+00
      5   0.000000D+00  0.000000D+00  0.000000D+00  0.000000D+00  0.000000D+00
      6   0.000000D+00  0.000000D+00  0.000000D+00  0.000000D+00  0.000000D+00
      7   0.000000D+00  0.000000D+00  0.000000D+00  0.000000D+00  0.000000D+00
      8   0.000000D+00  0.000000D+00  0.000000D+00  0.000000D+00  0.000000D+00
      9   0.000000D+00  0.000000D+00  0.000000D+00  0.000000D+00  0.000000D+00
     10   0.000000D+00  0.000000D+00  0.000000D+00  0.000000D+00  0.000000D+00
                 6             7             8             9            10 
      1   0.000000D+00  0.000000D+00  0.000000D+00  0.000000D+00  0.000000D+00
      2   0.000000D+00  0.000000D+00  0.000000D+00  0.000000D+00  0.000000D+00
      3   0.000000D+00  0.000000D+00  0.000000D+00  0.000000D+00  0.000000D+00
      4   0.000000D+00  0.000000D+00  0.000000D+00  0.000000D+00  0.000000D+00
      5   0.000000D+00  0.000000D+00  0.000000D+00  0.000000D+00  0.000000D+00
      6   0.000000D+00  0.000000D+00  0.000000D+00  0.000000D+00  0.000000D+00
      7   0.000000D+00  0.000000D+00  0.000000D+00  0.000000D+00  0.000000D+00
      8   0.000000D+00  0.000000D+00  0.000000D+00  0.000000D+00  0.000000D+00
      9   0.000000D+00  0.000000D+00  0.000000D+00  0.000000D+00  0.000000D+00
     10   0.000000D+00  0.000000D+00  0.000000D+00  0.000000D+00  0.000000D+00
                11            12            13            14            15 
      1   0.000000D+00  0.000000D+00  0.000000D+00  0.000000D+00  0.000000D+00
      2   0.000000D+00  0.000000D+00  0.000000D+00  0.000000D+00  0.000000D+00
      3   0.000000D+00  0.000000D+00  0.000000D+00  0.000000D+00  0.000000D+00
      4   0.000000D+00  0.000000D+00  0.000000D+00  0.000000D+00  0.000000D+00
      5   0.000000D+00  0.000000D+00  0.000000D+00  0.000000D+00  0.000000D+00
      6   0.000000D+00  0.000000D+00  0.000000D+00  0.000000D+00  0.000000D+00
      7   0.000000D+00  0.000000D+00  0.000000D+00  0.000000D+00  0.000000D+00
      8   0.000000D+00  0.000000D+00  0.000000D+00  0.000000D+00  0.000000D+00
      9   0.000000D+00  0.000000D+00  0.000000D+00  0.000000D+00  0.000000D+00
     10   0.000000D+00  0.000000D+00  0.000000D+00  0.000000D+00  0.000000D+00
                16            17            18            19            20 
      1   0.000000D+00  0.000000D+00  0.000000D+00  0.000000D+00  0.000000D+00
      2   0.000000D+00  0.000000D+00  0.000000D+00  0.000000D+00  0.000000D+00
      3   0.000000D+00  0.000000D+00  0.000000D+00  0.000000D+00  0.000000D+00
      4   0.000000D+00  0.000000D+00  0.000000D+00  0.000000D+00  0.000000D+00
      5   0.000000D+00  0.000000D+00  0.000000D+00  0.000000D+00  0.000000D+00
      6   0.000000D+00  0.000000D+00  0.000000D+00  0.000000D+00  0.000000D+00
      7   0.000000D+00  0.000000D+00  0.000000D+00  0.000000D+00  0.000000D+00
      8   0.000000D+00  0.000000D+00  0.000000D+00  0.000000D+00  0.000000D+00
      9   0.000000D+00  0.000000D+00  0.000000D+00  0.000000D+00  0.000000D+00
     10   0.000000D+00  0.000000D+00  0.000000D+00  0.000000D+00  0.000000D+00
 afr conversion (beta, real):
                 1             2             3             4             5 
      1   0.107173D-02  0.132388D-01 -0.116242D-01  0.392675D-01 -0.111312D-01
      2   0.112458D-01  0.138915D+00 -0.778000D-01  0.262815D+00 -0.367081D-01
      3   0.127193D-01  0.157117D+00 -0.842287D-01  0.284532D+00 -0.362915D-01
      4   0.201290D-01  0.248646D+00 -0.564196D-01  0.190590D+00  0.224563D-01
      5   0.202214D-01  0.249789D+00 -0.497171D-01  0.167948D+00  0.264143D-01
      6   0.202214D-01  0.249789D+00  0.497171D-01 -0.167948D+00  0.264143D-01
      7   0.201290D-01  0.248646D+00  0.564196D-01 -0.190590D+00  0.224563D-01
      8   0.127193D-01  0.157117D+00  0.842287D-01 -0.284532D+00 -0.362915D-01
      9   0.112458D-01  0.138915D+00  0.778000D-01 -0.262815D+00 -0.367081D-01
     10   0.107173D-02  0.132388D-01  0.116242D-01 -0.392675D-01 -0.111312D-01
                 6             7             8             9            10 
      1   0.106467D+00  0.194652D-01 -0.147842D+00 -0.459806D+00  0.602804D+00
      2   0.351101D+00  0.364262D-01 -0.276664D+00  0.177120D+00 -0.232204D+00
      3   0.347116D+00  0.302132D-01 -0.229475D+00  0.131407D+00 -0.172274D+00
      4  -0.214787D+00 -0.645854D-01  0.490539D+00 -0.657290D-01  0.861704D-01
      5  -0.252644D+00 -0.620739D-01  0.471463D+00 -0.115059D+00  0.150842D+00
      6  -0.252644D+00  0.620739D-01 -0.471463D+00  0.115059D+00 -0.150842D+00
      7  -0.214787D+00  0.645854D-01 -0.490539D+00  0.657290D-01 -0.861704D-01
      8   0.347116D+00 -0.302132D-01  0.229475D+00 -0.131407D+00  0.172274D+00
      9   0.351101D+00 -0.364262D-01  0.276664D+00 -0.177120D+00  0.232204D+00
     10   0.106467D+00 -0.194652D-01  0.147842D+00  0.459806D+00 -0.602804D+00
                11            12            13            14            15 
      1   0.464477D+00  0.608829D+00  0.635363D-01  0.223913D-01  0.549573D-02
      2  -0.153849D+00 -0.201663D+00  0.374915D+00  0.132127D+00  0.830686D-01
      3  -0.128490D+00 -0.168422D+00 -0.474715D+00 -0.167298D+00 -0.939909D-01
      4   0.124013D-01  0.162554D-01  0.659106D+00  0.232281D+00  0.554948D-01
      5   0.659568D-01  0.864552D-01 -0.640706D+00 -0.225797D+00 -0.433312D-01
      6   0.659568D-01  0.864552D-01  0.640706D+00  0.225797D+00 -0.433312D-01
      7   0.124013D-01  0.162554D-01 -0.659106D+00 -0.232281D+00  0.554948D-01
      8  -0.128490D+00 -0.168422D+00  0.474715D+00  0.167298D+00 -0.939909D-01
      9  -0.153849D+00 -0.201663D+00 -0.374915D+00 -0.132127D+00  0.830686D-01
     10   0.464477D+00  0.608829D+00 -0.635363D-01 -0.223913D-01  0.549573D-02
                16            17            18            19            20 
      1  -0.496089D-01 -0.126460D-03 -0.113902D-02  0.379305D-01 -0.454882D-02
      2  -0.749844D+00 -0.977556D-01 -0.880483D+00 -0.639886D+00  0.767383D-01
      3   0.848438D+00  0.985558D-01  0.887690D+00  0.533435D+00 -0.639722D-01
      4  -0.500941D+00  0.546205D-01  0.491965D+00  0.106604D+01 -0.127844D+00
      5   0.391143D+00 -0.741947D-01 -0.668271D+00 -0.101565D+01  0.121802D+00
      6   0.391143D+00  0.741947D-01  0.668271D+00 -0.101565D+01  0.121802D+00
      7  -0.500941D+00 -0.546205D-01 -0.491965D+00  0.106604D+01 -0.127844D+00
      8   0.848438D+00 -0.985558D-01 -0.887690D+00  0.533435D+00 -0.639722D-01
      9  -0.749844D+00  0.977556D-01  0.880483D+00 -0.639886D+00  0.767383D-01
     10  -0.496089D-01  0.126460D-03  0.113902D-02  0.379305D-01 -0.454882D-02
 afr conversion (beta, imaginary):
                 1             2             3             4             5 
      1   0.000000D+00  0.000000D+00  0.000000D+00  0.000000D+00  0.000000D+00
      2   0.000000D+00  0.000000D+00  0.000000D+00  0.000000D+00  0.000000D+00
      3   0.000000D+00  0.000000D+00  0.000000D+00  0.000000D+00  0.000000D+00
      4   0.000000D+00  0.000000D+00  0.000000D+00  0.000000D+00  0.000000D+00
      5   0.000000D+00  0.000000D+00  0.000000D+00  0.000000D+00  0.000000D+00
      6   0.000000D+00  0.000000D+00  0.000000D+00  0.000000D+00  0.000000D+00
      7   0.000000D+00  0.000000D+00  0.000000D+00  0.000000D+00  0.000000D+00
      8   0.000000D+00  0.000000D+00  0.000000D+00  0.000000D+00  0.000000D+00
      9   0.000000D+00  0.000000D+00  0.000000D+00  0.000000D+00  0.000000D+00
     10   0.000000D+00  0.000000D+00  0.000000D+00  0.000000D+00  0.000000D+00
                 6             7             8             9            10 
      1   0.000000D+00  0.000000D+00  0.000000D+00  0.000000D+00  0.000000D+00
      2   0.000000D+00  0.000000D+00  0.000000D+00  0.000000D+00  0.000000D+00
      3   0.000000D+00  0.000000D+00  0.000000D+00  0.000000D+00  0.000000D+00
      4   0.000000D+00  0.000000D+00  0.000000D+00  0.000000D+00  0.000000D+00
      5   0.000000D+00  0.000000D+00  0.000000D+00  0.000000D+00  0.000000D+00
      6   0.000000D+00  0.000000D+00  0.000000D+00  0.000000D+00  0.000000D+00
      7   0.000000D+00  0.000000D+00  0.000000D+00  0.000000D+00  0.000000D+00
      8   0.000000D+00  0.000000D+00  0.000000D+00  0.000000D+00  0.000000D+00
      9   0.000000D+00  0.000000D+00  0.000000D+00  0.000000D+00  0.000000D+00
     10   0.000000D+00  0.000000D+00  0.000000D+00  0.000000D+00  0.000000D+00
                11            12            13            14            15 
      1   0.000000D+00  0.000000D+00  0.000000D+00  0.000000D+00  0.000000D+00
      2   0.000000D+00  0.000000D+00  0.000000D+00  0.000000D+00  0.000000D+00
      3   0.000000D+00  0.000000D+00  0.000000D+00  0.000000D+00  0.000000D+00
      4   0.000000D+00  0.000000D+00  0.000000D+00  0.000000D+00  0.000000D+00
      5   0.000000D+00  0.000000D+00  0.000000D+00  0.000000D+00  0.000000D+00
      6   0.000000D+00  0.000000D+00  0.000000D+00  0.000000D+00  0.000000D+00
      7   0.000000D+00  0.000000D+00  0.000000D+00  0.000000D+00  0.000000D+00
      8   0.000000D+00  0.000000D+00  0.000000D+00  0.000000D+00  0.000000D+00
      9   0.000000D+00  0.000000D+00  0.000000D+00  0.000000D+00  0.000000D+00
     10   0.000000D+00  0.000000D+00  0.000000D+00  0.000000D+00  0.000000D+00
                16            17            18            19            20 
      1   0.000000D+00  0.000000D+00  0.000000D+00  0.000000D+00  0.000000D+00
      2   0.000000D+00  0.000000D+00  0.000000D+00  0.000000D+00  0.000000D+00
      3   0.000000D+00  0.000000D+00  0.000000D+00  0.000000D+00  0.000000D+00
      4   0.000000D+00  0.000000D+00  0.000000D+00  0.000000D+00  0.000000D+00
      5   0.000000D+00  0.000000D+00  0.000000D+00  0.000000D+00  0.000000D+00
      6   0.000000D+00  0.000000D+00  0.000000D+00  0.000000D+00  0.000000D+00
      7   0.000000D+00  0.000000D+00  0.000000D+00  0.000000D+00  0.000000D+00
      8   0.000000D+00  0.000000D+00  0.000000D+00  0.000000D+00  0.000000D+00
      9   0.000000D+00  0.000000D+00  0.000000D+00  0.000000D+00  0.000000D+00
     10   0.000000D+00  0.000000D+00  0.000000D+00  0.000000D+00  0.000000D+00
 jaja in hckghf.F, ISPECT =                     548
Spin block MO for GHF transformation
NOA =   10   NOB =   10
NVA =   10   NVB =   10
 NOAvA in Hack                     100
 jaja in tranN3.F, ISPECT =                     548
 in l802/tranN3.F, LSPECT =                      800
 NMat, NBtSiz,MDV                    8372                   16000
                133954722
 TranN3:  NGot= 134217728 NBasic=    263006 NTTT=       550 NMat=      8372.
 Defined bucket =                      51                   10000
 Defined bucket =                      52                   10000
 Defined bucket =                      53                   10000
 Defined bucket =                      55                   10000
 Defined bucket =                      57                   10000
 Defined bucket =                      58                   10000
 Defined bucket =                      60                   10000
 Defined bucket =                      72                   10000
 Defined bucket =                      73                   10000
 Defined bucket =                      74                   10000
 Defined bucket =                      75                   10000
 Defined bucket =                      76                   10000
 (IK/LS) integrals will be saved in memory.
 TrCghf made   2 passes through the AO integrals.
 jaja DoHack is true or false? F
 jaja in hckghf.F, NBasis=                      10
 jaja in hckGHF/FixOG, LC =                      800
 jaja in hckGHF/FixOG, IRwC=                      548
 bfr conversion (alpha, real):
                 1             2             3             4             5 
      1   0.132388D-01 -0.107173D-02  0.392675D-01  0.116242D-01  0.106467D+00
      2   0.138915D+00 -0.112458D-01  0.262815D+00  0.778000D-01  0.351101D+00
      3   0.157117D+00 -0.127193D-01  0.284532D+00  0.842287D-01  0.347116D+00
      4   0.248646D+00 -0.201290D-01  0.190590D+00  0.564196D-01 -0.214787D+00
      5   0.249789D+00 -0.202214D-01  0.167948D+00  0.497171D-01 -0.252644D+00
      6   0.249789D+00 -0.202214D-01 -0.167948D+00 -0.497171D-01 -0.252644D+00
      7   0.248646D+00 -0.201290D-01 -0.190590D+00 -0.564196D-01 -0.214787D+00
      8   0.157117D+00 -0.127193D-01 -0.284532D+00 -0.842287D-01  0.347116D+00
      9   0.138915D+00 -0.112458D-01 -0.262815D+00 -0.778000D-01  0.351101D+00
     10   0.132388D-01 -0.107173D-02 -0.392675D-01 -0.116242D-01  0.106467D+00
                 6             7             8             9            10 
      1   0.111312D-01 -0.147842D+00 -0.194652D-01  0.602804D+00  0.459806D+00
      2   0.367081D-01 -0.276664D+00 -0.364262D-01 -0.232204D+00 -0.177120D+00
      3   0.362915D-01 -0.229475D+00 -0.302132D-01 -0.172274D+00 -0.131407D+00
      4  -0.224563D-01  0.490539D+00  0.645854D-01  0.861704D-01  0.657290D-01
      5  -0.264143D-01  0.471463D+00  0.620739D-01  0.150842D+00  0.115059D+00
      6  -0.264143D-01 -0.471463D+00 -0.620739D-01 -0.150842D+00 -0.115059D+00
      7  -0.224563D-01 -0.490539D+00 -0.645854D-01 -0.861704D-01 -0.657290D-01
      8   0.362915D-01  0.229475D+00  0.302132D-01  0.172274D+00  0.131407D+00
      9   0.367081D-01  0.276664D+00  0.364262D-01  0.232204D+00  0.177120D+00
     10   0.111312D-01  0.147842D+00  0.194652D-01 -0.602804D+00 -0.459806D+00
                11            12            13            14            15 
      1   0.608829D+00 -0.464477D+00 -0.223913D-01  0.635363D-01 -0.496089D-01
      2  -0.201663D+00  0.153849D+00 -0.132127D+00  0.374915D+00 -0.749844D+00
      3  -0.168422D+00  0.128490D+00  0.167298D+00 -0.474715D+00  0.848438D+00
      4   0.162554D-01 -0.124013D-01 -0.232281D+00  0.659106D+00 -0.500941D+00
      5   0.864552D-01 -0.659568D-01  0.225797D+00 -0.640706D+00  0.391143D+00
      6   0.864552D-01 -0.659568D-01 -0.225797D+00  0.640706D+00  0.391143D+00
      7   0.162554D-01 -0.124013D-01  0.232281D+00 -0.659106D+00 -0.500941D+00
      8  -0.168422D+00  0.128490D+00 -0.167298D+00  0.474715D+00  0.848438D+00
      9  -0.201663D+00  0.153849D+00  0.132127D+00 -0.374915D+00 -0.749844D+00
     10   0.608829D+00 -0.464477D+00  0.223913D-01 -0.635363D-01 -0.496089D-01
                16            17            18            19            20 
      1  -0.549573D-02 -0.113902D-02  0.126460D-03  0.454882D-02  0.379305D-01
      2  -0.830686D-01 -0.880483D+00  0.977556D-01 -0.767383D-01 -0.639886D+00
      3   0.939909D-01  0.887690D+00 -0.985558D-01  0.639722D-01  0.533435D+00
      4  -0.554948D-01  0.491965D+00 -0.546205D-01  0.127844D+00  0.106604D+01
      5   0.433312D-01 -0.668271D+00  0.741947D-01 -0.121802D+00 -0.101565D+01
      6   0.433312D-01  0.668271D+00 -0.741947D-01 -0.121802D+00 -0.101565D+01
      7  -0.554948D-01 -0.491965D+00  0.546205D-01  0.127844D+00  0.106604D+01
      8   0.939909D-01 -0.887690D+00  0.985558D-01  0.639722D-01  0.533435D+00
      9  -0.830686D-01  0.880483D+00 -0.977556D-01 -0.767383D-01 -0.639886D+00
     10  -0.549573D-02  0.113902D-02 -0.126460D-03  0.454882D-02  0.379305D-01
 bfr conversion (alpha, imaginary):
                 1             2             3             4             5 
      1   0.000000D+00  0.000000D+00  0.000000D+00  0.000000D+00  0.000000D+00
      2   0.000000D+00  0.000000D+00  0.000000D+00  0.000000D+00  0.000000D+00
      3   0.000000D+00  0.000000D+00  0.000000D+00  0.000000D+00  0.000000D+00
      4   0.000000D+00  0.000000D+00  0.000000D+00  0.000000D+00  0.000000D+00
      5   0.000000D+00  0.000000D+00  0.000000D+00  0.000000D+00  0.000000D+00
      6   0.000000D+00  0.000000D+00  0.000000D+00  0.000000D+00  0.000000D+00
      7   0.000000D+00  0.000000D+00  0.000000D+00  0.000000D+00  0.000000D+00
      8   0.000000D+00  0.000000D+00  0.000000D+00  0.000000D+00  0.000000D+00
      9   0.000000D+00  0.000000D+00  0.000000D+00  0.000000D+00  0.000000D+00
     10   0.000000D+00  0.000000D+00  0.000000D+00  0.000000D+00  0.000000D+00
                 6             7             8             9            10 
      1   0.000000D+00  0.000000D+00  0.000000D+00  0.000000D+00  0.000000D+00
      2   0.000000D+00  0.000000D+00  0.000000D+00  0.000000D+00  0.000000D+00
      3   0.000000D+00  0.000000D+00  0.000000D+00  0.000000D+00  0.000000D+00
      4   0.000000D+00  0.000000D+00  0.000000D+00  0.000000D+00  0.000000D+00
      5   0.000000D+00  0.000000D+00  0.000000D+00  0.000000D+00  0.000000D+00
      6   0.000000D+00  0.000000D+00  0.000000D+00  0.000000D+00  0.000000D+00
      7   0.000000D+00  0.000000D+00  0.000000D+00  0.000000D+00  0.000000D+00
      8   0.000000D+00  0.000000D+00  0.000000D+00  0.000000D+00  0.000000D+00
      9   0.000000D+00  0.000000D+00  0.000000D+00  0.000000D+00  0.000000D+00
     10   0.000000D+00  0.000000D+00  0.000000D+00  0.000000D+00  0.000000D+00
[...]
      6b 0.528653D+00 -0.553949D+00 -0.175044D+00  0.210201D+00 -0.100952D+00
      7a-0.430584D+00  0.494796D+00  0.865086D-01 -0.150559D+00 -0.503036D-01
      7b 0.297076D+00 -0.272536D+00 -0.823328D-01  0.129784D+00 -0.367591D-01
      8a 0.110461D+01 -0.107222D+01 -0.534667D+00  0.490173D+00 -0.401449D+00
      8b-0.620669D+00  0.695930D+00  0.317641D+00 -0.195123D+00  0.245093D+00
      9a 0.141622D+01 -0.139181D+01 -0.670325D+00  0.612378D+00 -0.488427D+00
      9b-0.833204D+00  0.933097D+00  0.399081D+00 -0.305320D+00  0.298867D+00
     10a-0.376720D+01  0.366462D+01  0.147012D+01 -0.142257D+01  0.100698D+01
     10b 0.222533D+01 -0.247615D+01 -0.863967D+00  0.985843D+00 -0.586013D+00
                3b            4a            4b            5a            5b
      3b 0.747935D+00
      4a 0.803206D-01  0.112196D+01
      4b-0.281741D+00 -0.135066D+00  0.698057D+00
      5a 0.163942D+00  0.114334D+01 -0.170563D+00  0.120725D+01
      5b-0.400677D+00 -0.162445D+00  0.738416D+00 -0.227531D+00  0.814203D+00
      6a-0.195391D+00 -0.652241D+00  0.178071D+00 -0.688886D+00  0.264247D+00
      6b 0.115298D+00  0.147236D+00 -0.301814D+00  0.212011D+00 -0.323246D+00
      7a-0.922179D-01 -0.666022D+00  0.133112D+00 -0.656587D+00  0.179171D+00
      7b 0.587994D-01  0.114060D+00 -0.303038D+00  0.148336D+00 -0.296932D+00
      8a 0.382997D+00 -0.901072D-02 -0.112571D+00  0.120420D+00 -0.240928D+00
      8b-0.119152D+00 -0.571118D-01  0.779311D-01 -0.146488D+00  0.125098D+00
      9a 0.471398D+00  0.118039D+00 -0.167049D+00  0.285084D+00 -0.330357D+00
      9b-0.200272D+00 -0.988223D-01  0.150669D+00 -0.215882D+00  0.222810D+00
     10a-0.103756D+01 -0.562636D+00  0.560293D+00 -0.109056D+01  0.972387D+00
     10b 0.739760D+00  0.362574D+00 -0.336435D+00  0.663022D+00 -0.619199D+00
                6a            6b            7a            7b            8a
      6a 0.136269D+01
      6b-0.293316D+00  0.814602D+00
      7a 0.121314D+01 -0.201895D+00  0.113760D+01
      7b-0.193777D+00  0.750425D+00 -0.144996D+00  0.719988D+00
      8a-0.748145D+00  0.274390D+00 -0.477329D+00  0.133895D+00  0.155779D+01
      8b 0.227789D+00 -0.423035D+00  0.107586D+00 -0.313429D+00 -0.442688D+00
      9a-0.973172D+00  0.368489D+00 -0.646185D+00  0.190278D+00  0.175085D+01
      9b 0.326979D+00 -0.536133D+00  0.168231D+00 -0.401736D+00 -0.566368D+00
     10a 0.132284D+01 -0.103834D+01  0.645396D+00 -0.598344D+00 -0.182000D+01
     10b-0.888281D+00  0.523013D+00 -0.487597D+00  0.250395D+00  0.117761D+01
                8b            9a            9b           10a           10b
      8b 0.790758D+00
      9a-0.540600D+00  0.200628D+01
      9b 0.862294D+00 -0.700190D+00  0.964476D+00
     10a 0.122185D+01 -0.243022D+01  0.162965D+01  0.761196D+01
     10b-0.608388D+00  0.154152D+01 -0.860439D+00 -0.433700D+01  0.269244D+01
 jaja lower-tri density matrix (imaginary):
                1a            1b            2a            2b            3a
      1a 0.000000D+00
      1b 0.000000D+00  0.000000D+00
      2a 0.000000D+00  0.000000D+00  0.000000D+00
      2b 0.000000D+00  0.000000D+00  0.000000D+00  0.000000D+00
      3a 0.000000D+00  0.000000D+00  0.000000D+00  0.000000D+00  0.000000D+00
      3b 0.000000D+00  0.000000D+00  0.000000D+00  0.000000D+00  0.000000D+00
      4a 0.000000D+00  0.000000D+00  0.000000D+00  0.000000D+00  0.000000D+00
      4b 0.000000D+00  0.000000D+00  0.000000D+00  0.000000D+00  0.000000D+00
      5a 0.000000D+00  0.000000D+00  0.000000D+00  0.000000D+00  0.000000D+00
      5b 0.000000D+00  0.000000D+00  0.000000D+00  0.000000D+00  0.000000D+00
      6a 0.000000D+00  0.000000D+00  0.000000D+00  0.000000D+00  0.000000D+00
      6b 0.000000D+00  0.000000D+00  0.000000D+00  0.000000D+00  0.000000D+00
      7a 0.000000D+00  0.000000D+00  0.000000D+00  0.000000D+00  0.000000D+00
      7b 0.000000D+00  0.000000D+00  0.000000D+00  0.000000D+00  0.000000D+00
      8a 0.000000D+00  0.000000D+00  0.000000D+00  0.000000D+00  0.000000D+00
      8b 0.000000D+00  0.000000D+00  0.000000D+00  0.000000D+00  0.000000D+00
      9a 0.000000D+00  0.000000D+00  0.000000D+00  0.000000D+00  0.000000D+00
      9b 0.000000D+00  0.000000D+00  0.000000D+00  0.000000D+00  0.000000D+00
     10a 0.000000D+00  0.000000D+00  0.000000D+00  0.000000D+00  0.000000D+00
     10b 0.000000D+00  0.000000D+00  0.000000D+00  0.000000D+00  0.000000D+00
                3b            4a            4b            5a            5b
      3b 0.000000D+00
      4a 0.000000D+00  0.000000D+00
      4b 0.000000D+00  0.000000D+00  0.000000D+00
      5a 0.000000D+00  0.000000D+00  0.000000D+00  0.000000D+00
      5b 0.000000D+00  0.000000D+00  0.000000D+00  0.000000D+00  0.000000D+00
      6a 0.000000D+00  0.000000D+00  0.000000D+00  0.000000D+00  0.000000D+00
      6b 0.000000D+00  0.000000D+00  0.000000D+00  0.000000D+00  0.000000D+00
      7a 0.000000D+00  0.000000D+00  0.000000D+00  0.000000D+00  0.000000D+00
      7b 0.000000D+00  0.000000D+00  0.000000D+00  0.000000D+00  0.000000D+00
      8a 0.000000D+00  0.000000D+00  0.000000D+00  0.000000D+00  0.000000D+00
      8b 0.000000D+00  0.000000D+00  0.000000D+00  0.000000D+00  0.000000D+00
      9a 0.000000D+00  0.000000D+00  0.000000D+00  0.000000D+00  0.000000D+00
      9b 0.000000D+00  0.000000D+00  0.000000D+00  0.000000D+00  0.000000D+00
     10a 0.000000D+00  0.000000D+00  0.000000D+00  0.000000D+00  0.000000D+00
     10b 0.000000D+00  0.000000D+00  0.000000D+00  0.000000D+00  0.000000D+00
                6a            6b            7a            7b            8a
      6a 0.000000D+00
      6b 0.000000D+00  0.000000D+00
      7a 0.000000D+00  0.000000D+00  0.000000D+00
      7b 0.000000D+00  0.000000D+00  0.000000D+00  0.000000D+00
      8a 0.000000D+00  0.000000D+00  0.000000D+00  0.000000D+00  0.000000D+00
      8b 0.000000D+00  0.000000D+00  0.000000D+00  0.000000D+00  0.000000D+00
      9a 0.000000D+00  0.000000D+00  0.000000D+00  0.000000D+00  0.000000D+00
      9b 0.000000D+00  0.000000D+00  0.000000D+00  0.000000D+00  0.000000D+00
     10a 0.000000D+00  0.000000D+00  0.000000D+00  0.000000D+00  0.000000D+00
     10b 0.000000D+00  0.000000D+00  0.000000D+00  0.000000D+00  0.000000D+00
                8b            9a            9b           10a           10b
      8b 0.000000D+00
      9a 0.000000D+00  0.000000D+00
      9b 0.000000D+00  0.000000D+00  0.000000D+00
     10a 0.000000D+00  0.000000D+00  0.000000D+00  0.000000D+00
     10b 0.000000D+00  0.000000D+00  0.000000D+00  0.000000D+00  0.000000D+00
 jaja non-ortho density matrix               [Gau-style] (real):
                 1             2             3             4             5 
      1a  0.196729D+01 -0.195051D+01 -0.540629D+00  0.734171D+00 -0.305975D+00
      1b -0.195051D+01  0.269501D+01  0.822306D+00 -0.805368D+00  0.575253D+00
      2a -0.540629D+00  0.822306D+00  0.133989D+01 -0.415540D+00  0.124491D+01
      2b  0.734171D+00 -0.805368D+00 -0.415540D+00  0.945536D+00 -0.322003D+00
      3a -0.305975D+00  0.575253D+00  0.124491D+01 -0.322003D+00  0.119014D+01
      3b  0.531018D+00 -0.566196D+00 -0.347771D+00  0.831481D+00 -0.280750D+00
      4a  0.161525D+00 -0.384300D+00 -0.493756D+00  0.121575D+00 -0.361958D+00
      4b -0.273553D+00  0.187962D+00  0.995279D-01 -0.373637D+00  0.540113D-01
      5a  0.410458D+00 -0.642338D+00 -0.654032D+00  0.230919D+00 -0.494942D+00
      5b -0.492280D+00  0.455567D+00  0.189408D+00 -0.518795D+00  0.117342D+00
      6a -0.796118D+00  0.838017D+00  0.193015D+00 -0.289520D+00  0.162355D-01
      6b  0.528653D+00 -0.553949D+00 -0.175044D+00  0.210201D+00 -0.100952D+00
      7a -0.430584D+00  0.494796D+00  0.865086D-01 -0.150559D+00 -0.503036D-01
      7b  0.297076D+00 -0.272536D+00 -0.823328D-01  0.129784D+00 -0.367591D-01
      8a  0.110461D+01 -0.107222D+01 -0.534667D+00  0.490173D+00 -0.401449D+00
      8b -0.620669D+00  0.695930D+00  0.317641D+00 -0.195123D+00  0.245093D+00
      9a  0.141622D+01 -0.139181D+01 -0.670325D+00  0.612378D+00 -0.488427D+00
      9b -0.833204D+00  0.933097D+00  0.399081D+00 -0.305320D+00  0.298867D+00
     10a -0.376720D+01  0.366462D+01  0.147012D+01 -0.142257D+01  0.100698D+01
     10b  0.222533D+01 -0.247615D+01 -0.863967D+00  0.985843D+00 -0.586013D+00
                 6             7             8             9            10 
      1a  0.531018D+00  0.161525D+00 -0.273553D+00  0.410458D+00 -0.492280D+00
      1b -0.566196D+00 -0.384300D+00  0.187962D+00 -0.642338D+00  0.455567D+00
      2a -0.347771D+00 -0.493756D+00  0.995279D-01 -0.654032D+00  0.189408D+00
      2b  0.831481D+00  0.121575D+00 -0.373637D+00  0.230919D+00 -0.518795D+00
      3a -0.280750D+00 -0.361958D+00  0.540113D-01 -0.494942D+00  0.117342D+00
      3b  0.747935D+00  0.803206D-01 -0.281741D+00  0.163942D+00 -0.400677D+00
      4a  0.803206D-01  0.112196D+01 -0.135066D+00  0.114334D+01 -0.162445D+00
      4b -0.281741D+00 -0.135066D+00  0.698057D+00 -0.170563D+00  0.738416D+00
      5a  0.163942D+00  0.114334D+01 -0.170563D+00  0.120725D+01 -0.227531D+00
      5b -0.400677D+00 -0.162445D+00  0.738416D+00 -0.227531D+00  0.814203D+00
      6a -0.195391D+00 -0.652241D+00  0.178071D+00 -0.688886D+00  0.264247D+00
      6b  0.115298D+00  0.147236D+00 -0.301814D+00  0.212011D+00 -0.323246D+00
      7a -0.922179D-01 -0.666022D+00  0.133112D+00 -0.656587D+00  0.179171D+00
      7b  0.587994D-01  0.114060D+00 -0.303038D+00  0.148336D+00 -0.296932D+00
      8a  0.382997D+00 -0.901072D-02 -0.112571D+00  0.120420D+00 -0.240928D+00
      8b -0.119152D+00 -0.571118D-01  0.779311D-01 -0.146488D+00  0.125098D+00
      9a  0.471398D+00  0.118039D+00 -0.167049D+00  0.285084D+00 -0.330357D+00
      9b -0.200272D+00 -0.988223D-01  0.150669D+00 -0.215882D+00  0.222810D+00
     10a -0.103756D+01 -0.562636D+00  0.560293D+00 -0.109056D+01  0.972387D+00
     10b  0.739760D+00  0.362574D+00 -0.336435D+00  0.663022D+00 -0.619199D+00
                11            12            13            14            15 
      1a -0.796118D+00  0.528653D+00 -0.430584D+00  0.297076D+00  0.110461D+01
      1b  0.838017D+00 -0.553949D+00  0.494796D+00 -0.272536D+00 -0.107222D+01
      2a  0.193015D+00 -0.175044D+00  0.865086D-01 -0.823328D-01 -0.534667D+00
      2b -0.289520D+00  0.210201D+00 -0.150559D+00  0.129784D+00  0.490173D+00
      3a  0.162355D-01 -0.100952D+00 -0.503036D-01 -0.367591D-01 -0.401449D+00
      3b -0.195391D+00  0.115298D+00 -0.922179D-01  0.587994D-01  0.382997D+00
      4a -0.652241D+00  0.147236D+00 -0.666022D+00  0.114060D+00 -0.901072D-02
      4b  0.178071D+00 -0.301814D+00  0.133112D+00 -0.303038D+00 -0.112571D+00
      5a -0.688886D+00  0.212011D+00 -0.656587D+00  0.148336D+00  0.120420D+00
      5b  0.264247D+00 -0.323246D+00  0.179171D+00 -0.296932D+00 -0.240928D+00
      6a  0.136269D+01 -0.293316D+00  0.121314D+01 -0.193777D+00 -0.748145D+00
      6b -0.293316D+00  0.814602D+00 -0.201895D+00  0.750425D+00  0.274390D+00
      7a  0.121314D+01 -0.201895D+00  0.113760D+01 -0.144996D+00 -0.477329D+00
      7b -0.193777D+00  0.750425D+00 -0.144996D+00  0.719988D+00  0.133895D+00
      8a -0.748145D+00  0.274390D+00 -0.477329D+00  0.133895D+00  0.155779D+01
      8b  0.227789D+00 -0.423035D+00  0.107586D+00 -0.313429D+00 -0.442688D+00
      9a -0.973172D+00  0.368489D+00 -0.646185D+00  0.190278D+00  0.175085D+01
      9b  0.326979D+00 -0.536133D+00  0.168231D+00 -0.401736D+00 -0.566368D+00
     10a  0.132284D+01 -0.103834D+01  0.645396D+00 -0.598344D+00 -0.182000D+01
     10b -0.888281D+00  0.523013D+00 -0.487597D+00  0.250395D+00  0.117761D+01
                16            17            18            19            20 
      1a -0.620669D+00  0.141622D+01 -0.833204D+00 -0.376720D+01  0.222533D+01
      1b  0.695930D+00 -0.139181D+01  0.933097D+00  0.366462D+01 -0.247615D+01
      2a  0.317641D+00 -0.670325D+00  0.399081D+00  0.147012D+01 -0.863967D+00
      2b -0.195123D+00  0.612378D+00 -0.305320D+00 -0.142257D+01  0.985843D+00
      3a  0.245093D+00 -0.488427D+00  0.298867D+00  0.100698D+01 -0.586013D+00
      3b -0.119152D+00  0.471398D+00 -0.200272D+00 -0.103756D+01  0.739760D+00
      4a -0.571118D-01  0.118039D+00 -0.988223D-01 -0.562636D+00  0.362574D+00
      4b  0.779311D-01 -0.167049D+00  0.150669D+00  0.560293D+00 -0.336435D+00
      5a -0.146488D+00  0.285084D+00 -0.215882D+00 -0.109056D+01  0.663022D+00
      5b  0.125098D+00 -0.330357D+00  0.222810D+00  0.972387D+00 -0.619199D+00
      6a  0.227789D+00 -0.973172D+00  0.326979D+00  0.132284D+01 -0.888281D+00
      6b -0.423035D+00  0.368489D+00 -0.536133D+00 -0.103834D+01  0.523013D+00
      7a  0.107586D+00 -0.646185D+00  0.168231D+00  0.645396D+00 -0.487597D+00
      7b -0.313429D+00  0.190278D+00 -0.401736D+00 -0.598344D+00  0.250395D+00
      8a -0.442688D+00  0.175085D+01 -0.566368D+00 -0.182000D+01  0.117761D+01
      8b  0.790758D+00 -0.540600D+00  0.862294D+00  0.122185D+01 -0.608388D+00
      9a -0.540600D+00  0.200628D+01 -0.700190D+00 -0.243022D+01  0.154152D+01
      9b  0.862294D+00 -0.700190D+00  0.964476D+00  0.162965D+01 -0.860439D+00
     10a  0.122185D+01 -0.243022D+01  0.162965D+01  0.761196D+01 -0.433700D+01
     10b -0.608388D+00  0.154152D+01 -0.860439D+00 -0.433700D+01  0.269244D+01
 jaja non-ortho density matrix               [Gau-style] (imaginary):
                 1             2             3             4             5 
      1a  0.000000D+00  0.000000D+00  0.000000D+00  0.000000D+00  0.000000D+00
      1b  0.000000D+00  0.000000D+00  0.000000D+00  0.000000D+00  0.000000D+00
      2a  0.000000D+00  0.000000D+00  0.000000D+00  0.000000D+00  0.000000D+00
      2b  0.000000D+00  0.000000D+00  0.000000D+00  0.000000D+00  0.000000D+00
      3a  0.000000D+00  0.000000D+00  0.000000D+00  0.000000D+00  0.000000D+00
      3b  0.000000D+00  0.000000D+00  0.000000D+00  0.000000D+00  0.000000D+00
      4a  0.000000D+00  0.000000D+00  0.000000D+00  0.000000D+00  0.000000D+00
      4b  0.000000D+00  0.000000D+00  0.000000D+00  0.000000D+00  0.000000D+00
      5a  0.000000D+00  0.000000D+00  0.000000D+00  0.000000D+00  0.000000D+00
      5b  0.000000D+00  0.000000D+00  0.000000D+00  0.000000D+00  0.000000D+00
      6a  0.000000D+00  0.000000D+00  0.000000D+00  0.000000D+00  0.000000D+00
      6b  0.000000D+00  0.000000D+00  0.000000D+00  0.000000D+00  0.000000D+00
      7a  0.000000D+00  0.000000D+00  0.000000D+00  0.000000D+00  0.000000D+00
      7b  0.000000D+00  0.000000D+00  0.000000D+00  0.000000D+00  0.000000D+00
      8a  0.000000D+00  0.000000D+00  0.000000D+00  0.000000D+00  0.000000D+00
      8b  0.000000D+00  0.000000D+00  0.000000D+00  0.000000D+00  0.000000D+00
      9a  0.000000D+00  0.000000D+00  0.000000D+00  0.000000D+00  0.000000D+00
      9b  0.000000D+00  0.000000D+00  0.000000D+00  0.000000D+00  0.000000D+00
     10a  0.000000D+00  0.000000D+00  0.000000D+00  0.000000D+00  0.000000D+00
     10b  0.000000D+00  0.000000D+00  0.000000D+00  0.000000D+00  0.000000D+00
                 6             7             8             9            10 
      1a  0.000000D+00  0.000000D+00  0.000000D+00  0.000000D+00  0.000000D+00
      1b  0.000000D+00  0.000000D+00  0.000000D+00  0.000000D+00  0.000000D+00
      2a  0.000000D+00  0.000000D+00  0.000000D+00  0.000000D+00  0.000000D+00
      2b  0.000000D+00  0.000000D+00  0.000000D+00  0.000000D+00  0.000000D+00
      3a  0.000000D+00  0.000000D+00  0.000000D+00  0.000000D+00  0.000000D+00
      3b  0.000000D+00  0.000000D+00  0.000000D+00  0.000000D+00  0.000000D+00
      4a  0.000000D+00  0.000000D+00  0.000000D+00  0.000000D+00  0.000000D+00
      4b  0.000000D+00  0.000000D+00  0.000000D+00  0.000000D+00  0.000000D+00
      5a  0.000000D+00  0.000000D+00  0.000000D+00  0.000000D+00  0.000000D+00
      5b  0.000000D+00  0.000000D+00  0.000000D+00  0.000000D+00  0.000000D+00
      6a  0.000000D+00  0.000000D+00  0.000000D+00  0.000000D+00  0.000000D+00
      6b  0.000000D+00  0.000000D+00  0.000000D+00  0.000000D+00  0.000000D+00
      7a  0.000000D+00  0.000000D+00  0.000000D+00  0.000000D+00  0.000000D+00
      7b  0.000000D+00  0.000000D+00  0.000000D+00  0.000000D+00  0.000000D+00
      8a  0.000000D+00  0.000000D+00  0.000000D+00  0.000000D+00  0.000000D+00
      8b  0.000000D+00  0.000000D+00  0.000000D+00  0.000000D+00  0.000000D+00
      9a  0.000000D+00  0.000000D+00  0.000000D+00  0.000000D+00  0.000000D+00
      9b  0.000000D+00  0.000000D+00  0.000000D+00  0.000000D+00  0.000000D+00
     10a  0.000000D+00  0.000000D+00  0.000000D+00  0.000000D+00  0.000000D+00
     10b  0.000000D+00  0.000000D+00  0.000000D+00  0.000000D+00  0.000000D+00
                11            12            13            14            15 
      1a  0.000000D+00  0.000000D+00  0.000000D+00  0.000000D+00  0.000000D+00
      1b  0.000000D+00  0.000000D+00  0.000000D+00  0.000000D+00  0.000000D+00
      2a  0.000000D+00  0.000000D+00  0.000000D+00  0.000000D+00  0.000000D+00
      2b  0.000000D+00  0.000000D+00  0.000000D+00  0.000000D+00  0.000000D+00
      3a  0.000000D+00  0.000000D+00  0.000000D+00  0.000000D+00  0.000000D+00
      3b  0.000000D+00  0.000000D+00  0.000000D+00  0.000000D+00  0.000000D+00
      4a  0.000000D+00  0.000000D+00  0.000000D+00  0.000000D+00  0.000000D+00
      4b  0.000000D+00  0.000000D+00  0.000000D+00  0.000000D+00  0.000000D+00
      5a  0.000000D+00  0.000000D+00  0.000000D+00  0.000000D+00  0.000000D+00
      5b  0.000000D+00  0.000000D+00  0.000000D+00  0.000000D+00  0.000000D+00
      6a  0.000000D+00  0.000000D+00  0.000000D+00  0.000000D+00  0.000000D+00
      6b  0.000000D+00  0.000000D+00  0.000000D+00  0.000000D+00  0.000000D+00
      7a  0.000000D+00  0.000000D+00  0.000000D+00  0.000000D+00  0.000000D+00
      7b  0.000000D+00  0.000000D+00  0.000000D+00  0.000000D+00  0.000000D+00
      8a  0.000000D+00  0.000000D+00  0.000000D+00  0.000000D+00  0.000000D+00
      8b  0.000000D+00  0.000000D+00  0.000000D+00  0.000000D+00  0.000000D+00
      9a  0.000000D+00  0.000000D+00  0.000000D+00  0.000000D+00  0.000000D+00
      9b  0.000000D+00  0.000000D+00  0.000000D+00  0.000000D+00  0.000000D+00
     10a  0.000000D+00  0.000000D+00  0.000000D+00  0.000000D+00  0.000000D+00
     10b  0.000000D+00  0.000000D+00  0.000000D+00  0.000000D+00  0.000000D+00
                16            17            18            19            20 
      1a  0.000000D+00  0.000000D+00  0.000000D+00  0.000000D+00  0.000000D+00
      1b  0.000000D+00  0.000000D+00  0.000000D+00  0.000000D+00  0.000000D+00
      2a  0.000000D+00  0.000000D+00  0.000000D+00  0.000000D+00  0.000000D+00
      2b  0.000000D+00  0.000000D+00  0.000000D+00  0.000000D+00  0.000000D+00
      3a  0.000000D+00  0.000000D+00  0.000000D+00  0.000000D+00  0.000000D+00
      3b  0.000000D+00  0.000000D+00  0.000000D+00  0.000000D+00  0.000000D+00
      4a  0.000000D+00  0.000000D+00  0.000000D+00  0.000000D+00  0.000000D+00
      4b  0.000000D+00  0.000000D+00  0.000000D+00  0.000000D+00  0.000000D+00
      5a  0.000000D+00  0.000000D+00  0.000000D+00  0.000000D+00  0.000000D+00
      5b  0.000000D+00  0.000000D+00  0.000000D+00  0.000000D+00  0.000000D+00
      6a  0.000000D+00  0.000000D+00  0.000000D+00  0.000000D+00  0.000000D+00
      6b  0.000000D+00  0.000000D+00  0.000000D+00  0.000000D+00  0.000000D+00
      7a  0.000000D+00  0.000000D+00  0.000000D+00  0.000000D+00  0.000000D+00
      7b  0.000000D+00  0.000000D+00  0.000000D+00  0.000000D+00  0.000000D+00
      8a  0.000000D+00  0.000000D+00  0.000000D+00  0.000000D+00  0.000000D+00
      8b  0.000000D+00  0.000000D+00  0.000000D+00  0.000000D+00  0.000000D+00
      9a  0.000000D+00  0.000000D+00  0.000000D+00  0.000000D+00  0.000000D+00
      9b  0.000000D+00  0.000000D+00  0.000000D+00  0.000000D+00  0.000000D+00
     10a  0.000000D+00  0.000000D+00  0.000000D+00  0.000000D+00  0.000000D+00
     10b  0.000000D+00  0.000000D+00  0.000000D+00  0.000000D+00  0.000000D+00
FORTRAN STOP
