 Entering Gaussian System, Link 0=gdv
 AtFile(1): H.gbs
            H     0
            S   10   1.00
               1000.000000000000            0.000068713567
                316.227766000000            0.000169141320
                100.000000000000            0.000823394812
                 31.622776600000            0.003425569236
                 10.000000000000            0.013951996000
                  3.162277660000            0.056909313560
                  1.000000000000            0.198286399900
                  0.316227766000            0.496922426700
                  0.100000000000            0.369846276400
                  0.031622776600            0.003752720039
            ****
 Initial command:
 /users/lcj1/GHF_hess/exe-dir/l1.exe "/users/lcj1/GHF_hess/h10_2rows/follow25/fwd/Gau-30416.inp" -scrdir="/users/lcj1/GHF_hess/h10_2rows/follow25/fwd/"
 Entering Link 1 = /users/lcj1/GHF_hess/exe-dir/l1.exe PID=     30417.
  
 Copyright (c) 1988,1990,1992,1993,1995,1998,2003,2009,2012,
            Gaussian, Inc.  All Rights Reserved.
  
 This is the private, development version of
 the Gaussian(R) DV system of programs. It is based on
 the Gaussian(R) 09 system (copyright 2009, Gaussian, Inc.),
 the Gaussian(R) 03 system (copyright 2003, Gaussian, Inc.),
 the Gaussian(R) 98 system (copyright 1998, Gaussian, Inc.),
 the Gaussian(R) 94 system (copyright 1995, Gaussian, Inc.),
 the Gaussian 92(TM) system (copyright 1992, Gaussian, Inc.),
 the Gaussian 90(TM) system (copyright 1990, Gaussian, Inc.),
 the Gaussian 88(TM) system (copyright 1988, Gaussian, Inc.),
 the Gaussian 86(TM) system (copyright 1986, Carnegie Mellon
 University), and the Gaussian 82(TM) system (copyright 1983,
 Carnegie Mellon University). Gaussian is a federally registered
 trademark of Gaussian, Inc.
  
 This software contains proprietary and confidential information,
 including trade secrets, belonging to Gaussian, Inc.
  
 This software is provided under written license and may be
 used, copied, transmitted, or stored only in accord with that
 written license.
  
 The following legend is applicable only to US Government
 contracts under FAR:
  
                    RESTRICTED RIGHTS LEGEND
  
 Use, reproduction and disclosure by the US Government is
 subject to restrictions as set forth in subparagraphs (a)
 and (c) of the Commercial Computer Software - Restricted
 Rights clause in FAR 52.227-19.
  
 Gaussian, Inc.
 340 Quinnipiac St., Bldg. 40, Wallingford CT 06492
  
  
 ---------------------------------------------------------------
 Warning -- This program may not be used in any manner that
 competes with the business of Gaussian, Inc. or will provide
 assistance to any competitor of Gaussian, Inc.  The licensee
 of this program is prohibited from giving any competitor of
 Gaussian, Inc. access to this program.  By using this program,
 the user acknowledges that Gaussian, Inc. is engaged in the
 business of creating and licensing software in the field of
 computational chemistry and represents and warrants to the
 licensee that it is not a competitor of Gaussian, Inc. and that
 it will not use this program in any manner prohibited above.
 ---------------------------------------------------------------
  

 Cite this work as:
 Gaussian Development Version, Revision H.21,
 M. J. Frisch, G. W. Trucks, H. B. Schlegel, G. E. Scuseria, 
 M. A. Robb, J. R. Cheeseman, G. Scalmani, V. Barone, B. Mennucci, 
 G. A. Petersson, H. Nakatsuji, M. Caricato, X. Li, H. P. Hratchian, 
 A. F. Izmaylov, J. Bloino, G. Zheng, J. L. Sonnenberg, W. Liang, 
 M. Hada, M. Ehara, K. Toyota, R. Fukuda, J. Hasegawa, M. Ishida, 
 T. Nakajima, Y. Honda, O. Kitao, H. Nakai, T. Vreven, 
 J. A. Montgomery, Jr., J. E. Peralta, F. Ogliaro, M. Bearpark, 
 J. J. Heyd, E. Brothers, K. N. Kudin, V. N. Staroverov, T. Keith, 
 R. Kobayashi, J. Normand, K. Raghavachari, A. Rendell, J. C. Burant, 
 S. S. Iyengar, J. Tomasi, M. Cossi, N. Rega, J. M. Millam, M. Klene, 
 J. E. Knox, J. B. Cross, V. Bakken, C. Adamo, J. Jaramillo, 
 R. Gomperts, R. E. Stratmann, O. Yazyev, A. J. Austin, R. Cammi, 
 C. Pomelli, J. W. Ochterski, R. L. Martin, K. Morokuma, 
 V. G. Zakrzewski, G. A. Voth, P. Salvador, J. J. Dannenberg, 
 S. Dapprich, P. V. Parandekar, N. J. Mayhall, A. D. Daniels, 
 O. Farkas, J. B. Foresman, J. V. Ortiz, J. Cioslowski, 
 and D. J. Fox, Gaussian, Inc., Wallingford CT, 2010.
 
 ******************************************
 Gaussian DV:  EM64L-GDVRevH.21 13-May-2012
                28-Feb-2017 
 ******************************************
 %chk=h10.chk
 ----------------------------------------------------------------------
 #ghf/gen scf(tight,novaracc,noincfock,fulldiag) stable guess=read geom
 =nocrowd use=l802 use=l902 test
 ----------------------------------------------------------------------
 ********************************************
   THE COMPLEX ERI TRANSFORMATION WITH L802  
        COMPLEX STABILITY WITH L902          
 ********************************************
 1/38=1/1;
 2/12=1,17=6,18=5,40=1/2;
 3/5=7,16=1,25=20,28=1,116=7/1,2,3,20;
 4/5=1/1;
 5/5=100001,16=1,32=2,38=6/2;
 8/6=1,10=90,11=11/1,2;
 9/8=4,13=1/1,2;
 6/7=2,8=2,9=2,10=2,28=1/1;
 99/5=1,9=1/99;
 ----------------------------------------------------------------------
 hf stability analysis of h10 triangular lattice, y= 2.0596822134404817
  alpha= 82.250000000000000
 ----------------------------------------------------------------------
 Symbolic Z-Matrix:
 Charge =  0 Multiplicity = 1
 H
 H                    1     2.07867 
 H                    1     2.07867  2     15.5 
 H                    2     2.07867  1     164.5    3     0.       0
 H                    3     2.07867  1     180.     2     0.       0
 H                    4     2.07867  2     180.     1     0.       0
 H                    5     2.07867  3     180.     2     0.       0
 H                    6     2.07867  4     180.     1     0.       0
 H                    7     2.07867  5     180.     2     0.       0
 H                    8     2.07867  6     180.     1     0.       0
 
                          Input orientation:                          
 ---------------------------------------------------------------------
 Center     Atomic      Atomic             Coordinates (Angstroms)
 Number     Number       Type             X           Y           Z
 ---------------------------------------------------------------------
      1          1           0        0.000000    0.000000    0.000000
      2          1           0        0.000000    0.000000    2.078669
      3          1           0        0.555500    0.000000    2.003069
      4          1           0        0.555500    0.000000    4.081738
      5          1           0        1.111000    0.000000    4.006137
      6          1           0        1.111000    0.000000    6.084806
      7          1           0        1.666500    0.000000    6.009206
      8          1           0        1.666500    0.000000    8.087875
      9          1           0        2.222000    0.000000    8.012275
     10          1           0        2.222000    0.000000   10.090944
 ---------------------------------------------------------------------
                    Distance matrix (angstroms):
                    1          2          3          4          5
     1  H    0.000000
     2  H    2.078669   0.000000
     3  H    2.078669   0.560621   0.000000
     4  H    4.119364   2.078669   2.078669   0.000000
     5  H    4.157338   2.224737   2.078669   0.560621   0.000000
     6  H    6.185401   4.157338   4.119364   2.078669   2.078669
     7  H    6.236007   4.269233   4.157338   2.224737   2.078669
     8  H    8.257781   6.236007   6.185401   4.157338   4.119364
     9  H    8.314676   6.336005   6.236007   4.269233   4.157338
    10  H   10.332688   8.314676   8.257781   6.236007   6.185401
                    6          7          8          9         10
     6  H    0.000000
     7  H    0.560621   0.000000
     8  H    2.078669   2.078669   0.000000
     9  H    2.224737   2.078669   0.560621   0.000000
    10  H    4.157338   4.119364   2.078669   2.078669   0.000000
 Stoichiometry    H10
 Framework group  C2H[SGH(H10)]
 Deg. of freedom     9
 Full point group                 C2H     NOp   4
 Largest Abelian subgroup         C2H     NOp   4
 Largest concise Abelian subgroup C2      NOp   2
                         Standard orientation:                         
 ---------------------------------------------------------------------
 Center     Atomic      Atomic             Coordinates (Angstroms)
 Number     Number       Type             X           Y           Z
 ---------------------------------------------------------------------
      1          1           0        1.111000    5.045472    0.000000
      2          1           0        1.111000    2.966803    0.000000
      3          1           0        0.555500    3.042403    0.000000
      4          1           0        0.555500    0.963734    0.000000
      5          1           0        0.000000    1.039334    0.000000
      6          1           0        0.000000   -1.039334    0.000000
      7          1           0       -0.555500   -0.963734    0.000000
      8          1           0       -0.555500   -3.042403    0.000000
      9          1           0       -1.111000   -2.966803    0.000000
     10          1           0       -1.111000   -5.045472    0.000000
 ---------------------------------------------------------------------
 Rotational constants (GHZ):    726.0725924      5.1948747      5.1579707
 General basis read from cards:  (5D, 7F)
 There are     5 symmetry adapted cartesian basis functions of AG  symmetry.
 There are     0 symmetry adapted cartesian basis functions of BG  symmetry.
 There are     0 symmetry adapted cartesian basis functions of AU  symmetry.
 There are     5 symmetry adapted cartesian basis functions of BU  symmetry.
 There are     5 symmetry adapted basis functions of AG  symmetry.
 There are     0 symmetry adapted basis functions of BG  symmetry.
 There are     0 symmetry adapted basis functions of AU  symmetry.
 There are     5 symmetry adapted basis functions of BU  symmetry.
    10 basis functions,   100 primitive gaussians,    10 cartesian basis functions
     5 alpha electrons        5 beta electrons
       nuclear repulsion energy        10.3104555073 Hartrees.
 NAtoms=   10 NActive=   10 NUniq=    5 SFac= 4.00D+00 NAtFMM=   60 NAOKFM=F Big=F
 Integral buffers will be    131072 words long.
 Regular integral format.
 Two-electron integral symmetry is turned off.
 One-electron integrals computed using PRISM.
 NBasis=    10 RedAO= T EigKep=  1.30D-01  NBF=     5     0     0     5
 NBsUse=    10 1.00D-06 EigRej= -1.00D+00 NBFU=     5     0     0     5
 IOp(28)                       1
                        1                       0
                        2                       1
                        3                       1
                        4                      20
                        5                       0
                        6                       0
                        7                      10
                        8                       1
                        9                       4
                       10                       0
                       11              1073741824
                       12                      20
                       13                       2
                       14                  131070
                       15                       1
                       16                       1
                       17                  131073
                       18                       0
                       19                       0
                       20                       0
                       21                       2
                       22                  131070
                       23                       0
                       24                       0
                       25                       0
                       26                       0
                       27                   65535
                       28                       2
                       29                  131072
                       30                       0
 IHMeth                       1
 ib3: ISMode =                        0                       4
 Enter DskPsm, NBasis=  10 NBas6D=  10 NShell=  10 IDoSP=4.
 Out2e will use a cutoff of  1.00D-10
 FoFCou: FMM=F IPFlag=           0 FMFlag=           0 FMFlg1=           0
         NFxFlg=           0 DoJE=F BraDBF=F KetDBF=F FulRan=T
         wScrn=  0.000000 ICntrl=     600 IOpCl=  9 I1Cent=           0 NGrid=           0
         NMat0=    0 NMatS0=      0 NMatT0=    0 NMatD0=    0 NMtDS0=    0 NMtDT0=    0
 Symmetry not used in FoFCou.
 Entering PrmDigJobTyp =                      20
 LenSav and NKeep                       0                       0
 Entered Stor2E with KNTT1,2                       2                  131070
 Leave Stor2X
 Entering PrmDigJobTyp =                      20
 LenSav and NKeep                       0                       0
 Entered Stor2E with KNTT1,2                       2                  131056
 Leave Stor2X
 Entering PrmDigJobTyp =                      20
 LenSav and NKeep                       0                       0
 Entered Stor2E with KNTT1,2                       2                  131042
 Leave Stor2X
 Entering PrmDigJobTyp =                      20
 LenSav and NKeep                       0                       0
 Entered Stor2E with KNTT1,2                       2                  131028
 Leave Stor2X
 Entering PrmDigJobTyp =                      20
 LenSav and NKeep                       0                       0
 Entered Stor2E with KNTT1,2                       2                  131014
 Leave Stor2X
 Entering PrmDigJobTyp =                      20
 LenSav and NKeep                       0                       0
 Entered Stor2E with KNTT1,2                       2                  131000
 Leave Stor2X
 Entering PrmDigJobTyp =                      20
 LenSav and NKeep                       0                       0
 Entered Stor2E with KNTT1,2                       2                  130986
 Leave Stor2X
 Entering PrmDigJobTyp =                      20
 LenSav and NKeep                       0                       0
 Entered Stor2E with KNTT1,2                       2                  130972
 Leave Stor2X
 Entering PrmDigJobTyp =                      20
 LenSav and NKeep                       0                       0
 Entered Stor2E with KNTT1,2                       2                  130960
 Leave Stor2X
 Entering PrmDigJobTyp =                      20
 LenSav and NKeep                       0                       0
 Entered Stor2E with KNTT1,2                       2                  130944
 Leave Stor2X
 Entering PrmDigJobTyp =                      20
 LenSav and NKeep                       0                       0
 Entered Stor2E with KNTT1,2                       2                  130928
 Leave Stor2X
 Entering PrmDigJobTyp =                      20
 LenSav and NKeep                       0                       0
 Entered Stor2E with KNTT1,2                       2                  130912
 Leave Stor2X
 Entering PrmDigJobTyp =                      20
 LenSav and NKeep                       0                       0
 Entered Stor2E with KNTT1,2                       2                  130896
 Leave Stor2X
 Entering PrmDigJobTyp =                      20
 LenSav and NKeep                       0                       0
 Entered Stor2E with KNTT1,2                       2                  130880
 Leave Stor2X
 Entering PrmDigJobTyp =                      20
 LenSav and NKeep                       0                       0
 Entered Stor2E with KNTT1,2                       2                  130864
 Leave Stor2X
 Entering PrmDigJobTyp =                      20
 LenSav and NKeep                       0                       0
 Entered Stor2E with KNTT1,2                       2                  130848
 Leave Stor2X
 Entering PrmDigJobTyp =                      20
 LenSav and NKeep                       0                       0
 Entered Stor2E with KNTT1,2                       2                  130832
 Leave Stor2X
 Entering PrmDigJobTyp =                      20
 LenSav and NKeep                       0                       0
 Entered Stor2E with KNTT1,2                       2                  130816
 Leave Stor2X
 Entering PrmDigJobTyp =                      20
 LenSav and NKeep                       0                       0
 Entered Stor2E with KNTT1,2                       2                  130800
 Leave Stor2X
 Entering PrmDigJobTyp =                      20
 LenSav and NKeep                       0                       0
 Entered Stor2E with KNTT1,2                       2                  130784
 Leave Stor2X
 Entering PrmDigJobTyp =                      20
 LenSav and NKeep                       0                       0
 Entered Stor2E with KNTT1,2                       2                  130768
 Leave Stor2X
 Entering PrmDigJobTyp =                      20
 LenSav and NKeep                       0                       0
 Entered Stor2E with KNTT1,2                       2                  130752
 Leave Stor2X
 Entering PrmDigJobTyp =                      20
 LenSav and NKeep                       0                       0
 Entered Stor2E with KNTT1,2                       2                  130736
 Leave Stor2X
 Entering PrmDigJobTyp =                      20
 LenSav and NKeep                       0                       0
 Entered Stor2E with KNTT1,2                       2                  130720
 Leave Stor2X
 Entering PrmDigJobTyp =                      20
 LenSav and NKeep                       0                       0
 Entered Stor2E with KNTT1,2                       2                  130704
 Leave Stor2X
 Entering PrmDigJobTyp =                      20
 LenSav and NKeep                       0                       0
 Entered Stor2E with KNTT1,2                       2                  130700
 Leave Stor2X
 Entering PrmDigJobTyp =                      20
 LenSav and NKeep                       0                       0
 Entered Stor2E with KNTT1,2                      10                  130682
 Leave Stor2X
 Entering PrmDigJobTyp =                      20
 LenSav and NKeep                       0                       0
 Entered Stor2E with KNTT1,2                      24                  130670
 Leave Stor2X
 Entering PrmDigJobTyp =                      20
 LenSav and NKeep                       0                       0
 Entered Stor2E with KNTT1,2                      40                  130660
 Leave Stor2X
 Entering PrmDigJobTyp =                      20
 LenSav and NKeep                       0                       0
 Entered Stor2E with KNTT1,2                      60                  130654
 Leave Stor2X
 Entering PrmDigJobTyp =                      20
 LenSav and NKeep                       0                       0
 Entered Stor2E with KNTT1,2                      76                  130644
 Leave Stor2X
 Entering PrmDigJobTyp =                      20
 LenSav and NKeep                       0                       0
 Entered Stor2E with KNTT1,2                      94                  130636
 Leave Stor2X
 Entering PrmDigJobTyp =                      20
 LenSav and NKeep                       0                       0
 Entered Stor2E with KNTT1,2                     114                  130630
 Leave Stor2X
 Entering PrmDigJobTyp =                      20
 LenSav and NKeep                       0                       0
 Entered Stor2E with KNTT1,2                     114                  130616
 Leave Stor2X
 Entering PrmDigJobTyp =                      20
 LenSav and NKeep                       0                       0
 Entered Stor2E with KNTT1,2                     114                  130602
 Leave Stor2X
 Entering PrmDigJobTyp =                      20
 LenSav and NKeep                       0                       0
 Entered Stor2E with KNTT1,2                     114                  130588
 Leave Stor2X
 Entering PrmDigJobTyp =                      20
 LenSav and NKeep                       0                       0
 Entered Stor2E with KNTT1,2                     114                  130574
 Leave Stor2X
 Entering PrmDigJobTyp =                      20
 LenSav and NKeep                       0                       0
 Entered Stor2E with KNTT1,2                     114                  130560
 Leave Stor2X
 Entering PrmDigJobTyp =                      20
 LenSav and NKeep                       0                       0
 Entered Stor2E with KNTT1,2                     114                  130550
 Leave Stor2X
 Entering PrmDigJobTyp =                      20
 LenSav and NKeep                       0                       0
 Entered Stor2E with KNTT1,2                     124                  130540
 Leave Stor2X
 Entering PrmDigJobTyp =                      20
 LenSav and NKeep                       0                       0
 Entered Stor2E with KNTT1,2                     134                  130530
 Leave Stor2X
 Entering PrmDigJobTyp =                      20
 LenSav and NKeep                       0                       0
 Entered Stor2E with KNTT1,2                     152                  130528
 Leave Stor2X
 Entering PrmDigJobTyp =                      20
 LenSav and NKeep                       0                       0
 Entered Stor2E with KNTT1,2                     160                  130516
 Leave Stor2X
 Entering PrmDigJobTyp =                      20
 LenSav and NKeep                       0                       0
 Entered Stor2E with KNTT1,2                     174                  130510
 Leave Stor2X
 Entering PrmDigJobTyp =                      20
 LenSav and NKeep                       0                       0
 Entered Stor2E with KNTT1,2                     174                  130506
 Leave Stor2X
 Entering PrmDigJobTyp =                      20
 LenSav and NKeep                       0                       0
 Entered Stor2E with KNTT1,2                     184                  130500
 Leave Stor2X
 Entering PrmDigJobTyp =                      20
 LenSav and NKeep                       0                       0
 Entered Stor2E with KNTT1,2                     186                  130498
 Leave Stor2X
 Entering PrmDigJobTyp =                      20
 LenSav and NKeep                       0                       0
 Entered Stor2E with KNTT1,2                     186                  130476
 Leave Stor2X
 Entering PrmDigJobTyp =                      20
 LenSav and NKeep                       0                       0
 Entered Stor2E with KNTT1,2                     186                  130454
 Leave Stor2X
 Entering PrmDigJobTyp =                      20
 LenSav and NKeep                       0                       0
 Entered Stor2E with KNTT1,2                     186                  130432
 Leave Stor2X
 Entering PrmDigJobTyp =                      20
 LenSav and NKeep                       0                       0
 Entered Stor2E with KNTT1,2                     186                  130410
 Leave Stor2X
 Entering PrmDigJobTyp =                      20
 LenSav and NKeep                       0                       0
 Entered Stor2E with KNTT1,2                     186                  130388
 Leave Stor2X
 Entering PrmDigJobTyp =                      20
 LenSav and NKeep                       0                       0
 Entered Stor2E with KNTT1,2                     186                  130366
 Leave Stor2X
 Entering PrmDigJobTyp =                      20
 LenSav and NKeep                       0                       0
 Entered Stor2E with KNTT1,2                     186                  130344
 Leave Stor2X
 Entering PrmDigJobTyp =                      20
 LenSav and NKeep                       0                       0
 Entered Stor2E with KNTT1,2                     186                  130322
 Leave Stor2X
 Entering PrmDigJobTyp =                      20
 LenSav and NKeep                       0                       0
 Entered Stor2E with KNTT1,2                     186                  130300
 Leave Stor2X
 Entering PrmDigJobTyp =                      20
 LenSav and NKeep                       0                       0
 Entered Stor2E with KNTT1,2                     186                  130298
 Leave Stor2X
 Entering PrmDigJobTyp =                      20
 LenSav and NKeep                       0                       0
 Entered Stor2E with KNTT1,2                     206                  130282
 Leave Stor2X
 Entering PrmDigJobTyp =                      20
 LenSav and NKeep                       0                       0
 Entered Stor2E with KNTT1,2                     228                  130268
 Leave Stor2X
 Entering PrmDigJobTyp =                      20
 LenSav and NKeep                       0                       0
 Entered Stor2E with KNTT1,2                     250                  130254
 Leave Stor2X
 Entering PrmDigJobTyp =                      20
 LenSav and NKeep                       0                       0
 Entered Stor2E with KNTT1,2                     270                  130238
 Leave Stor2X
 Entering PrmDigJobTyp =                      20
 LenSav and NKeep                       0                       0
 Entered Stor2E with KNTT1,2                     288                  130220
 Leave Stor2X
 Entering PrmDigJobTyp =                      20
 LenSav and NKeep                       0                       0
 Entered Stor2E with KNTT1,2                     314                  130210
 Leave Stor2X
 Entering PrmDigJobTyp =                      20
 LenSav and NKeep                       0                       0
 Entered Stor2E with KNTT1,2                     338                  130198
 Leave Stor2X
 Entering PrmDigJobTyp =                      20
 LenSav and NKeep                       0                       0
 Entered Stor2E with KNTT1,2                     338                  130190
 Leave Stor2X
 Entering PrmDigJobTyp =                      20
 LenSav and NKeep                       0                       0
 Entered Stor2E with KNTT1,2                     354                  130180
 Leave Stor2X
 Entering PrmDigJobTyp =                      20
 LenSav and NKeep                       0                       0
 Entered Stor2E with KNTT1,2                     368                  130168
 Leave Stor2X
 Entering PrmDigJobTyp =                      20
 LenSav and NKeep                       0                       0
 Entered Stor2E with KNTT1,2                     384                  130158
 Leave Stor2X
 Entering PrmDigJobTyp =                      20
 LenSav and NKeep                       0                       0
 Entered Stor2E with KNTT1,2                     386                  130158
 Leave Stor2X
 Entering PrmDigJobTyp =                      20
 LenSav and NKeep                       0                       0
 Entered Stor2E with KNTT1,2                     412                  130136
 Leave Stor2X
 Entering PrmDigJobTyp =                      20
 LenSav and NKeep                       0                       0
 Entered Stor2E with KNTT1,2                     444                  130120
 Leave Stor2X
 Entering PrmDigJobTyp =                      20
 LenSav and NKeep                       0                       0
 Entered Stor2E with KNTT1,2                     452                  130114
 Leave Stor2X
 Entering PrmDigJobTyp =                      20
 LenSav and NKeep                       0                       0
 Entered Stor2E with KNTT1,2                     452                  130096
 Leave Stor2X
 Entering PrmDigJobTyp =                      20
 LenSav and NKeep                       0                       0
 Entered Stor2E with KNTT1,2                     452                  130078
 Leave Stor2X
 Entering PrmDigJobTyp =                      20
 LenSav and NKeep                       0                       0
 Entered Stor2E with KNTT1,2                     452                  130060
 Leave Stor2X
 Entering PrmDigJobTyp =                      20
 LenSav and NKeep                       0                       0
 Entered Stor2E with KNTT1,2                     452                  130054
 Leave Stor2X
 Entering PrmDigJobTyp =                      20
 LenSav and NKeep                       0                       0
 Entered Stor2E with KNTT1,2                     468                  130044
 Leave Stor2X
 Entering PrmDigJobTyp =                      20
 LenSav and NKeep                       0                       0
 Entered Stor2E with KNTT1,2                     482                  130032
 Leave Stor2X
 Entering PrmDigJobTyp =                      20
 LenSav and NKeep                       0                       0
 Entered Stor2E with KNTT1,2                     498                  130022
 Leave Stor2X
 Entering PrmDigJobTyp =                      20
 LenSav and NKeep                       0                       0
 Entered Stor2E with KNTT1,2                     510                  130014
 Leave Stor2X
 Entering PrmDigJobTyp =                      20
 LenSav and NKeep                       0                       0
 Entered Stor2E with KNTT1,2                     510                  130010
 Leave Stor2X
 Entering PrmDigJobTyp =                      20
 LenSav and NKeep                       0                       0
 Entered Stor2E with KNTT1,2                     532                  129996
 Leave Stor2X
 Entering PrmDigJobTyp =                      20
 LenSav and NKeep                       0                       0
 Entered Stor2E with KNTT1,2                     546                  129986
 Leave Stor2X
 Entering PrmDigJobTyp =                      20
 LenSav and NKeep                       0                       0
 Entered Stor2E with KNTT1,2                     552                  129980
 Leave Stor2X
 Entering PrmDigJobTyp =                      20
 LenSav and NKeep                       0                       0
 Entered Stor2E with KNTT1,2                     552                  129950
 Leave Stor2X
 Entering PrmDigJobTyp =                      20
 LenSav and NKeep                       0                       0
 Entered Stor2E with KNTT1,2                     552                  129920
 Leave Stor2X
 Entering PrmDigJobTyp =                      20
 LenSav and NKeep                       0                       0
 Entered Stor2E with KNTT1,2                     552                  129890
 Leave Stor2X
 Entering PrmDigJobTyp =                      20
 LenSav and NKeep                       0                       0
 Entered Stor2E with KNTT1,2                     552                  129860
 Leave Stor2X
 Entering PrmDigJobTyp =                      20
 LenSav and NKeep                       0                       0
 Entered Stor2E with KNTT1,2                     552                  129830
 Leave Stor2X
 Entering PrmDigJobTyp =                      20
 LenSav and NKeep                       0                       0
 Entered Stor2E with KNTT1,2                     552                  129820
 Leave Stor2X
 Entering PrmDigJobTyp =                      20
 LenSav and NKeep                       0                       0
 Entered Stor2E with KNTT1,2                     580                  129800
 Leave Stor2X
 Entering PrmDigJobTyp =                      20
 LenSav and NKeep                       0                       0
 Entered Stor2E with KNTT1,2                     610                  129782
 Leave Stor2X
 Entering PrmDigJobTyp =                      20
 LenSav and NKeep                       0                       0
 Entered Stor2E with KNTT1,2                     640                  129764
 Leave Stor2X
 Entering PrmDigJobTyp =                      20
 LenSav and NKeep                       0                       0
 Entered Stor2E with KNTT1,2                     672                  129748
 Leave Stor2X
 Entering PrmDigJobTyp =                      20
 LenSav and NKeep                       0                       0
 Entered Stor2E with KNTT1,2                     680                  129740
 Leave Stor2X
 Entering PrmDigJobTyp =                      20
 LenSav and NKeep                       0                       0
 Entered Stor2E with KNTT1,2                     702                  129726
 Leave Stor2X
 Entering PrmDigJobTyp =                      20
 LenSav and NKeep                       0                       0
 Entered Stor2E with KNTT1,2                     720                  129716
 Leave Stor2X
 Entering PrmDigJobTyp =                      20
 LenSav and NKeep                       0                       0
 Entered Stor2E with KNTT1,2                     760                  129692
 Leave Stor2X
 Entering PrmDigJobTyp =                      20
 LenSav and NKeep                       0                       0
 Entered Stor2E with KNTT1,2                     804                  129672
 Leave Stor2X
 Entering PrmDigJobTyp =                      20
 LenSav and NKeep                       0                       0
 Entered Stor2E with KNTT1,2                     820                  129656
 Leave Stor2X
 Entering PrmDigJobTyp =                      20
 LenSav and NKeep                       0                       0
 Entered Stor2E with KNTT1,2                     852                  129640
 Leave Stor2X
 Entering PrmDigJobTyp =                      20
 LenSav and NKeep                       0                       0
 Entered Stor2E with KNTT1,2                     896                  129612
 Leave Stor2X
 Entering PrmDigJobTyp =                      20
 LenSav and NKeep                       0                       0
 Entered Stor2E with KNTT1,2                     896                  129588
 Leave Stor2X
 Entering PrmDigJobTyp =                      20
 LenSav and NKeep                       0                       0
 Entered Stor2E with KNTT1,2                     896                  129572
 Leave Stor2X
 Entering PrmDigJobTyp =                      20
 LenSav and NKeep                       0                       0
 Entered Stor2E with KNTT1,2                     918                  129556
 Leave Stor2X
 Entering PrmDigJobTyp =                      20
 LenSav and NKeep                       0                       0
 Entered Stor2E with KNTT1,2                     928                  129552
 Leave Stor2X
 Entering PrmDigJobTyp =                      20
 LenSav and NKeep                       0                       0
 Entered Stor2E with KNTT1,2                     936                  129544
 Leave Stor2X
 Entering PrmDigJobTyp =                      20
 LenSav and NKeep                       0                       0
 Entered Stor2E with KNTT1,2                     964                  129532
 Leave Stor2X
 Entering PrmDigJobTyp =                      20
 LenSav and NKeep                       0                       0
 Entered Stor2E with KNTT1,2                     968                  129524
 Leave Stor2X
 Entering PrmDigJobTyp =                      20
 LenSav and NKeep                       0                       0
 Entered Stor2E with KNTT1,2                     988                  129512
 Leave Stor2X
 Entering PrmDigJobTyp =                      20
 LenSav and NKeep                       0                       0
 Entered Stor2E with KNTT1,2                     990                  129508
 Leave Stor2X
 Entering PrmDigJobTyp =                      20
 LenSav and NKeep                       0                       0
 Entered Stor2E with KNTT1,2                     990                  129464
 Leave Stor2X
 Entering PrmDigJobTyp =                      20
 LenSav and NKeep                       0                       0
 Entered Stor2E with KNTT1,2                     990                  129428
 Leave Stor2X
 Entering PrmDigJobTyp =                      20
 LenSav and NKeep                       0                       0
 Entered Stor2E with KNTT1,2                    1036                  129406
 Leave Stor2X
 Entering PrmDigJobTyp =                      20
 LenSav and NKeep                       0                       0
 Entered Stor2E with KNTT1,2                    1058                  129392
 Leave Stor2X
 Entering PrmDigJobTyp =                      20
 LenSav and NKeep                       0                       0
 Entered Stor2E with KNTT1,2                    1082                  129384
 Leave Stor2X
 Entering PrmDigJobTyp =                      20
 LenSav and NKeep                       0                       0
 Entered Stor2E with KNTT1,2                    1134                  129356
 Leave Stor2X
 Entering PrmDigJobTyp =                      20
 LenSav and NKeep                       0                       0
 Entered Stor2E with KNTT1,2                    1154                  129352
 Leave Stor2X
 Entering PrmDigJobTyp =                      20
 LenSav and NKeep                       0                       0
 Entered Stor2E with KNTT1,2                    1160                  129344
 Leave Stor2X
 Entering PrmDigJobTyp =                      20
 LenSav and NKeep                       0                       0
 Entered Stor2E with KNTT1,2                    1166                  129336
 Leave Stor2X
 Entering PrmDigJobTyp =                      20
 LenSav and NKeep                       0                       0
 Entered Stor2E with KNTT1,2                    1176                  129332
 Leave Stor2X
 Entering PrmDigJobTyp =                      20
 LenSav and NKeep                       0                       0
 Entered Stor2E with KNTT1,2                    1184                  129326
 Leave Stor2X
 Entering PrmDigJobTyp =                      20
 LenSav and NKeep                       0                       0
 Entered Stor2E with KNTT1,2                    1186                  129320
 Leave Stor2X
 Entering PrmDigJobTyp =                      20
 LenSav and NKeep                       0                       0
 Entered Stor2E with KNTT1,2                    1198                  129316
 Leave Stor2X
 Entering PrmDigJobTyp =                      20
 LenSav and NKeep                       0                       0
 Entered Stor2E with KNTT1,2                    1198                  129316
 Leave Stor2X
 Entering PrmDigJobTyp =                      20
 LenSav and NKeep                       0                       0
 Entered Stor2E with KNTT1,2                    1198                  129296
 Leave Stor2X
 Entering PrmDigJobTyp =                      20
 LenSav and NKeep                       0                       0
 Entered Stor2E with KNTT1,2                    1216                  129288
 Leave Stor2X
 Entering PrmDigJobTyp =                      20
 LenSav and NKeep                       0                       0
 Entered Stor2E with KNTT1,2                    1224                  129288
 Leave Stor2X
 Entering PrmDigJobTyp =                      20
 LenSav and NKeep                       0                       0
 Entered Stor2E with KNTT1,2                    1234                  129284
 Leave Stor2X
 Entering PrmDigJobTyp =                      20
 LenSav and NKeep                       0                       0
 Entered Stor2E with KNTT1,2                    1236                  129280
 Leave Stor2X
 Entering PrmDigJobTyp =                      20
 LenSav and NKeep                       0                       0
 Entered Stor2E with KNTT1,2                    1242                  129280
 Leave Stor2X
 Entering PrmDigJobTyp =                      20
 LenSav and NKeep                       0                       0
 Entered Stor2E with KNTT1,2                    1242                  129280
 Leave Stor2X
 In PrSumR
 Called IWRITE
         1517 integrals produced for a total of         1517.
 Initial guess from the checkpoint file:  "h10.chk"
 B after Tr=     0.000000    0.000000    0.000000
         Rot=    0.983798    0.000000    0.000000   -0.179280 Ang= -20.66 deg.
 Initial guess <Sx>= 0.0000 <Sy>= 0.0000 <Sz>= 0.0000 <S**2>= 0.0000 S= 0.0000
 Two-electron integrals will be kept in memory, NGetB=      152788.
 Requested convergence on RMS density matrix=1.00D-08 within 128 cycles.
 Requested convergence on MAX density matrix=1.00D-06.
 Requested convergence on             energy=1.00D-06.
 No special actions if energy rises.
 Density File Not Found. Continue as usual
 SCF Done:  E(GHF) =  -4.75536403333     A.U. after   12 cycles
            NFock= 12  Conv=0.22D-09     -V/T= 1.9966
 <Sx>= 0.0000 <Sy>= 0.0000 <Sz>= 0.0000 <S**2>= 0.0000 S= 0.0000
 <L.S>= 0.000000000000E+00
 Range of M.O.s used for correlation:     1    10
 NBasis=    10 NAE=    10 NBE=     0 NFC=     0 NFV=     0
 NROrb=     20 NOA=    10 NOB=     0 NVA=    10 NVB=     0

 **** Warning!!: The smallest alpha delta epsilon is  0.51195968D-01

 jaja DoHack is true or false? T
 jaja in hckghf.F, NBasis=                      10
 jaja in hckGHF/FixOG, LC =                      800
 jaja in hckGHF/FixOG, IRwC=                      548
 bfr conversion (real):
                 1             2             3             4             5 
      1a -0.163923D-03  0.590937D-04 -0.191828D-04  0.833788D-03 -0.467935D-04
      1b -0.590937D-04 -0.163923D-03  0.833788D-03  0.191828D-04  0.735080D-02
      2a  0.157945D+00 -0.569386D-01 -0.680220D-02  0.295661D+00 -0.212618D-02
      2b  0.569386D-01  0.157945D+00  0.295661D+00  0.680220D-02  0.334002D+00
      3a  0.157690D+00 -0.568464D-01 -0.682588D-02  0.296690D+00 -0.214276D-02
      3b  0.568464D-01  0.157690D+00  0.296690D+00  0.682588D-02  0.336606D+00
      4a  0.253933D+00 -0.915417D-01 -0.418123D-02  0.181739D+00  0.134440D-02
      4b  0.915417D-01  0.253933D+00  0.181739D+00  0.418123D-02 -0.211192D+00
      5a  0.253195D+00 -0.912758D-01 -0.422727D-02  0.183740D+00  0.133235D-02
      5b  0.912758D-01  0.253195D+00  0.183740D+00  0.422727D-02 -0.209299D+00
      6a  0.253195D+00 -0.912758D-01  0.422727D-02 -0.183740D+00  0.133235D-02
      6b  0.912758D-01  0.253195D+00 -0.183740D+00 -0.422727D-02 -0.209299D+00
      7a  0.253933D+00 -0.915417D-01  0.418123D-02 -0.181739D+00  0.134440D-02
      7b  0.915417D-01  0.253933D+00 -0.181739D+00 -0.418123D-02 -0.211192D+00
      8a  0.157690D+00 -0.568464D-01  0.682588D-02 -0.296690D+00 -0.214276D-02
      8b  0.568464D-01  0.157690D+00 -0.296690D+00 -0.682588D-02  0.336606D+00
      9a  0.157945D+00 -0.569386D-01  0.680220D-02 -0.295661D+00 -0.212618D-02
      9b  0.569386D-01  0.157945D+00 -0.295661D+00 -0.680220D-02  0.334002D+00
     10a -0.163923D-03  0.590937D-04  0.191828D-04 -0.833788D-03 -0.467935D-04
     10b -0.590937D-04 -0.163923D-03 -0.833788D-03 -0.191828D-04  0.735080D-02
                 6             7             8             9            10 
      1a  0.735080D-02  0.525057D-03 -0.684767D-02  0.181259D-01  0.723076D+00
      1b  0.467935D-04 -0.684767D-02 -0.525057D-03  0.723076D+00 -0.181259D-01
      2a  0.334002D+00  0.177710D-01 -0.231766D+00 -0.211454D-02 -0.843529D-01
      2b  0.212618D-02 -0.231766D+00 -0.177710D-01 -0.843529D-01  0.211454D-02
      3a  0.336606D+00  0.179057D-01 -0.233522D+00 -0.208621D-02 -0.832227D-01
      3b  0.214276D-02 -0.233522D+00 -0.179057D-01 -0.832227D-01  0.208621D-02
      4a -0.211192D+00 -0.292523D-01  0.381502D+00  0.398729D-03  0.159061D-01
      4b -0.134440D-02  0.381502D+00  0.292523D-01  0.159061D-01 -0.398729D-03
      5a -0.209299D+00 -0.292558D-01  0.381547D+00  0.536203D-03  0.213902D-01
      5b -0.133235D-02  0.381547D+00  0.292558D-01  0.213902D-01 -0.536203D-03
      6a -0.209299D+00  0.292558D-01 -0.381547D+00 -0.536203D-03 -0.213902D-01
      6b -0.133235D-02 -0.381547D+00 -0.292558D-01 -0.213902D-01  0.536203D-03
      7a -0.211192D+00  0.292523D-01 -0.381502D+00 -0.398729D-03 -0.159061D-01
      7b -0.134440D-02 -0.381502D+00 -0.292523D-01 -0.159061D-01  0.398729D-03
      8a  0.336606D+00 -0.179057D-01  0.233522D+00  0.208621D-02  0.832227D-01
      8b  0.214276D-02  0.233522D+00  0.179057D-01  0.832227D-01 -0.208621D-02
      9a  0.334002D+00 -0.177710D-01  0.231766D+00  0.211454D-02  0.843529D-01
      9b  0.212618D-02  0.231766D+00  0.177710D-01  0.843529D-01 -0.211454D-02
     10a  0.735080D-02 -0.525057D-03  0.684767D-02 -0.181259D-01 -0.723076D+00
     10b  0.467935D-04  0.684767D-02  0.525057D-03 -0.723076D+00  0.181259D-01
                11            12            13            14            15 
      1a  0.162117D-01  0.723025D+00 -0.466674D-02  0.254887D-03 -0.388916D-02
      1b  0.723025D+00 -0.162117D-01 -0.254887D-03 -0.466674D-02 -0.187837D-03
      2a -0.189195D-02 -0.843793D-01 -0.621904D+00  0.339670D-01 -0.104708D+01
      2b -0.843793D-01  0.189195D-02 -0.339670D-01 -0.621904D+00 -0.505715D-01
      3a -0.187384D-02 -0.835715D-01  0.639929D+00 -0.349515D-01  0.106361D+01
      3b -0.835715D-01  0.187384D-02  0.349515D-01  0.639929D+00  0.513696D-01
      4a  0.225354D-03  0.100506D-01 -0.979793D+00  0.535142D-01 -0.640495D+00
      4b  0.100506D-01 -0.225354D-03 -0.535142D-01 -0.979793D+00 -0.309343D-01
      5a  0.370698D-03  0.165328D-01  0.983951D+00 -0.537413D-01  0.612429D+00
      5b  0.165328D-01 -0.370698D-03  0.537413D-01  0.983951D+00  0.295788D-01
      6a  0.370698D-03  0.165328D-01 -0.983951D+00  0.537413D-01  0.612429D+00
      6b  0.165328D-01 -0.370698D-03 -0.537413D-01 -0.983951D+00  0.295788D-01
      7a  0.225354D-03  0.100506D-01  0.979793D+00 -0.535142D-01 -0.640495D+00
      7b  0.100506D-01 -0.225354D-03  0.535142D-01  0.979793D+00 -0.309343D-01
      8a -0.187384D-02 -0.835715D-01 -0.639929D+00  0.349515D-01  0.106361D+01
      8b -0.835715D-01  0.187384D-02 -0.349515D-01 -0.639929D+00  0.513696D-01
      9a -0.189195D-02 -0.843793D-01  0.621904D+00 -0.339670D-01 -0.104708D+01
      9b -0.843793D-01  0.189195D-02  0.339670D-01  0.621904D+00 -0.505715D-01
     10a  0.162117D-01  0.723025D+00  0.466674D-02 -0.254887D-03 -0.388916D-02
     10b  0.723025D+00 -0.162117D-01  0.254887D-03  0.466674D-02 -0.187837D-03
                16            17            18            19            20 
      1a  0.187837D-03 -0.169943D-02 -0.100965D-03  0.496917D-02  0.208999D-03
      1b -0.388916D-02  0.100965D-03 -0.169943D-02 -0.208999D-03  0.496917D-02
      2a  0.505715D-01  0.110516D+01  0.656590D-01 -0.719221D+00 -0.302498D-01
      2b -0.104708D+01 -0.656590D-01  0.110516D+01  0.302498D-01 -0.719221D+00
      3a -0.513696D-01 -0.109853D+01 -0.652648D-01  0.696463D+00  0.292925D-01
      3b  0.106361D+01  0.652648D-01 -0.109853D+01 -0.292925D-01  0.696463D+00
      4a  0.309343D-01 -0.687280D+00 -0.408321D-01  0.119344D+01  0.501947D-01
      4b -0.640495D+00  0.408321D-01 -0.687280D+00 -0.501947D-01  0.119344D+01
      5a -0.295788D-01  0.723628D+00  0.429916D-01 -0.118326D+01 -0.497666D-01
      5b  0.612429D+00 -0.429916D-01  0.723628D+00  0.497666D-01 -0.118326D+01
      6a -0.295788D-01 -0.723628D+00 -0.429916D-01 -0.118326D+01 -0.497666D-01
      6b  0.612429D+00  0.429916D-01 -0.723628D+00  0.497666D-01 -0.118326D+01
      7a  0.309343D-01  0.687280D+00  0.408321D-01  0.119344D+01  0.501947D-01
      7b -0.640495D+00 -0.408321D-01  0.687280D+00 -0.501947D-01  0.119344D+01
      8a -0.513696D-01  0.109853D+01  0.652648D-01  0.696463D+00  0.292925D-01
      8b  0.106361D+01 -0.652648D-01  0.109853D+01 -0.292925D-01  0.696463D+00
      9a  0.505715D-01 -0.110516D+01 -0.656590D-01 -0.719221D+00 -0.302498D-01
      9b -0.104708D+01  0.656590D-01 -0.110516D+01  0.302498D-01 -0.719221D+00
     10a  0.187837D-03  0.169943D-02  0.100965D-03  0.496917D-02  0.208999D-03
     10b -0.388916D-02 -0.100965D-03  0.169943D-02 -0.208999D-03  0.496917D-02
 bfr conversion (imaginary):
                 1             2             3             4             5 
      1a  0.000000D+00  0.000000D+00  0.000000D+00  0.000000D+00  0.000000D+00
      1b  0.000000D+00  0.000000D+00  0.000000D+00  0.000000D+00  0.000000D+00
      2a  0.000000D+00  0.000000D+00  0.000000D+00  0.000000D+00  0.000000D+00
      2b  0.000000D+00  0.000000D+00  0.000000D+00  0.000000D+00  0.000000D+00
      3a  0.000000D+00  0.000000D+00  0.000000D+00  0.000000D+00  0.000000D+00
      3b  0.000000D+00  0.000000D+00  0.000000D+00  0.000000D+00  0.000000D+00
      4a  0.000000D+00  0.000000D+00  0.000000D+00  0.000000D+00  0.000000D+00
      4b  0.000000D+00  0.000000D+00  0.000000D+00  0.000000D+00  0.000000D+00
      5a  0.000000D+00  0.000000D+00  0.000000D+00  0.000000D+00  0.000000D+00
      5b  0.000000D+00  0.000000D+00  0.000000D+00  0.000000D+00  0.000000D+00
      6a  0.000000D+00  0.000000D+00  0.000000D+00  0.000000D+00  0.000000D+00
      6b  0.000000D+00  0.000000D+00  0.000000D+00  0.000000D+00  0.000000D+00
      7a  0.000000D+00  0.000000D+00  0.000000D+00  0.000000D+00  0.000000D+00
      7b  0.000000D+00  0.000000D+00  0.000000D+00  0.000000D+00  0.000000D+00
      8a  0.000000D+00  0.000000D+00  0.000000D+00  0.000000D+00  0.000000D+00
      8b  0.000000D+00  0.000000D+00  0.000000D+00  0.000000D+00  0.000000D+00
      9a  0.000000D+00  0.000000D+00  0.000000D+00  0.000000D+00  0.000000D+00
      9b  0.000000D+00  0.000000D+00  0.000000D+00  0.000000D+00  0.000000D+00
     10a  0.000000D+00  0.000000D+00  0.000000D+00  0.000000D+00  0.000000D+00
     10b  0.000000D+00  0.000000D+00  0.000000D+00  0.000000D+00  0.000000D+00
                 6             7             8             9            10 
      1a  0.000000D+00  0.000000D+00  0.000000D+00  0.000000D+00  0.000000D+00
      1b  0.000000D+00  0.000000D+00  0.000000D+00  0.000000D+00  0.000000D+00
      2a  0.000000D+00  0.000000D+00  0.000000D+00  0.000000D+00  0.000000D+00
      2b  0.000000D+00  0.000000D+00  0.000000D+00  0.000000D+00  0.000000D+00
      3a  0.000000D+00  0.000000D+00  0.000000D+00  0.000000D+00  0.000000D+00
      3b  0.000000D+00  0.000000D+00  0.000000D+00  0.000000D+00  0.000000D+00
      4a  0.000000D+00  0.000000D+00  0.000000D+00  0.000000D+00  0.000000D+00
      4b  0.000000D+00  0.000000D+00  0.000000D+00  0.000000D+00  0.000000D+00
      5a  0.000000D+00  0.000000D+00  0.000000D+00  0.000000D+00  0.000000D+00
      5b  0.000000D+00  0.000000D+00  0.000000D+00  0.000000D+00  0.000000D+00
      6a  0.000000D+00  0.000000D+00  0.000000D+00  0.000000D+00  0.000000D+00
      6b  0.000000D+00  0.000000D+00  0.000000D+00  0.000000D+00  0.000000D+00
      7a  0.000000D+00  0.000000D+00  0.000000D+00  0.000000D+00  0.000000D+00
      7b  0.000000D+00  0.000000D+00  0.000000D+00  0.000000D+00  0.000000D+00
      8a  0.000000D+00  0.000000D+00  0.000000D+00  0.000000D+00  0.000000D+00
      8b  0.000000D+00  0.000000D+00  0.000000D+00  0.000000D+00  0.000000D+00
      9a  0.000000D+00  0.000000D+00  0.000000D+00  0.000000D+00  0.000000D+00
      9b  0.000000D+00  0.000000D+00  0.000000D+00  0.000000D+00  0.000000D+00
     10a  0.000000D+00  0.000000D+00  0.000000D+00  0.000000D+00  0.000000D+00
     10b  0.000000D+00  0.000000D+00  0.000000D+00  0.000000D+00  0.000000D+00
                11            12            13            14            15 
      1a  0.000000D+00  0.000000D+00  0.000000D+00  0.000000D+00  0.000000D+00
      1b  0.000000D+00  0.000000D+00  0.000000D+00  0.000000D+00  0.000000D+00
      2a  0.000000D+00  0.000000D+00  0.000000D+00  0.000000D+00  0.000000D+00
      2b  0.000000D+00  0.000000D+00  0.000000D+00  0.000000D+00  0.000000D+00
      3a  0.000000D+00  0.000000D+00  0.000000D+00  0.000000D+00  0.000000D+00
      3b  0.000000D+00  0.000000D+00  0.000000D+00  0.000000D+00  0.000000D+00
      4a  0.000000D+00  0.000000D+00  0.000000D+00  0.000000D+00  0.000000D+00
      4b  0.000000D+00  0.000000D+00  0.000000D+00  0.000000D+00  0.000000D+00
      5a  0.000000D+00  0.000000D+00  0.000000D+00  0.000000D+00  0.000000D+00
      5b  0.000000D+00  0.000000D+00  0.000000D+00  0.000000D+00  0.000000D+00
      6a  0.000000D+00  0.000000D+00  0.000000D+00  0.000000D+00  0.000000D+00
      6b  0.000000D+00  0.000000D+00  0.000000D+00  0.000000D+00  0.000000D+00
      7a  0.000000D+00  0.000000D+00  0.000000D+00  0.000000D+00  0.000000D+00
      7b  0.000000D+00  0.000000D+00  0.000000D+00  0.000000D+00  0.000000D+00
      8a  0.000000D+00  0.000000D+00  0.000000D+00  0.000000D+00  0.000000D+00
      8b  0.000000D+00  0.000000D+00  0.000000D+00  0.000000D+00  0.000000D+00
      9a  0.000000D+00  0.000000D+00  0.000000D+00  0.000000D+00  0.000000D+00
      9b  0.000000D+00  0.000000D+00  0.000000D+00  0.000000D+00  0.000000D+00
     10a  0.000000D+00  0.000000D+00  0.000000D+00  0.000000D+00  0.000000D+00
     10b  0.000000D+00  0.000000D+00  0.000000D+00  0.000000D+00  0.000000D+00
                16            17            18            19            20 
      1a  0.000000D+00  0.000000D+00  0.000000D+00  0.000000D+00  0.000000D+00
      1b  0.000000D+00  0.000000D+00  0.000000D+00  0.000000D+00  0.000000D+00
      2a  0.000000D+00  0.000000D+00  0.000000D+00  0.000000D+00  0.000000D+00
      2b  0.000000D+00  0.000000D+00  0.000000D+00  0.000000D+00  0.000000D+00
      3a  0.000000D+00  0.000000D+00  0.000000D+00  0.000000D+00  0.000000D+00
      3b  0.000000D+00  0.000000D+00  0.000000D+00  0.000000D+00  0.000000D+00
      4a  0.000000D+00  0.000000D+00  0.000000D+00  0.000000D+00  0.000000D+00
      4b  0.000000D+00  0.000000D+00  0.000000D+00  0.000000D+00  0.000000D+00
      5a  0.000000D+00  0.000000D+00  0.000000D+00  0.000000D+00  0.000000D+00
      5b  0.000000D+00  0.000000D+00  0.000000D+00  0.000000D+00  0.000000D+00
      6a  0.000000D+00  0.000000D+00  0.000000D+00  0.000000D+00  0.000000D+00
      6b  0.000000D+00  0.000000D+00  0.000000D+00  0.000000D+00  0.000000D+00
      7a  0.000000D+00  0.000000D+00  0.000000D+00  0.000000D+00  0.000000D+00
      7b  0.000000D+00  0.000000D+00  0.000000D+00  0.000000D+00  0.000000D+00
      8a  0.000000D+00  0.000000D+00  0.000000D+00  0.000000D+00  0.000000D+00
      8b  0.000000D+00  0.000000D+00  0.000000D+00  0.000000D+00  0.000000D+00
      9a  0.000000D+00  0.000000D+00  0.000000D+00  0.000000D+00  0.000000D+00
      9b  0.000000D+00  0.000000D+00  0.000000D+00  0.000000D+00  0.000000D+00
     10a  0.000000D+00  0.000000D+00  0.000000D+00  0.000000D+00  0.000000D+00
     10b  0.000000D+00  0.000000D+00  0.000000D+00  0.000000D+00  0.000000D+00
 afr conversion (alpha, real):
                 1             2             3             4             5 
      1  -0.163923D-03  0.590937D-04 -0.191828D-04  0.833788D-03 -0.467935D-04
      2   0.157945D+00 -0.569386D-01 -0.680220D-02  0.295661D+00 -0.212618D-02
      3   0.157690D+00 -0.568464D-01 -0.682588D-02  0.296690D+00 -0.214276D-02
      4   0.253933D+00 -0.915417D-01 -0.418123D-02  0.181739D+00  0.134440D-02
      5   0.253195D+00 -0.912758D-01 -0.422727D-02  0.183740D+00  0.133235D-02
      6   0.253195D+00 -0.912758D-01  0.422727D-02 -0.183740D+00  0.133235D-02
      7   0.253933D+00 -0.915417D-01  0.418123D-02 -0.181739D+00  0.134440D-02
      8   0.157690D+00 -0.568464D-01  0.682588D-02 -0.296690D+00 -0.214276D-02
      9   0.157945D+00 -0.569386D-01  0.680220D-02 -0.295661D+00 -0.212618D-02
     10  -0.163923D-03  0.590937D-04  0.191828D-04 -0.833788D-03 -0.467935D-04
                 6             7             8             9            10 
      1   0.735080D-02  0.525057D-03 -0.684767D-02  0.181259D-01  0.723076D+00
      2   0.334002D+00  0.177710D-01 -0.231766D+00 -0.211454D-02 -0.843529D-01
      3   0.336606D+00  0.179057D-01 -0.233522D+00 -0.208621D-02 -0.832227D-01
      4  -0.211192D+00 -0.292523D-01  0.381502D+00  0.398729D-03  0.159061D-01
      5  -0.209299D+00 -0.292558D-01  0.381547D+00  0.536203D-03  0.213902D-01
      6  -0.209299D+00  0.292558D-01 -0.381547D+00 -0.536203D-03 -0.213902D-01
      7  -0.211192D+00  0.292523D-01 -0.381502D+00 -0.398729D-03 -0.159061D-01
      8   0.336606D+00 -0.179057D-01  0.233522D+00  0.208621D-02  0.832227D-01
      9   0.334002D+00 -0.177710D-01  0.231766D+00  0.211454D-02  0.843529D-01
     10   0.735080D-02 -0.525057D-03  0.684767D-02 -0.181259D-01 -0.723076D+00
                11            12            13            14            15 
      1   0.162117D-01  0.723025D+00 -0.466674D-02  0.254887D-03 -0.388916D-02
      2  -0.189195D-02 -0.843793D-01 -0.621904D+00  0.339670D-01 -0.104708D+01
      3  -0.187384D-02 -0.835715D-01  0.639929D+00 -0.349515D-01  0.106361D+01
      4   0.225354D-03  0.100506D-01 -0.979793D+00  0.535142D-01 -0.640495D+00
      5   0.370698D-03  0.165328D-01  0.983951D+00 -0.537413D-01  0.612429D+00
      6   0.370698D-03  0.165328D-01 -0.983951D+00  0.537413D-01  0.612429D+00
      7   0.225354D-03  0.100506D-01  0.979793D+00 -0.535142D-01 -0.640495D+00
      8  -0.187384D-02 -0.835715D-01 -0.639929D+00  0.349515D-01  0.106361D+01
      9  -0.189195D-02 -0.843793D-01  0.621904D+00 -0.339670D-01 -0.104708D+01
     10   0.162117D-01  0.723025D+00  0.466674D-02 -0.254887D-03 -0.388916D-02
                16            17            18            19            20 
      1   0.187837D-03 -0.169943D-02 -0.100965D-03  0.496917D-02  0.208999D-03
      2   0.505715D-01  0.110516D+01  0.656590D-01 -0.719221D+00 -0.302498D-01
      3  -0.513696D-01 -0.109853D+01 -0.652648D-01  0.696463D+00  0.292925D-01
      4   0.309343D-01 -0.687280D+00 -0.408321D-01  0.119344D+01  0.501947D-01
      5  -0.295788D-01  0.723628D+00  0.429916D-01 -0.118326D+01 -0.497666D-01
      6  -0.295788D-01 -0.723628D+00 -0.429916D-01 -0.118326D+01 -0.497666D-01
      7   0.309343D-01  0.687280D+00  0.408321D-01  0.119344D+01  0.501947D-01
      8  -0.513696D-01  0.109853D+01  0.652648D-01  0.696463D+00  0.292925D-01
      9   0.505715D-01 -0.110516D+01 -0.656590D-01 -0.719221D+00 -0.302498D-01
     10   0.187837D-03  0.169943D-02  0.100965D-03  0.496917D-02  0.208999D-03
 afr conversion (alpha, imaginary):
                 1             2             3             4             5 
      1   0.000000D+00  0.000000D+00  0.000000D+00  0.000000D+00  0.000000D+00
      2   0.000000D+00  0.000000D+00  0.000000D+00  0.000000D+00  0.000000D+00
      3   0.000000D+00  0.000000D+00  0.000000D+00  0.000000D+00  0.000000D+00
      4   0.000000D+00  0.000000D+00  0.000000D+00  0.000000D+00  0.000000D+00
      5   0.000000D+00  0.000000D+00  0.000000D+00  0.000000D+00  0.000000D+00
      6   0.000000D+00  0.000000D+00  0.000000D+00  0.000000D+00  0.000000D+00
      7   0.000000D+00  0.000000D+00  0.000000D+00  0.000000D+00  0.000000D+00
      8   0.000000D+00  0.000000D+00  0.000000D+00  0.000000D+00  0.000000D+00
      9   0.000000D+00  0.000000D+00  0.000000D+00  0.000000D+00  0.000000D+00
     10   0.000000D+00  0.000000D+00  0.000000D+00  0.000000D+00  0.000000D+00
                 6             7             8             9            10 
      1   0.000000D+00  0.000000D+00  0.000000D+00  0.000000D+00  0.000000D+00
      2   0.000000D+00  0.000000D+00  0.000000D+00  0.000000D+00  0.000000D+00
      3   0.000000D+00  0.000000D+00  0.000000D+00  0.000000D+00  0.000000D+00
      4   0.000000D+00  0.000000D+00  0.000000D+00  0.000000D+00  0.000000D+00
      5   0.000000D+00  0.000000D+00  0.000000D+00  0.000000D+00  0.000000D+00
      6   0.000000D+00  0.000000D+00  0.000000D+00  0.000000D+00  0.000000D+00
      7   0.000000D+00  0.000000D+00  0.000000D+00  0.000000D+00  0.000000D+00
      8   0.000000D+00  0.000000D+00  0.000000D+00  0.000000D+00  0.000000D+00
      9   0.000000D+00  0.000000D+00  0.000000D+00  0.000000D+00  0.000000D+00
     10   0.000000D+00  0.000000D+00  0.000000D+00  0.000000D+00  0.000000D+00
                11            12            13            14            15 
      1   0.000000D+00  0.000000D+00  0.000000D+00  0.000000D+00  0.000000D+00
      2   0.000000D+00  0.000000D+00  0.000000D+00  0.000000D+00  0.000000D+00
      3   0.000000D+00  0.000000D+00  0.000000D+00  0.000000D+00  0.000000D+00
      4   0.000000D+00  0.000000D+00  0.000000D+00  0.000000D+00  0.000000D+00
      5   0.000000D+00  0.000000D+00  0.000000D+00  0.000000D+00  0.000000D+00
      6   0.000000D+00  0.000000D+00  0.000000D+00  0.000000D+00  0.000000D+00
      7   0.000000D+00  0.000000D+00  0.000000D+00  0.000000D+00  0.000000D+00
      8   0.000000D+00  0.000000D+00  0.000000D+00  0.000000D+00  0.000000D+00
      9   0.000000D+00  0.000000D+00  0.000000D+00  0.000000D+00  0.000000D+00
     10   0.000000D+00  0.000000D+00  0.000000D+00  0.000000D+00  0.000000D+00
                16            17            18            19            20 
      1   0.000000D+00  0.000000D+00  0.000000D+00  0.000000D+00  0.000000D+00
      2   0.000000D+00  0.000000D+00  0.000000D+00  0.000000D+00  0.000000D+00
      3   0.000000D+00  0.000000D+00  0.000000D+00  0.000000D+00  0.000000D+00
      4   0.000000D+00  0.000000D+00  0.000000D+00  0.000000D+00  0.000000D+00
      5   0.000000D+00  0.000000D+00  0.000000D+00  0.000000D+00  0.000000D+00
      6   0.000000D+00  0.000000D+00  0.000000D+00  0.000000D+00  0.000000D+00
      7   0.000000D+00  0.000000D+00  0.000000D+00  0.000000D+00  0.000000D+00
      8   0.000000D+00  0.000000D+00  0.000000D+00  0.000000D+00  0.000000D+00
      9   0.000000D+00  0.000000D+00  0.000000D+00  0.000000D+00  0.000000D+00
     10   0.000000D+00  0.000000D+00  0.000000D+00  0.000000D+00  0.000000D+00
 afr conversion (beta, real):
                 1             2             3             4             5 
      1  -0.590937D-04 -0.163923D-03  0.833788D-03  0.191828D-04  0.735080D-02
      2   0.569386D-01  0.157945D+00  0.295661D+00  0.680220D-02  0.334002D+00
      3   0.568464D-01  0.157690D+00  0.296690D+00  0.682588D-02  0.336606D+00
      4   0.915417D-01  0.253933D+00  0.181739D+00  0.418123D-02 -0.211192D+00
      5   0.912758D-01  0.253195D+00  0.183740D+00  0.422727D-02 -0.209299D+00
      6   0.912758D-01  0.253195D+00 -0.183740D+00 -0.422727D-02 -0.209299D+00
      7   0.915417D-01  0.253933D+00 -0.181739D+00 -0.418123D-02 -0.211192D+00
      8   0.568464D-01  0.157690D+00 -0.296690D+00 -0.682588D-02  0.336606D+00
      9   0.569386D-01  0.157945D+00 -0.295661D+00 -0.680220D-02  0.334002D+00
     10  -0.590937D-04 -0.163923D-03 -0.833788D-03 -0.191828D-04  0.735080D-02
                 6             7             8             9            10 
      1   0.467935D-04 -0.684767D-02 -0.525057D-03  0.723076D+00 -0.181259D-01
      2   0.212618D-02 -0.231766D+00 -0.177710D-01 -0.843529D-01  0.211454D-02
      3   0.214276D-02 -0.233522D+00 -0.179057D-01 -0.832227D-01  0.208621D-02
      4  -0.134440D-02  0.381502D+00  0.292523D-01  0.159061D-01 -0.398729D-03
      5  -0.133235D-02  0.381547D+00  0.292558D-01  0.213902D-01 -0.536203D-03
      6  -0.133235D-02 -0.381547D+00 -0.292558D-01 -0.213902D-01  0.536203D-03
      7  -0.134440D-02 -0.381502D+00 -0.292523D-01 -0.159061D-01  0.398729D-03
      8   0.214276D-02  0.233522D+00  0.179057D-01  0.832227D-01 -0.208621D-02
      9   0.212618D-02  0.231766D+00  0.177710D-01  0.843529D-01 -0.211454D-02
     10   0.467935D-04  0.684767D-02  0.525057D-03 -0.723076D+00  0.181259D-01
                11            12            13            14            15 
      1   0.723025D+00 -0.162117D-01 -0.254887D-03 -0.466674D-02 -0.187837D-03
      2  -0.843793D-01  0.189195D-02 -0.339670D-01 -0.621904D+00 -0.505715D-01
      3  -0.835715D-01  0.187384D-02  0.349515D-01  0.639929D+00  0.513696D-01
      4   0.100506D-01 -0.225354D-03 -0.535142D-01 -0.979793D+00 -0.309343D-01
      5   0.165328D-01 -0.370698D-03  0.537413D-01  0.983951D+00  0.295788D-01
      6   0.165328D-01 -0.370698D-03 -0.537413D-01 -0.983951D+00  0.295788D-01
      7   0.100506D-01 -0.225354D-03  0.535142D-01  0.979793D+00 -0.309343D-01
      8  -0.835715D-01  0.187384D-02 -0.349515D-01 -0.639929D+00  0.513696D-01
      9  -0.843793D-01  0.189195D-02  0.339670D-01  0.621904D+00 -0.505715D-01
     10   0.723025D+00 -0.162117D-01  0.254887D-03  0.466674D-02 -0.187837D-03
                16            17            18            19            20 
      1  -0.388916D-02  0.100965D-03 -0.169943D-02 -0.208999D-03  0.496917D-02
      2  -0.104708D+01 -0.656590D-01  0.110516D+01  0.302498D-01 -0.719221D+00
      3   0.106361D+01  0.652648D-01 -0.109853D+01 -0.292925D-01  0.696463D+00
      4  -0.640495D+00  0.408321D-01 -0.687280D+00 -0.501947D-01  0.119344D+01
      5   0.612429D+00 -0.429916D-01  0.723628D+00  0.497666D-01 -0.118326D+01
      6   0.612429D+00  0.429916D-01 -0.723628D+00  0.497666D-01 -0.118326D+01
      7  -0.640495D+00 -0.408321D-01  0.687280D+00 -0.501947D-01  0.119344D+01
      8   0.106361D+01 -0.652648D-01  0.109853D+01 -0.292925D-01  0.696463D+00
      9  -0.104708D+01  0.656590D-01 -0.110516D+01  0.302498D-01 -0.719221D+00
     10  -0.388916D-02 -0.100965D-03  0.169943D-02 -0.208999D-03  0.496917D-02
 afr conversion (beta, imaginary):
                 1             2             3             4             5 
      1   0.000000D+00  0.000000D+00  0.000000D+00  0.000000D+00  0.000000D+00
      2   0.000000D+00  0.000000D+00  0.000000D+00  0.000000D+00  0.000000D+00
      3   0.000000D+00  0.000000D+00  0.000000D+00  0.000000D+00  0.000000D+00
      4   0.000000D+00  0.000000D+00  0.000000D+00  0.000000D+00  0.000000D+00
      5   0.000000D+00  0.000000D+00  0.000000D+00  0.000000D+00  0.000000D+00
      6   0.000000D+00  0.000000D+00  0.000000D+00  0.000000D+00  0.000000D+00
      7   0.000000D+00  0.000000D+00  0.000000D+00  0.000000D+00  0.000000D+00
      8   0.000000D+00  0.000000D+00  0.000000D+00  0.000000D+00  0.000000D+00
      9   0.000000D+00  0.000000D+00  0.000000D+00  0.000000D+00  0.000000D+00
     10   0.000000D+00  0.000000D+00  0.000000D+00  0.000000D+00  0.000000D+00
                 6             7             8             9            10 
      1   0.000000D+00  0.000000D+00  0.000000D+00  0.000000D+00  0.000000D+00
      2   0.000000D+00  0.000000D+00  0.000000D+00  0.000000D+00  0.000000D+00
      3   0.000000D+00  0.000000D+00  0.000000D+00  0.000000D+00  0.000000D+00
      4   0.000000D+00  0.000000D+00  0.000000D+00  0.000000D+00  0.000000D+00
      5   0.000000D+00  0.000000D+00  0.000000D+00  0.000000D+00  0.000000D+00
      6   0.000000D+00  0.000000D+00  0.000000D+00  0.000000D+00  0.000000D+00
      7   0.000000D+00  0.000000D+00  0.000000D+00  0.000000D+00  0.000000D+00
      8   0.000000D+00  0.000000D+00  0.000000D+00  0.000000D+00  0.000000D+00
      9   0.000000D+00  0.000000D+00  0.000000D+00  0.000000D+00  0.000000D+00
     10   0.000000D+00  0.000000D+00  0.000000D+00  0.000000D+00  0.000000D+00
                11            12            13            14            15 
      1   0.000000D+00  0.000000D+00  0.000000D+00  0.000000D+00  0.000000D+00
      2   0.000000D+00  0.000000D+00  0.000000D+00  0.000000D+00  0.000000D+00
      3   0.000000D+00  0.000000D+00  0.000000D+00  0.000000D+00  0.000000D+00
      4   0.000000D+00  0.000000D+00  0.000000D+00  0.000000D+00  0.000000D+00
      5   0.000000D+00  0.000000D+00  0.000000D+00  0.000000D+00  0.000000D+00
      6   0.000000D+00  0.000000D+00  0.000000D+00  0.000000D+00  0.000000D+00
      7   0.000000D+00  0.000000D+00  0.000000D+00  0.000000D+00  0.000000D+00
      8   0.000000D+00  0.000000D+00  0.000000D+00  0.000000D+00  0.000000D+00
      9   0.000000D+00  0.000000D+00  0.000000D+00  0.000000D+00  0.000000D+00
     10   0.000000D+00  0.000000D+00  0.000000D+00  0.000000D+00  0.000000D+00
                16            17            18            19            20 
      1   0.000000D+00  0.000000D+00  0.000000D+00  0.000000D+00  0.000000D+00
      2   0.000000D+00  0.000000D+00  0.000000D+00  0.000000D+00  0.000000D+00
      3   0.000000D+00  0.000000D+00  0.000000D+00  0.000000D+00  0.000000D+00
      4   0.000000D+00  0.000000D+00  0.000000D+00  0.000000D+00  0.000000D+00
      5   0.000000D+00  0.000000D+00  0.000000D+00  0.000000D+00  0.000000D+00
      6   0.000000D+00  0.000000D+00  0.000000D+00  0.000000D+00  0.000000D+00
      7   0.000000D+00  0.000000D+00  0.000000D+00  0.000000D+00  0.000000D+00
      8   0.000000D+00  0.000000D+00  0.000000D+00  0.000000D+00  0.000000D+00
      9   0.000000D+00  0.000000D+00  0.000000D+00  0.000000D+00  0.000000D+00
     10   0.000000D+00  0.000000D+00  0.000000D+00  0.000000D+00  0.000000D+00
 jaja in hckghf.F, ISPECT =                     548
Spin block MO for GHF transformation
NOA =   10   NOB =   10
NVA =   10   NVB =   10
 NOAvA in Hack                     100
 jaja in tranN3.F, ISPECT =                     548
 in l802/tranN3.F, LSPECT =                      800
 NMat, NBtSiz,MDV                    8372                   16000
                133954722
 TranN3:  NGot= 134217728 NBasic=    263006 NTTT=       550 NMat=      8372.
 Defined bucket =                      51                   10000
 Defined bucket =                      52                   10000
 Defined bucket =                      53                   10000
 Defined bucket =                      55                   10000
 Defined bucket =                      57                   10000
 Defined bucket =                      58                   10000
 Defined bucket =                      60                   10000
 Defined bucket =                      72                   10000
 Defined bucket =                      73                   10000
 Defined bucket =                      74                   10000
 Defined bucket =                      75                   10000
 Defined bucket =                      76                   10000
 (IK/LS) integrals will be saved in memory.
 TrCghf made   2 passes through the AO integrals.
 jaja DoHack is true or false? F
 jaja in hckghf.F, NBasis=                      10
 jaja in hckGHF/FixOG, LC =                      800
 jaja in hckGHF/FixOG, IRwC=                      548
 bfr conversion (alpha, real):
                 1             2             3             4             5 
      1  -0.163923D-03  0.590937D-04 -0.191828D-04  0.833788D-03 -0.467935D-04
      2   0.157945D+00 -0.569386D-01 -0.680220D-02  0.295661D+00 -0.212618D-02
      3   0.157690D+00 -0.568464D-01 -0.682588D-02  0.296690D+00 -0.214276D-02
      4   0.253933D+00 -0.915417D-01 -0.418123D-02  0.181739D+00  0.134440D-02
      5   0.253195D+00 -0.912758D-01 -0.422727D-02  0.183740D+00  0.133235D-02
      6   0.253195D+00 -0.912758D-01  0.422727D-02 -0.183740D+00  0.133235D-02
      7   0.253933D+00 -0.915417D-01  0.418123D-02 -0.181739D+00  0.134440D-02
      8   0.157690D+00 -0.568464D-01  0.682588D-02 -0.296690D+00 -0.214276D-02
      9   0.157945D+00 -0.569386D-01  0.680220D-02 -0.295661D+00 -0.212618D-02
     10  -0.163923D-03  0.590937D-04  0.191828D-04 -0.833788D-03 -0.467935D-04
                 6             7             8             9            10 
      1   0.735080D-02  0.525057D-03 -0.684767D-02  0.181259D-01  0.723076D+00
      2   0.334002D+00  0.177710D-01 -0.231766D+00 -0.211454D-02 -0.843529D-01
      3   0.336606D+00  0.179057D-01 -0.233522D+00 -0.208621D-02 -0.832227D-01
      4  -0.211192D+00 -0.292523D-01  0.381502D+00  0.398729D-03  0.159061D-01
      5  -0.209299D+00 -0.292558D-01  0.381547D+00  0.536203D-03  0.213902D-01
      6  -0.209299D+00  0.292558D-01 -0.381547D+00 -0.536203D-03 -0.213902D-01
      7  -0.211192D+00  0.292523D-01 -0.381502D+00 -0.398729D-03 -0.159061D-01
      8   0.336606D+00 -0.179057D-01  0.233522D+00  0.208621D-02  0.832227D-01
      9   0.334002D+00 -0.177710D-01  0.231766D+00  0.211454D-02  0.843529D-01
     10   0.735080D-02 -0.525057D-03  0.684767D-02 -0.181259D-01 -0.723076D+00
                11            12            13            14            15 
      1   0.162117D-01  0.723025D+00 -0.466674D-02  0.254887D-03 -0.388916D-02
      2  -0.189195D-02 -0.843793D-01 -0.621904D+00  0.339670D-01 -0.104708D+01
      3  -0.187384D-02 -0.835715D-01  0.639929D+00 -0.349515D-01  0.106361D+01
      4   0.225354D-03  0.100506D-01 -0.979793D+00  0.535142D-01 -0.640495D+00
      5   0.370698D-03  0.165328D-01  0.983951D+00 -0.537413D-01  0.612429D+00
      6   0.370698D-03  0.165328D-01 -0.983951D+00  0.537413D-01  0.612429D+00
      7   0.225354D-03  0.100506D-01  0.979793D+00 -0.535142D-01 -0.640495D+00
      8  -0.187384D-02 -0.835715D-01 -0.639929D+00  0.349515D-01  0.106361D+01
      9  -0.189195D-02 -0.843793D-01  0.621904D+00 -0.339670D-01 -0.104708D+01
     10   0.162117D-01  0.723025D+00  0.466674D-02 -0.254887D-03 -0.388916D-02
                16            17            18            19            20 
      1   0.187837D-03 -0.169943D-02 -0.100965D-03  0.496917D-02  0.208999D-03
      2   0.505715D-01  0.110516D+01  0.656590D-01 -0.719221D+00 -0.302498D-01
      3  -0.513696D-01 -0.109853D+01 -0.652648D-01  0.696463D+00  0.292925D-01
      4   0.309343D-01 -0.687280D+00 -0.408321D-01  0.119344D+01  0.501947D-01
      5  -0.295788D-01  0.723628D+00  0.429916D-01 -0.118326D+01 -0.497666D-01
      6  -0.295788D-01 -0.723628D+00 -0.429916D-01 -0.118326D+01 -0.497666D-01
      7   0.309343D-01  0.687280D+00  0.408321D-01  0.119344D+01  0.501947D-01
      8  -0.513696D-01  0.109853D+01  0.652648D-01  0.696463D+00  0.292925D-01
      9   0.505715D-01 -0.110516D+01 -0.656590D-01 -0.719221D+00 -0.302498D-01
     10   0.187837D-03  0.169943D-02  0.100965D-03  0.496917D-02  0.208999D-03
 bfr conversion (alpha, imaginary):
                 1             2             3             4             5 
      1   0.000000D+00  0.000000D+00  0.000000D+00  0.000000D+00  0.000000D+00
      2   0.000000D+00  0.000000D+00  0.000000D+00  0.000000D+00  0.000000D+00
      3   0.000000D+00  0.000000D+00  0.000000D+00  0.000000D+00  0.000000D+00
      4   0.000000D+00  0.000000D+00  0.000000D+00  0.000000D+00  0.000000D+00
      5   0.000000D+00  0.000000D+00  0.000000D+00  0.000000D+00  0.000000D+00
      6   0.000000D+00  0.000000D+00  0.000000D+00  0.000000D+00  0.000000D+00
      7   0.000000D+00  0.000000D+00  0.000000D+00  0.000000D+00  0.000000D+00
      8   0.000000D+00  0.000000D+00  0.000000D+00  0.000000D+00  0.000000D+00
      9   0.000000D+00  0.000000D+00  0.000000D+00  0.000000D+00  0.000000D+00
     10   0.000000D+00  0.000000D+00  0.000000D+00  0.000000D+00  0.000000D+00
                 6             7             8             9            10 
      1   0.000000D+00  0.000000D+00  0.000000D+00  0.000000D+00  0.000000D+00
      2   0.000000D+00  0.000000D+00  0.000000D+00  0.000000D+00  0.000000D+00
      3   0.000000D+00  0.000000D+00  0.000000D+00  0.000000D+00  0.000000D+00
      4   0.000000D+00  0.000000D+00  0.000000D+00  0.000000D+00  0.000000D+00
      5   0.000000D+00  0.000000D+00  0.000000D+00  0.000000D+00  0.000000D+00
      6   0.000000D+00  0.000000D+00  0.000000D+00  0.000000D+00  0.000000D+00
      7   0.000000D+00  0.000000D+00  0.000000D+00  0.000000D+00  0.000000D+00
      8   0.000000D+00  0.000000D+00  0.000000D+00  0.000000D+00  0.000000D+00
      9   0.000000D+00  0.000000D+00  0.000000D+00  0.000000D+00  0.000000D+00
     10   0.000000D+00  0.000000D+00  0.000000D+00  0.000000D+00  0.000000D+00
                11            12            13            14            15 
      1   0.000000D+00  0.000000D+00  0.000000D+00  0.000000D+00  0.000000D+00
      2   0.000000D+00  0.000000D+00  0.000000D+00  0.000000D+00  0.000000D+00
      3   0.000000D+00  0.000000D+00  0.000000D+00  0.000000D+00  0.000000D+00
      4   0.000000D+00  0.000000D+00  0.000000D+00  0.000000D+00  0.000000D+00
      5   0.000000D+00  0.000000D+00  0.000000D+00  0.000000D+00  0.000000D+00
      6   0.000000D+00  0.000000D+00  0.000000D+00  0.000000D+00  0.000000D+00
      7   0.000000D+00  0.000000D+00  0.000000D+00  0.000000D+00  0.000000D+00
      8   0.000000D+00  0.000000D+00  0.000000D+00  0.000000D+00  0.000000D+00
      9   0.000000D+00  0.000000D+00  0.000000D+00  0.000000D+00  0.000000D+00
     10   0.000000D+00  0.000000D+00  0.000000D+00  0.000000D+00  0.000000D+00
                16            17            18            19            20 
      1   0.000000D+00  0.000000D+00  0.000000D+00  0.000000D+00  0.000000D+00
      2   0.000000D+00  0.000000D+00  0.000000D+00  0.000000D+00  0.000000D+00
      3   0.000000D+00  0.000000D+00  0.000000D+00  0.000000D+00  0.000000D+00
      4   0.000000D+00  0.000000D+00  0.000000D+00  0.000000D+00  0.000000D+00
      5   0.000000D+00  0.000000D+00  0.000000D+00  0.000000D+00  0.000000D+00
      6   0.000000D+00  0.000000D+00  0.000000D+00  0.000000D+00  0.000000D+00
      7   0.000000D+00  0.000000D+00  0.000000D+00  0.000000D+00  0.000000D+00
      8   0.000000D+00  0.000000D+00  0.000000D+00  0.000000D+00  0.000000D+00
      9   0.000000D+00  0.000000D+00  0.000000D+00  0.000000D+00  0.000000D+00
     10   0.000000D+00  0.000000D+00  0.000000D+00  0.000000D+00  0.000000D+00
 bfr conversion (beta, real):
                 1             2             3             4             5 
      1  -0.590937D-04 -0.163923D-03  0.833788D-03  0.191828D-04  0.735080D-02
      2   0.569386D-01  0.157945D+00  0.295661D+00  0.680220D-02  0.334002D+00
      3   0.568464D-01  0.157690D+00  0.296690D+00  0.682588D-02  0.336606D+00
      4   0.915417D-01  0.253933D+00  0.181739D+00  0.418123D-02 -0.211192D+00
      5   0.912758D-01  0.253195D+00  0.183740D+00  0.422727D-02 -0.209299D+00
      6   0.912758D-01  0.253195D+00 -0.183740D+00 -0.422727D-02 -0.209299D+00
      7   0.915417D-01  0.253933D+00 -0.181739D+00 -0.418123D-02 -0.211192D+00
      8   0.568464D-01  0.157690D+00 -0.296690D+00 -0.682588D-02  0.336606D+00
      9   0.569386D-01  0.157945D+00 -0.295661D+00 -0.680220D-02  0.334002D+00
     10  -0.590937D-04 -0.163923D-03 -0.833788D-03 -0.191828D-04  0.735080D-02
                 6             7             8             9            10 
      1   0.467935D-04 -0.684767D-02 -0.525057D-03  0.723076D+00 -0.181259D-01
      2   0.212618D-02 -0.231766D+00 -0.177710D-01 -0.843529D-01  0.211454D-02
      3   0.214276D-02 -0.233522D+00 -0.179057D-01 -0.832227D-01  0.208621D-02
      4  -0.134440D-02  0.381502D+00  0.292523D-01  0.159061D-01 -0.398729D-03
      5  -0.133235D-02  0.381547D+00  0.292558D-01  0.213902D-01 -0.536203D-03
      6  -0.133235D-02 -0.381547D+00 -0.292558D-01 -0.213902D-01  0.536203D-03
      7  -0.134440D-02 -0.381502D+00 -0.292523D-01 -0.159061D-01  0.398729D-03
      8   0.214276D-02  0.233522D+00  0.179057D-01  0.832227D-01 -0.208621D-02
      9   0.212618D-02  0.231766D+00  0.177710D-01  0.843529D-01 -0.211454D-02
     10   0.467935D-04  0.684767D-02  0.525057D-03 -0.723076D+00  0.181259D-01
                11            12            13            14            15 
      1   0.723025D+00 -0.162117D-01 -0.254887D-03 -0.466674D-02 -0.187837D-03
      2  -0.843793D-01  0.189195D-02 -0.339670D-01 -0.621904D+00 -0.505715D-01
      3  -0.835715D-01  0.187384D-02  0.349515D-01  0.639929D+00  0.513696D-01
      4   0.100506D-01 -0.225354D-03 -0.535142D-01 -0.979793D+00 -0.309343D-01
      5   0.165328D-01 -0.370698D-03  0.537413D-01  0.983951D+00  0.295788D-01
      6   0.165328D-01 -0.370698D-03 -0.537413D-01 -0.983951D+00  0.295788D-01
      7   0.100506D-01 -0.225354D-03  0.535142D-01  0.979793D+00 -0.309343D-01
      8  -0.835715D-01  0.187384D-02 -0.349515D-01 -0.639929D+00  0.513696D-01
      9  -0.843793D-01  0.189195D-02  0.339670D-01  0.621904D+00 -0.505715D-01
     10   0.723025D+00 -0.162117D-01  0.254887D-03  0.466674D-02 -0.187837D-03
                16            17            18            19            20 
      1  -0.388916D-02  0.100965D-03 -0.169943D-02 -0.208999D-03  0.496917D-02
[...]
      6b 0.110990D-02  0.105508D-01 -0.468132D-01  0.255122D+00 -0.468323D-01
      7a-0.133277D-01  0.458739D-04  0.600531D-01 -0.468101D-01  0.603944D-01
      7b 0.119329D-02  0.148503D-01 -0.469411D-01  0.254243D+00 -0.469602D-01
      8a 0.573079D-01  0.120205D-03 -0.946764D-02 -0.174831D-01 -0.888776D-02
      8b-0.180675D-02  0.153118D-01 -0.172025D-01 -0.351310D-01 -0.171297D-01
      9a 0.576176D-01  0.151761D-03 -0.990108D-02 -0.175738D-01 -0.932632D-02
      9b-0.178125D-02  0.163304D-01 -0.172854D-01 -0.350301D-01 -0.172129D-01
     10a-0.376044D+00 -0.719933D-02  0.319789D-01  0.239373D-02  0.307411D-01
     10b 0.522803D-02 -0.291691D+00  0.460720D-03  0.493321D-01  0.503325D-03
                3b            4a            4b            5a            5b
      3b 0.855996D+00
      4a-0.283896D-01  0.761239D+00
      4b-0.385070D+00 -0.762416D-01  0.111629D+01
      5a-0.283201D-01  0.760525D+00 -0.760600D-01  0.759859D+00
      5b-0.383277D+00 -0.760491D-01  0.111558D+01 -0.758682D-01  0.111492D+01
      6a-0.466728D-01 -0.363842D+00 -0.449152D-01 -0.366061D+00 -0.447224D-01
      6b 0.256149D+00 -0.448761D-01 -0.421248D+00 -0.447026D-01 -0.423913D+00
      7a-0.468097D-01 -0.361771D+00 -0.451017D-01 -0.363965D+00 -0.449086D-01
      7b 0.255262D+00 -0.450433D-01 -0.418567D+00 -0.448695D-01 -0.421213D+00
      8a-0.174027D-01  0.586867D-01 -0.466414D-01  0.600379D-01 -0.465525D-01
      8b-0.353550D-01 -0.467920D-01  0.258023D+00 -0.467121D-01  0.258348D+00
      9a-0.174936D-01  0.583339D-01 -0.466431D-01  0.596798D-01 -0.465540D-01
      9b-0.352557D-01 -0.467741D-01  0.256950D+00 -0.466941D-01  0.257269D+00
     10a 0.243028D-02  0.455925D-02 -0.168042D-02 -0.971456D-03 -0.155826D-02
     10b 0.491199D-01 -0.533009D-03 -0.129988D-01 -0.360345D-03 -0.144562D-01
                6a            6b            7a            7b            8a
      6a 0.759982D+00
      6b-0.758627D-01  0.111524D+01
      7a 0.760272D+00 -0.760249D-01  0.760609D+00
      7b-0.760141D-01  0.111629D+01 -0.761769D-01  0.111739D+01
      8a-0.358479D+00 -0.283687D-01 -0.360265D+00 -0.285058D-01  0.703195D+00
      8b-0.282680D-01 -0.384946D+00 -0.284186D-01 -0.387582D+00 -0.298906D-01
      9a-0.355016D+00 -0.285013D-01 -0.356781D+00 -0.286385D-01  0.699105D+00
      9b-0.283873D-01 -0.380276D+00 -0.285381D-01 -0.382887D+00 -0.298923D-01
     10a 0.633068D-02  0.724991D-03  0.403271D-03  0.868611D-03 -0.104322D+00
     10b-0.241081D-03  0.181796D-02 -0.525173D-04  0.365905D-03  0.378735D-02
                8b            9a            9b           10a           10b
      8b 0.853647D+00
      9a-0.299032D-01  0.695046D+00
      9b 0.848578D+00 -0.299052D-01  0.843549D+00
     10a 0.330414D-02 -0.105670D+00  0.334138D-02  0.112735D+01
     10b-0.128553D-01  0.383038D-02 -0.131719D-01 -0.417603D-01  0.996541D-01
 jaja lower-tri density matrix (imaginary):
                1a            1b            2a            2b            3a
      1a 0.000000D+00
      1b 0.000000D+00  0.000000D+00
      2a 0.000000D+00  0.000000D+00  0.000000D+00
      2b 0.000000D+00  0.000000D+00  0.000000D+00  0.000000D+00
      3a 0.000000D+00  0.000000D+00  0.000000D+00  0.000000D+00  0.000000D+00
      3b 0.000000D+00  0.000000D+00  0.000000D+00  0.000000D+00  0.000000D+00
      4a 0.000000D+00  0.000000D+00  0.000000D+00  0.000000D+00  0.000000D+00
      4b 0.000000D+00  0.000000D+00  0.000000D+00  0.000000D+00  0.000000D+00
      5a 0.000000D+00  0.000000D+00  0.000000D+00  0.000000D+00  0.000000D+00
      5b 0.000000D+00  0.000000D+00  0.000000D+00  0.000000D+00  0.000000D+00
      6a 0.000000D+00  0.000000D+00  0.000000D+00  0.000000D+00  0.000000D+00
      6b 0.000000D+00  0.000000D+00  0.000000D+00  0.000000D+00  0.000000D+00
      7a 0.000000D+00  0.000000D+00  0.000000D+00  0.000000D+00  0.000000D+00
      7b 0.000000D+00  0.000000D+00  0.000000D+00  0.000000D+00  0.000000D+00
      8a 0.000000D+00  0.000000D+00  0.000000D+00  0.000000D+00  0.000000D+00
      8b 0.000000D+00  0.000000D+00  0.000000D+00  0.000000D+00  0.000000D+00
      9a 0.000000D+00  0.000000D+00  0.000000D+00  0.000000D+00  0.000000D+00
      9b 0.000000D+00  0.000000D+00  0.000000D+00  0.000000D+00  0.000000D+00
     10a 0.000000D+00  0.000000D+00  0.000000D+00  0.000000D+00  0.000000D+00
     10b 0.000000D+00  0.000000D+00  0.000000D+00  0.000000D+00  0.000000D+00
                3b            4a            4b            5a            5b
      3b 0.000000D+00
      4a 0.000000D+00  0.000000D+00
      4b 0.000000D+00  0.000000D+00  0.000000D+00
      5a 0.000000D+00  0.000000D+00  0.000000D+00  0.000000D+00
      5b 0.000000D+00  0.000000D+00  0.000000D+00  0.000000D+00  0.000000D+00
      6a 0.000000D+00  0.000000D+00  0.000000D+00  0.000000D+00  0.000000D+00
      6b 0.000000D+00  0.000000D+00  0.000000D+00  0.000000D+00  0.000000D+00
      7a 0.000000D+00  0.000000D+00  0.000000D+00  0.000000D+00  0.000000D+00
      7b 0.000000D+00  0.000000D+00  0.000000D+00  0.000000D+00  0.000000D+00
      8a 0.000000D+00  0.000000D+00  0.000000D+00  0.000000D+00  0.000000D+00
      8b 0.000000D+00  0.000000D+00  0.000000D+00  0.000000D+00  0.000000D+00
      9a 0.000000D+00  0.000000D+00  0.000000D+00  0.000000D+00  0.000000D+00
      9b 0.000000D+00  0.000000D+00  0.000000D+00  0.000000D+00  0.000000D+00
     10a 0.000000D+00  0.000000D+00  0.000000D+00  0.000000D+00  0.000000D+00
     10b 0.000000D+00  0.000000D+00  0.000000D+00  0.000000D+00  0.000000D+00
                6a            6b            7a            7b            8a
      6a 0.000000D+00
      6b 0.000000D+00  0.000000D+00
      7a 0.000000D+00  0.000000D+00  0.000000D+00
      7b 0.000000D+00  0.000000D+00  0.000000D+00  0.000000D+00
      8a 0.000000D+00  0.000000D+00  0.000000D+00  0.000000D+00  0.000000D+00
      8b 0.000000D+00  0.000000D+00  0.000000D+00  0.000000D+00  0.000000D+00
      9a 0.000000D+00  0.000000D+00  0.000000D+00  0.000000D+00  0.000000D+00
      9b 0.000000D+00  0.000000D+00  0.000000D+00  0.000000D+00  0.000000D+00
     10a 0.000000D+00  0.000000D+00  0.000000D+00  0.000000D+00  0.000000D+00
     10b 0.000000D+00  0.000000D+00  0.000000D+00  0.000000D+00  0.000000D+00
                8b            9a            9b           10a           10b
      8b 0.000000D+00
      9a 0.000000D+00  0.000000D+00
      9b 0.000000D+00  0.000000D+00  0.000000D+00
     10a 0.000000D+00  0.000000D+00  0.000000D+00  0.000000D+00
     10b 0.000000D+00  0.000000D+00  0.000000D+00  0.000000D+00  0.000000D+00
 jaja non-ortho density matrix               [Gau-style] (real):
                 1             2             3             4             5 
      1a  0.126999D+00  0.285678D-01 -0.150768D-01 -0.209909D-02 -0.146659D-01
      1b  0.285678D-01  0.877099D+00 -0.258810D-02 -0.705009D-01 -0.255664D-02
      2a -0.150768D-01 -0.258810D-02  0.687269D+00 -0.294573D-01  0.691669D+00
      2b -0.209909D-02 -0.705009D-01 -0.294573D-01  0.846654D+00 -0.294830D-01
      3a -0.146659D-01 -0.255664D-02  0.691669D+00 -0.294830D-01  0.696103D+00
      3b -0.207342D-02 -0.693726D-01 -0.294721D-01  0.851307D+00 -0.294983D-01
      4a  0.730839D-04  0.423090D-03 -0.357364D+00 -0.285329D-01 -0.360985D+00
      4b -0.498039D-03 -0.133238D-01 -0.284324D-01 -0.380511D+00 -0.283024D-01
      5a  0.193818D-02  0.565572D-03 -0.354715D+00 -0.284630D-01 -0.358311D+00
      5b -0.400500D-03 -0.869948D-02 -0.283490D-01 -0.378739D+00 -0.282193D-01
      6a -0.152250D-01 -0.880172D-04  0.607421D-01 -0.466731D-01  0.610870D-01
      6b  0.110990D-02  0.105508D-01 -0.468132D-01  0.255122D+00 -0.468323D-01
      7a -0.133277D-01  0.458739D-04  0.600531D-01 -0.468101D-01  0.603944D-01
      7b  0.119329D-02  0.148503D-01 -0.469411D-01  0.254243D+00 -0.469602D-01
      8a  0.573079D-01  0.120205D-03 -0.946764D-02 -0.174831D-01 -0.888776D-02
      8b -0.180675D-02  0.153118D-01 -0.172025D-01 -0.351310D-01 -0.171297D-01
      9a  0.576176D-01  0.151761D-03 -0.990108D-02 -0.175738D-01 -0.932632D-02
      9b -0.178125D-02  0.163304D-01 -0.172854D-01 -0.350301D-01 -0.172129D-01
     10a -0.376044D+00 -0.719933D-02  0.319789D-01  0.239373D-02  0.307411D-01
     10b  0.522803D-02 -0.291691D+00  0.460720D-03  0.493321D-01  0.503325D-03
                 6             7             8             9            10 
      1a -0.207342D-02  0.730839D-04 -0.498039D-03  0.193818D-02 -0.400500D-03
      1b -0.693726D-01  0.423090D-03 -0.133238D-01  0.565572D-03 -0.869948D-02
      2a -0.294721D-01 -0.357364D+00 -0.284324D-01 -0.354715D+00 -0.283490D-01
      2b  0.851307D+00 -0.285329D-01 -0.380511D+00 -0.284630D-01 -0.378739D+00
      3a -0.294983D-01 -0.360985D+00 -0.283024D-01 -0.358311D+00 -0.282193D-01
      3b  0.855996D+00 -0.283896D-01 -0.385070D+00 -0.283201D-01 -0.383277D+00
      4a -0.283896D-01  0.761239D+00 -0.762416D-01  0.760525D+00 -0.760491D-01
      4b -0.385070D+00 -0.762416D-01  0.111629D+01 -0.760600D-01  0.111558D+01
      5a -0.283201D-01  0.760525D+00 -0.760600D-01  0.759859D+00 -0.758682D-01
      5b -0.383277D+00 -0.760491D-01  0.111558D+01 -0.758682D-01  0.111492D+01
      6a -0.466728D-01 -0.363842D+00 -0.449152D-01 -0.366061D+00 -0.447224D-01
      6b  0.256149D+00 -0.448761D-01 -0.421248D+00 -0.447026D-01 -0.423913D+00
      7a -0.468097D-01 -0.361771D+00 -0.451017D-01 -0.363965D+00 -0.449086D-01
      7b  0.255262D+00 -0.450433D-01 -0.418567D+00 -0.448695D-01 -0.421213D+00
      8a -0.174027D-01  0.586867D-01 -0.466414D-01  0.600379D-01 -0.465525D-01
      8b -0.353550D-01 -0.467920D-01  0.258023D+00 -0.467121D-01  0.258348D+00
      9a -0.174936D-01  0.583339D-01 -0.466431D-01  0.596798D-01 -0.465540D-01
      9b -0.352557D-01 -0.467741D-01  0.256950D+00 -0.466941D-01  0.257269D+00
     10a  0.243028D-02  0.455925D-02 -0.168042D-02 -0.971456D-03 -0.155826D-02
     10b  0.491199D-01 -0.533009D-03 -0.129988D-01 -0.360345D-03 -0.144562D-01
                11            12            13            14            15 
      1a -0.152250D-01  0.110990D-02 -0.133277D-01  0.119329D-02  0.573079D-01
      1b -0.880172D-04  0.105508D-01  0.458739D-04  0.148503D-01  0.120205D-03
      2a  0.607421D-01 -0.468132D-01  0.600531D-01 -0.469411D-01 -0.946764D-02
      2b -0.466731D-01  0.255122D+00 -0.468101D-01  0.254243D+00 -0.174831D-01
      3a  0.610870D-01 -0.468323D-01  0.603944D-01 -0.469602D-01 -0.888776D-02
      3b -0.466728D-01  0.256149D+00 -0.468097D-01  0.255262D+00 -0.174027D-01
      4a -0.363842D+00 -0.448761D-01 -0.361771D+00 -0.450433D-01  0.586867D-01
      4b -0.449152D-01 -0.421248D+00 -0.451017D-01 -0.418567D+00 -0.466414D-01
      5a -0.366061D+00 -0.447026D-01 -0.363965D+00 -0.448695D-01  0.600379D-01
      5b -0.447224D-01 -0.423913D+00 -0.449086D-01 -0.421213D+00 -0.465525D-01
      6a  0.759982D+00 -0.758627D-01  0.760272D+00 -0.760141D-01 -0.358479D+00
      6b -0.758627D-01  0.111524D+01 -0.760249D-01  0.111629D+01 -0.283687D-01
      7a  0.760272D+00 -0.760249D-01  0.760609D+00 -0.761769D-01 -0.360265D+00
      7b -0.760141D-01  0.111629D+01 -0.761769D-01  0.111739D+01 -0.285058D-01
      8a -0.358479D+00 -0.283687D-01 -0.360265D+00 -0.285058D-01  0.703195D+00
      8b -0.282680D-01 -0.384946D+00 -0.284186D-01 -0.387582D+00 -0.298906D-01
      9a -0.355016D+00 -0.285013D-01 -0.356781D+00 -0.286385D-01  0.699105D+00
      9b -0.283873D-01 -0.380276D+00 -0.285381D-01 -0.382887D+00 -0.298923D-01
     10a  0.633068D-02  0.724991D-03  0.403271D-03  0.868611D-03 -0.104322D+00
     10b -0.241081D-03  0.181796D-02 -0.525173D-04  0.365905D-03  0.378735D-02
                16            17            18            19            20 
      1a -0.180675D-02  0.576176D-01 -0.178125D-02 -0.376044D+00  0.522803D-02
      1b  0.153118D-01  0.151761D-03  0.163304D-01 -0.719933D-02 -0.291691D+00
      2a -0.172025D-01 -0.990108D-02 -0.172854D-01  0.319789D-01  0.460720D-03
      2b -0.351310D-01 -0.175738D-01 -0.350301D-01  0.239373D-02  0.493321D-01
      3a -0.171297D-01 -0.932632D-02 -0.172129D-01  0.307411D-01  0.503325D-03
      3b -0.353550D-01 -0.174936D-01 -0.352557D-01  0.243028D-02  0.491199D-01
      4a -0.467920D-01  0.583339D-01 -0.467741D-01  0.455925D-02 -0.533009D-03
      4b  0.258023D+00 -0.466431D-01  0.256950D+00 -0.168042D-02 -0.129988D-01
      5a -0.467121D-01  0.596798D-01 -0.466941D-01 -0.971456D-03 -0.360345D-03
      5b  0.258348D+00 -0.465540D-01  0.257269D+00 -0.155826D-02 -0.144562D-01
      6a -0.282680D-01 -0.355016D+00 -0.283873D-01  0.633068D-02 -0.241081D-03
      6b -0.384946D+00 -0.285013D-01 -0.380276D+00  0.724991D-03  0.181796D-02
      7a -0.284186D-01 -0.356781D+00 -0.285381D-01  0.403271D-03 -0.525173D-04
      7b -0.387582D+00 -0.286385D-01 -0.382887D+00  0.868611D-03  0.365905D-03
      8a -0.298906D-01  0.699105D+00 -0.298923D-01 -0.104322D+00  0.378735D-02
      8b  0.853647D+00 -0.299032D-01  0.848578D+00  0.330414D-02 -0.128553D-01
      9a -0.299032D-01  0.695046D+00 -0.299052D-01 -0.105670D+00  0.383038D-02
      9b  0.848578D+00 -0.299052D-01  0.843549D+00  0.334138D-02 -0.131719D-01
     10a  0.330414D-02 -0.105670D+00  0.334138D-02  0.112735D+01 -0.417603D-01
     10b -0.128553D-01  0.383038D-02 -0.131719D-01 -0.417603D-01  0.996541D-01
 jaja non-ortho density matrix               [Gau-style] (imaginary):
                 1             2             3             4             5 
      1a  0.000000D+00  0.000000D+00  0.000000D+00  0.000000D+00  0.000000D+00
      1b  0.000000D+00  0.000000D+00  0.000000D+00  0.000000D+00  0.000000D+00
      2a  0.000000D+00  0.000000D+00  0.000000D+00  0.000000D+00  0.000000D+00
      2b  0.000000D+00  0.000000D+00  0.000000D+00  0.000000D+00  0.000000D+00
      3a  0.000000D+00  0.000000D+00  0.000000D+00  0.000000D+00  0.000000D+00
      3b  0.000000D+00  0.000000D+00  0.000000D+00  0.000000D+00  0.000000D+00
      4a  0.000000D+00  0.000000D+00  0.000000D+00  0.000000D+00  0.000000D+00
      4b  0.000000D+00  0.000000D+00  0.000000D+00  0.000000D+00  0.000000D+00
      5a  0.000000D+00  0.000000D+00  0.000000D+00  0.000000D+00  0.000000D+00
      5b  0.000000D+00  0.000000D+00  0.000000D+00  0.000000D+00  0.000000D+00
      6a  0.000000D+00  0.000000D+00  0.000000D+00  0.000000D+00  0.000000D+00
      6b  0.000000D+00  0.000000D+00  0.000000D+00  0.000000D+00  0.000000D+00
      7a  0.000000D+00  0.000000D+00  0.000000D+00  0.000000D+00  0.000000D+00
      7b  0.000000D+00  0.000000D+00  0.000000D+00  0.000000D+00  0.000000D+00
      8a  0.000000D+00  0.000000D+00  0.000000D+00  0.000000D+00  0.000000D+00
      8b  0.000000D+00  0.000000D+00  0.000000D+00  0.000000D+00  0.000000D+00
      9a  0.000000D+00  0.000000D+00  0.000000D+00  0.000000D+00  0.000000D+00
      9b  0.000000D+00  0.000000D+00  0.000000D+00  0.000000D+00  0.000000D+00
     10a  0.000000D+00  0.000000D+00  0.000000D+00  0.000000D+00  0.000000D+00
     10b  0.000000D+00  0.000000D+00  0.000000D+00  0.000000D+00  0.000000D+00
                 6             7             8             9            10 
      1a  0.000000D+00  0.000000D+00  0.000000D+00  0.000000D+00  0.000000D+00
      1b  0.000000D+00  0.000000D+00  0.000000D+00  0.000000D+00  0.000000D+00
      2a  0.000000D+00  0.000000D+00  0.000000D+00  0.000000D+00  0.000000D+00
      2b  0.000000D+00  0.000000D+00  0.000000D+00  0.000000D+00  0.000000D+00
      3a  0.000000D+00  0.000000D+00  0.000000D+00  0.000000D+00  0.000000D+00
      3b  0.000000D+00  0.000000D+00  0.000000D+00  0.000000D+00  0.000000D+00
      4a  0.000000D+00  0.000000D+00  0.000000D+00  0.000000D+00  0.000000D+00
      4b  0.000000D+00  0.000000D+00  0.000000D+00  0.000000D+00  0.000000D+00
      5a  0.000000D+00  0.000000D+00  0.000000D+00  0.000000D+00  0.000000D+00
      5b  0.000000D+00  0.000000D+00  0.000000D+00  0.000000D+00  0.000000D+00
      6a  0.000000D+00  0.000000D+00  0.000000D+00  0.000000D+00  0.000000D+00
      6b  0.000000D+00  0.000000D+00  0.000000D+00  0.000000D+00  0.000000D+00
      7a  0.000000D+00  0.000000D+00  0.000000D+00  0.000000D+00  0.000000D+00
      7b  0.000000D+00  0.000000D+00  0.000000D+00  0.000000D+00  0.000000D+00
      8a  0.000000D+00  0.000000D+00  0.000000D+00  0.000000D+00  0.000000D+00
      8b  0.000000D+00  0.000000D+00  0.000000D+00  0.000000D+00  0.000000D+00
      9a  0.000000D+00  0.000000D+00  0.000000D+00  0.000000D+00  0.000000D+00
      9b  0.000000D+00  0.000000D+00  0.000000D+00  0.000000D+00  0.000000D+00
     10a  0.000000D+00  0.000000D+00  0.000000D+00  0.000000D+00  0.000000D+00
     10b  0.000000D+00  0.000000D+00  0.000000D+00  0.000000D+00  0.000000D+00
                11            12            13            14            15 
      1a  0.000000D+00  0.000000D+00  0.000000D+00  0.000000D+00  0.000000D+00
      1b  0.000000D+00  0.000000D+00  0.000000D+00  0.000000D+00  0.000000D+00
      2a  0.000000D+00  0.000000D+00  0.000000D+00  0.000000D+00  0.000000D+00
      2b  0.000000D+00  0.000000D+00  0.000000D+00  0.000000D+00  0.000000D+00
      3a  0.000000D+00  0.000000D+00  0.000000D+00  0.000000D+00  0.000000D+00
      3b  0.000000D+00  0.000000D+00  0.000000D+00  0.000000D+00  0.000000D+00
      4a  0.000000D+00  0.000000D+00  0.000000D+00  0.000000D+00  0.000000D+00
      4b  0.000000D+00  0.000000D+00  0.000000D+00  0.000000D+00  0.000000D+00
      5a  0.000000D+00  0.000000D+00  0.000000D+00  0.000000D+00  0.000000D+00
      5b  0.000000D+00  0.000000D+00  0.000000D+00  0.000000D+00  0.000000D+00
      6a  0.000000D+00  0.000000D+00  0.000000D+00  0.000000D+00  0.000000D+00
      6b  0.000000D+00  0.000000D+00  0.000000D+00  0.000000D+00  0.000000D+00
      7a  0.000000D+00  0.000000D+00  0.000000D+00  0.000000D+00  0.000000D+00
      7b  0.000000D+00  0.000000D+00  0.000000D+00  0.000000D+00  0.000000D+00
      8a  0.000000D+00  0.000000D+00  0.000000D+00  0.000000D+00  0.000000D+00
      8b  0.000000D+00  0.000000D+00  0.000000D+00  0.000000D+00  0.000000D+00
      9a  0.000000D+00  0.000000D+00  0.000000D+00  0.000000D+00  0.000000D+00
      9b  0.000000D+00  0.000000D+00  0.000000D+00  0.000000D+00  0.000000D+00
     10a  0.000000D+00  0.000000D+00  0.000000D+00  0.000000D+00  0.000000D+00
     10b  0.000000D+00  0.000000D+00  0.000000D+00  0.000000D+00  0.000000D+00
                16            17            18            19            20 
      1a  0.000000D+00  0.000000D+00  0.000000D+00  0.000000D+00  0.000000D+00
      1b  0.000000D+00  0.000000D+00  0.000000D+00  0.000000D+00  0.000000D+00
      2a  0.000000D+00  0.000000D+00  0.000000D+00  0.000000D+00  0.000000D+00
      2b  0.000000D+00  0.000000D+00  0.000000D+00  0.000000D+00  0.000000D+00
      3a  0.000000D+00  0.000000D+00  0.000000D+00  0.000000D+00  0.000000D+00
      3b  0.000000D+00  0.000000D+00  0.000000D+00  0.000000D+00  0.000000D+00
      4a  0.000000D+00  0.000000D+00  0.000000D+00  0.000000D+00  0.000000D+00
      4b  0.000000D+00  0.000000D+00  0.000000D+00  0.000000D+00  0.000000D+00
      5a  0.000000D+00  0.000000D+00  0.000000D+00  0.000000D+00  0.000000D+00
      5b  0.000000D+00  0.000000D+00  0.000000D+00  0.000000D+00  0.000000D+00
      6a  0.000000D+00  0.000000D+00  0.000000D+00  0.000000D+00  0.000000D+00
      6b  0.000000D+00  0.000000D+00  0.000000D+00  0.000000D+00  0.000000D+00
      7a  0.000000D+00  0.000000D+00  0.000000D+00  0.000000D+00  0.000000D+00
      7b  0.000000D+00  0.000000D+00  0.000000D+00  0.000000D+00  0.000000D+00
      8a  0.000000D+00  0.000000D+00  0.000000D+00  0.000000D+00  0.000000D+00
      8b  0.000000D+00  0.000000D+00  0.000000D+00  0.000000D+00  0.000000D+00
      9a  0.000000D+00  0.000000D+00  0.000000D+00  0.000000D+00  0.000000D+00
      9b  0.000000D+00  0.000000D+00  0.000000D+00  0.000000D+00  0.000000D+00
     10a  0.000000D+00  0.000000D+00  0.000000D+00  0.000000D+00  0.000000D+00
     10b  0.000000D+00  0.000000D+00  0.000000D+00  0.000000D+00  0.000000D+00
FORTRAN STOP
