 Entering Gaussian System, Link 0=g09
 AtFile(1): H.gbs
            H     0
            S   10   1.00
               1000.000000000000            0.000068713567
                316.227766000000            0.000169141320
                100.000000000000            0.000823394812
                 31.622776600000            0.003425569236
                 10.000000000000            0.013951996000
                  3.162277660000            0.056909313560
                  1.000000000000            0.198286399900
                  0.316227766000            0.496922426700
                  0.100000000000            0.369846276400
                  0.031622776600            0.003752720039
            ****
 Initial command:
 /projects/guscus/apps/gau/g09-e1/g09/l1.exe "/users/lcj1/gaussian/h12/rhfstability/cross/guessfrommix/alpha75/Gau-18904.inp" -scrdir="/users/lcj1/gaussian/h12/rhfstability/cross/guessfrommix/alpha75/"
 Entering Link 1 = /projects/guscus/apps/gau/g09-e1/g09/l1.exe PID=     18905.
  
 Copyright (c) 1988,1990,1992,1993,1995,1998,2003,2009,2015,
            Gaussian, Inc.  All Rights Reserved.
  
 This is part of the Gaussian(R) 09 program.  It is based on
 the Gaussian(R) 03 system (copyright 2003, Gaussian, Inc.),
 the Gaussian(R) 98 system (copyright 1998, Gaussian, Inc.),
 the Gaussian(R) 94 system (copyright 1995, Gaussian, Inc.),
 the Gaussian 92(TM) system (copyright 1992, Gaussian, Inc.),
 the Gaussian 90(TM) system (copyright 1990, Gaussian, Inc.),
 the Gaussian 88(TM) system (copyright 1988, Gaussian, Inc.),
 the Gaussian 86(TM) system (copyright 1986, Carnegie Mellon
 University), and the Gaussian 82(TM) system (copyright 1983,
 Carnegie Mellon University). Gaussian is a federally registered
 trademark of Gaussian, Inc.
  
 This software contains proprietary and confidential information,
 including trade secrets, belonging to Gaussian, Inc.
  
 This software is provided under written license and may be
 used, copied, transmitted, or stored only in accord with that
 written license.
  
 The following legend is applicable only to US Government
 contracts under FAR:
  
                    RESTRICTED RIGHTS LEGEND
  
 Use, reproduction and disclosure by the US Government is
 subject to restrictions as set forth in subparagraphs (a)
 and (c) of the Commercial Computer Software - Restricted
 Rights clause in FAR 52.227-19.
  
 Gaussian, Inc.
 340 Quinnipiac St., Bldg. 40, Wallingford CT 06492
  
  
 ---------------------------------------------------------------
 Warning -- This program may not be used in any manner that
 competes with the business of Gaussian, Inc. or will provide
 assistance to any competitor of Gaussian, Inc.  The licensee
 of this program is prohibited from giving any competitor of
 Gaussian, Inc. access to this program.  By using this program,
 the user acknowledges that Gaussian, Inc. is engaged in the
 business of creating and licensing software in the field of
 computational chemistry and represents and warrants to the
 licensee that it is not a competitor of Gaussian, Inc. and that
 it will not use this program in any manner prohibited above.
 ---------------------------------------------------------------
  

 Cite this work as:
 Gaussian 09, Revision E.01,
 M. J. Frisch, G. W. Trucks, H. B. Schlegel, G. E. Scuseria, 
 M. A. Robb, J. R. Cheeseman, G. Scalmani, V. Barone, B. Mennucci, 
 G. A. Petersson, H. Nakatsuji, M. Caricato, X. Li, H. P. Hratchian, 
 A. F. Izmaylov, J. Bloino, G. Zheng, J. L. Sonnenberg, M. Hada, 
 M. Ehara, K. Toyota, R. Fukuda, J. Hasegawa, M. Ishida, T. Nakajima, 
 Y. Honda, O. Kitao, H. Nakai, T. Vreven, J. A. Montgomery, Jr., 
 J. E. Peralta, F. Ogliaro, M. Bearpark, J. J. Heyd, E. Brothers, 
 K. N. Kudin, V. N. Staroverov, T. Keith, R. Kobayashi, J. Normand, 
 K. Raghavachari, A. Rendell, J. C. Burant, S. S. Iyengar, J. Tomasi, 
 M. Cossi, N. Rega, J. M. Millam, M. Klene, J. E. Knox, J. B. Cross, 
 V. Bakken, C. Adamo, J. Jaramillo, R. Gomperts, R. E. Stratmann, 
 O. Yazyev, A. J. Austin, R. Cammi, C. Pomelli, J. W. Ochterski, 
 R. L. Martin, K. Morokuma, V. G. Zakrzewski, G. A. Voth, 
 P. Salvador, J. J. Dannenberg, S. Dapprich, A. D. Daniels, 
 O. Farkas, J. B. Foresman, J. V. Ortiz, J. Cioslowski, 
 and D. J. Fox, Gaussian, Inc., Wallingford CT, 2013.
 
 ******************************************
 Gaussian 09:  ES64L-G09RevE.01 30-Nov-2015
                17-Feb-2017 
 ******************************************
 %chk=h12.chk
 ----------------------------------------------------------------------
 #rhf/gen scf(symm,tight,novaracc,noincfock,fulldiag) stable(crhf) gues
 s=read geom=nocrowd test
 ----------------------------------------------------------------------
 1/38=1/1;
 2/12=1,17=6,18=5,40=1/2;
 3/5=7,16=1,25=1,30=1,116=1/1,2,3;
 4/5=1,9=4/1;
 5/5=100002,15=2,16=1,32=2,38=6/2;
 8/6=1,10=90,11=11/1,4;
 9/8=4,13=1/2;
 6/7=2,8=2,9=2,10=2,28=1/1;
 99/5=1,9=1/99;
 ----------------------------------------------------------------------
 hf stability analysis of h10 triangular lattice, y= 0.3933198989211816
 9
 ----------------------------------------------------------------------
 Symbolic Z-matrix:
 Charge =  0 Multiplicity = 1
 H
 H                    1     1.51967 
 H                    1     1.51967  2     150. 
 H                    2     1.51967  1     30.      3     0.       0
 H                    4     1.51967  2     180.     3     0.       0
 H                    5     1.51967  4     180.     3     0.       0
 H                    3     1.51967  1     180.     4     0.       0
 H                    7     1.51967  3     180.     4     0.       0
 H                    3     1.51967  4     180.     1     0.       0
 H                    7     1.51967  5     180.     3     0.       0
 H                    4     1.51967  3     180.     1     0.       0
 H                    5     1.51967  7     180.     3     0.       0
 
                          Input orientation:                          
 ---------------------------------------------------------------------
 Center     Atomic      Atomic             Coordinates (Angstroms)
 Number     Number       Type             X           Y           Z
 ---------------------------------------------------------------------
      1          1           0        0.000000    0.000000    0.000000
      2          1           0        0.000000    0.000000    1.519671
      3          1           0        0.759836    0.000000   -1.316074
      4          1           0        0.759836    0.000000    0.203597
      5          1           0        1.519671    0.000000   -1.112477
      6          1           0        2.279507    0.000000   -2.428551
      7          1           0        1.519671    0.000000   -2.632148
      8          1           0        2.279507    0.000000   -3.948222
      9          1           0        0.759836    0.000000   -2.835745
     10          1           0        1.519671    0.000000   -4.151819
     11          1           0        0.759836    0.000000    1.723269
     12          1           0        1.519671    0.000000    0.407195
 ---------------------------------------------------------------------
                    Distance matrix (angstroms):
                    1          2          3          4          5
     1  H    0.000000
     2  H    1.519671   0.000000
     3  H    1.519671   2.935780   0.000000
     4  H    0.786640   1.519671   1.519671   0.000000
     5  H    1.883349   3.039343   0.786640   1.519671   0.000000
     6  H    3.330767   4.559014   1.883349   3.039343   1.519671
     7  H    3.039343   4.421199   1.519671   2.935780   1.519671
     8  H    4.559014   5.924020   3.039343   4.421199   2.935780
     9  H    2.935780   4.421199   1.519671   3.039343   1.883349
    10  H    4.421199   5.871559   2.935780   4.421199   3.039343
    11  H    1.883349   0.786640   3.039343   1.519671   2.935780
    12  H    1.573280   1.883349   1.883349   0.786640   1.519671
                    6          7          8          9         10
     6  H    0.000000
     7  H    0.786640   0.000000
     8  H    1.519671   1.519671   0.000000
     9  H    1.573280   0.786640   1.883349   0.000000
    10  H    1.883349   1.519671   0.786640   1.519671   0.000000
    11  H    4.421199   4.421199   5.871559   4.559014   5.924020
    12  H    2.935780   3.039343   4.421199   3.330767   4.559014
                   11         12
    11  H    0.000000
    12  H    1.519671   0.000000
 Stoichiometry    H12
 Framework group  D2H[C2'(H.H),C2"(H.H),SG(H8)]
 Deg. of freedom     6
 Full point group                 D2H     NOp   8
 Largest Abelian subgroup         D2H     NOp   8
 Largest concise Abelian subgroup D2      NOp   4
                         Standard orientation:                         
 ---------------------------------------------------------------------
 Center     Atomic      Atomic             Coordinates (Angstroms)
 Number     Number       Type             X           Y           Z
 ---------------------------------------------------------------------
      1          1           0        0.000000    0.786640    1.467890
      2          1           0        0.000000    0.393320    2.935780
      3          1           0        0.000000    0.393320   -0.000000
      4          1           0        0.000000    0.000000    1.467890
      5          1           0       -0.000000   -0.393320    0.000000
      6          1           0       -0.000000   -0.786640   -1.467890
      7          1           0        0.000000   -0.000000   -1.467890
      8          1           0       -0.000000   -0.393320   -2.935780
      9          1           0        0.000000    0.786640   -1.467890
     10          1           0        0.000000    0.393320   -2.935780
     11          1           0       -0.000000   -0.393320    2.935780
     12          1           0       -0.000000   -0.786640    1.467890
 ---------------------------------------------------------------------
 Rotational constants (GHZ):    147.3389457     10.5784604      9.8698379
 General basis read from cards:  (5D, 7F)
 There are     4 symmetry adapted cartesian basis functions of AG  symmetry.
 There are     0 symmetry adapted cartesian basis functions of B1G symmetry.
 There are     0 symmetry adapted cartesian basis functions of B2G symmetry.
 There are     2 symmetry adapted cartesian basis functions of B3G symmetry.
 There are     0 symmetry adapted cartesian basis functions of AU  symmetry.
 There are     3 symmetry adapted cartesian basis functions of B1U symmetry.
 There are     3 symmetry adapted cartesian basis functions of B2U symmetry.
 There are     0 symmetry adapted cartesian basis functions of B3U symmetry.
 There are     4 symmetry adapted basis functions of AG  symmetry.
 There are     0 symmetry adapted basis functions of B1G symmetry.
 There are     0 symmetry adapted basis functions of B2G symmetry.
 There are     2 symmetry adapted basis functions of B3G symmetry.
 There are     0 symmetry adapted basis functions of AU  symmetry.
 There are     3 symmetry adapted basis functions of B1U symmetry.
 There are     3 symmetry adapted basis functions of B2U symmetry.
 There are     0 symmetry adapted basis functions of B3U symmetry.
    12 basis functions,   120 primitive gaussians,    12 cartesian basis functions
     6 alpha electrons        6 beta electrons
       nuclear repulsion energy        17.9540555977 Hartrees.
 NAtoms=   12 NActive=   12 NUniq=    4 SFac= 4.00D+00 NAtFMM=   60 NAOKFM=F Big=F
 Integral buffers will be    131072 words long.
 Regular integral format.
 Two-electron integral symmetry is turned on.
 One-electron integrals computed using PRISM.
 NBasis=    12 RedAO= T EigKep=  1.28D-01  NBF=     4     0     0     2     0     3     3     0
 NBsUse=    12 1.00D-06 EigRej= -1.00D+00 NBFU=     4     0     0     2     0     3     3     0
 Initial guess from the checkpoint file:  "h12.chk"
 B after Tr=     0.000000    0.000000   -0.000000
         Rot=   -0.000000    0.000000    0.707107    0.707107 Ang= 180.00 deg.
 Initial guess orbital symmetries:
       Occupied  (AG) (B2U) (AG) (B2U) (AG) (B1U)
       Virtual   (B3G) (B1U) (B3G) (B1U) (AG) (B2U)
 Keep R1 ints in memory in symmetry-blocked form, NReq=898694.
 Requested convergence on RMS density matrix=1.00D-08 within 128 cycles.
 Requested convergence on MAX density matrix=1.00D-06.
 Requested convergence on             energy=1.00D-06.
 No special actions if energy rises.
 SCF Done:  E(RHF) =  -4.56399257662     A.U. after   13 cycles
            NFock= 13  Conv=0.23D-09     -V/T= 1.6046
 Range of M.O.s used for correlation:     1    12
 NBasis=    12 NAE=     6 NBE=     6 NFC=     0 NFV=     0
 NROrb=     12 NOA=     6 NOB=     6 NVA=     6 NVB=     6

 **** Warning!!: The smallest alpha delta epsilon is -0.48256936D+00

 Semi-Direct transformation.
 ModeAB=           4 MOrb=             6 LenV=     134088317
 LASXX=         2181 LTotXX=        2181 LenRXX=        5115
 LTotAB=        2934 MaxLAS=        1800 LenRXY=           0
 NonZer=        7296 LenScr=      655360 LnRSAI=        1800
 LnScr1=      655360 LExtra=           0 Total=      1317635
 MaxDsk=          -1 SrtSym=           T ITran=            3
 JobTyp=0 Pass  1:  I=   1 to   6.
 (rs|ai) integrals will be sorted in core.
 Spin components of T(2) and E(2):
     alpha-alpha T2 =       0.6781191314D+00 E2=     -0.1020942625D+00
     alpha-beta  T2 =       0.3256256804D+02 E2=     -0.1064838443D+01
     beta-beta   T2 =       0.6781191314D+00 E2=     -0.1020942625D+00
 ANorm=    0.5909213679D+01
 E2 =    -0.1269026968D+01 EUMP2 =    -0.58330195450291D+01
 Second order stability test of a single determinant RHF wave function:
 Stabil:  MDV=134217728
 ***********************************************************************
 Matrix         Lowest Root    Major Pairs
 ***********************************************************************
 Internal RHF    -0.6245922    6A=7A
 RRHF --> CRHF   -0.7379552    6A=7A
 RRHF --> RUHF   -0.8830449    6A=7B
 Not stable.
 ***********************************************************************

 **********************************************************************

            Population analysis using the SCF density.

 **********************************************************************

 Orbital symmetries:
       Occupied  (AG) (B1U) (AG) (AG) (B2U) (B2U)
       Virtual   (B1U) (B3G) (B3G) (B2U) (AG) (B1U)
 The electronic state is 1-AG.
 Alpha  occ. eigenvalues --   -0.83594  -0.79394  -0.54182  -0.34768  -0.33068
 Alpha  occ. eigenvalues --    0.15337
 Alpha virt. eigenvalues --   -0.32920  -0.12551   0.32219   0.60538   0.67404
 Alpha virt. eigenvalues --    0.71347
          Condensed to atoms (all electrons):
               1          2          3          4          5          6
     1  H    0.744377  -0.037103   0.054463   0.281364  -0.142011  -0.018341
     2  H   -0.037103   2.012039  -0.056430  -0.034556   0.060288  -0.000579
     3  H    0.054463  -0.056430   1.657352  -0.147000   0.084704  -0.142011
     4  H    0.281364  -0.034556  -0.147000   0.910633  -0.147000   0.008260
     5  H   -0.142011   0.060288   0.084704  -0.147000   1.657352   0.054463
     6  H   -0.018341  -0.000579  -0.142011   0.008260   0.054463   0.744377
     7  H    0.008260  -0.001628  -0.147000   0.017220  -0.147000   0.281364
     8  H   -0.000579  -0.000573   0.060288  -0.001628  -0.056430  -0.037103
     9  H    0.042991  -0.001019   0.054463   0.008260  -0.142011  -0.143748
    10  H   -0.001019   0.000961  -0.056430  -0.001628   0.060288  -0.013695
    11  H   -0.013695  -0.913363   0.060288  -0.034556  -0.056430  -0.001019
    12  H   -0.143748  -0.013695  -0.142011   0.281364   0.054463   0.042991
               7          8          9         10         11         12
     1  H    0.008260  -0.000579   0.042991  -0.001019  -0.013695  -0.143748
     2  H   -0.001628  -0.000573  -0.001019   0.000961  -0.913363  -0.013695
     3  H   -0.147000   0.060288   0.054463  -0.056430   0.060288  -0.142011
     4  H    0.017220  -0.001628   0.008260  -0.001628  -0.034556   0.281364
     5  H   -0.147000  -0.056430  -0.142011   0.060288  -0.056430   0.054463
     6  H    0.281364  -0.037103  -0.143748  -0.013695  -0.001019   0.042991
     7  H    0.910633  -0.034556   0.281364  -0.034556  -0.001628   0.008260
     8  H   -0.034556   2.012039  -0.013695  -0.913363   0.000961  -0.001019
     9  H    0.281364  -0.013695   0.744377  -0.037103  -0.000579  -0.018341
    10  H   -0.034556  -0.913363  -0.037103   2.012039  -0.000573  -0.000579
    11  H   -0.001628   0.000961  -0.000579  -0.000573   2.012039  -0.037103
    12  H    0.008260  -0.001019  -0.018341  -0.000579  -0.037103   0.744377
 Mulliken charges:
               1
     1  H    0.225043
     2  H   -0.014340
     3  H   -0.280675
     4  H   -0.140730
     5  H   -0.280675
     6  H    0.225043
     7  H   -0.140730
     8  H   -0.014340
     9  H    0.225043
    10  H   -0.014340
    11  H   -0.014340
    12  H    0.225043
 Sum of Mulliken charges =  -0.00000
 Mulliken charges with hydrogens summed into heavy atoms:
               1
 Electronic spatial extent (au):  <R**2>=            215.0896
 Charge=             -0.0000 electrons
 Dipole moment (field-independent basis, Debye):
    X=             -0.0000    Y=             -0.0000    Z=             -0.0000  Tot=              0.0000
 Quadrupole moment (field-independent basis, Debye-Ang):
   XX=            -14.6291   YY=            -16.2353   ZZ=            -14.4030
   XY=             -0.0000   XZ=              0.0000   YZ=              0.0000
 Traceless Quadrupole moment (field-independent basis, Debye-Ang):
   XX=              0.4600   YY=             -1.1462   ZZ=              0.6862
   XY=             -0.0000   XZ=              0.0000   YZ=              0.0000
 Octapole moment (field-independent basis, Debye-Ang**2):
  XXX=             -0.0000  YYY=              0.0000  ZZZ=             -0.0000  XYY=             -0.0000
  XXY=              0.0000  XXZ=             -0.0000  XZZ=             -0.0000  YZZ=              0.0000
  YYZ=              0.0000  XYZ=              0.0000
 Hexadecapole moment (field-independent basis, Debye-Ang**3):
 XXXX=            -17.1205 YYYY=            -47.3369 ZZZZ=           -419.8025 XXXY=             -0.0000
 XXXZ=              0.0000 YYYX=             -0.0000 YYYZ=             -0.0000 ZZZX=              0.0000
 ZZZY=              0.0000 XXYY=            -10.8469 XXZZ=            -62.9621 YYZZ=            -82.8211
 XXYZ=             -0.0000 YYXZ=              0.0000 ZZXY=             -0.0000
 N-N= 1.795405559775D+01 E-N=-4.719127027755D+01  KE= 7.548542491978D+00
 Symmetry AG   KE= 3.241429486556D+00
 Symmetry B1G  KE= 0.000000000000D+00
 Symmetry B2G  KE= 0.000000000000D+00
 Symmetry B3G  KE=-2.756712676776D-16
 Symmetry AU   KE= 0.000000000000D+00
 Symmetry B1U  KE= 7.081174491283D-01
 Symmetry B2U  KE= 3.598995556294D+00
 Symmetry B3U  KE= 0.000000000000D+00

 Test job not archived.
 1\1\GINC-SULU\Stability\RHF\Gen\H12\LCJ1\17-Feb-2017\0\\#rhf/gen scf(s
 ymm,tight,novaracc,noincfock,fulldiag) stable(crhf) guess=read geom=no
 crowd test\\hf stability analysis of h10 triangular lattice, y= 0.3933
 1989892118169\\0,1\H\H,1,1.5196713521\H,1,1.5196713521,2,150.\H,2,1.51
 96713521,1,30.,3,0.,0\H,4,1.5196713521,2,180.,3,0.,0\H,5,1.5196713521,
 4,180.,3,0.,0\H,3,1.5196713521,1,180.,4,0.,0\H,7,1.5196713521,3,180.,4
 ,0.,0\H,3,1.5196713521,4,180.,1,0.,0\H,7,1.5196713521,5,180.,3,0.,0\H,
 4,1.5196713521,3,180.,1,0.,0\H,5,1.5196713521,7,180.,3,0.,0\\Version=E
 S64L-G09RevE.01\State=1-AG\HF=-4.5639926\MP2=-5.8330195\RMSD=2.286e-10
 \Dipole=0.,0.,0.\Quadrupole=-0.7608815,0.3420001,0.4188814,0.,-0.34056
 82,0.\PG=D02H [C2'(H1.H1),C2"(H1.H1),SG(H8)]\\@


 BUT 'GLORY' DOESN'T MEAN 'A NICE KNOCK DOWN ARGUMENT', ALICE OBJECTED.
 WHEN I USE A WORD, HUMPTY DUMPTY SAID, IN A RATHER SCORNFUL TONE,
 IT MEANS JUST WHAT I CHOOSE IT TO MEAN....
 NEITHER MORE NOR LESS....
 THE QUESTION IS, SAID ALICE,
 WHETHER YOU CAN MAKE WORDS MEAN SO MANY DIFFERENT THINGS...
 THE QUESTION IS, SAID HUMPTY DUMPTY,
 WHICH IS TO BE MASTER....
 THAT IS ALL.....

 ALICE THROUGH THE LOOKING GLASS
 Job cpu time:       0 days  0 hours  0 minutes  0.8 seconds.
 File lengths (MBytes):  RWF=     84 Int=      0 D2E=      0 Chk=      2 Scr=      2
 Normal termination of Gaussian 09 at Fri Feb 17 15:15:37 2017.
