 Entering Gaussian System, Link 0=g09
 AtFile(1): H.gbs
            H     0
            S   10   1.00
               1000.000000000000            0.000068713567
                316.227766000000            0.000169141320
                100.000000000000            0.000823394812
                 31.622776600000            0.003425569236
                 10.000000000000            0.013951996000
                  3.162277660000            0.056909313560
                  1.000000000000            0.198286399900
                  0.316227766000            0.496922426700
                  0.100000000000            0.369846276400
                  0.031622776600            0.003752720039
            ****
 Initial command:
 /projects/guscus/apps/gau/g09-e1/g09/l1.exe "/users/lcj1/gaussian/h12/rhfstability/cross/guessfrommix/alpha75/Gau-21560.inp" -scrdir="/users/lcj1/gaussian/h12/rhfstability/cross/guessfrommix/alpha75/"
 Entering Link 1 = /projects/guscus/apps/gau/g09-e1/g09/l1.exe PID=     21561.
  
 Copyright (c) 1988,1990,1992,1993,1995,1998,2003,2009,2015,
            Gaussian, Inc.  All Rights Reserved.
  
 This is part of the Gaussian(R) 09 program.  It is based on
 the Gaussian(R) 03 system (copyright 2003, Gaussian, Inc.),
 the Gaussian(R) 98 system (copyright 1998, Gaussian, Inc.),
 the Gaussian(R) 94 system (copyright 1995, Gaussian, Inc.),
 the Gaussian 92(TM) system (copyright 1992, Gaussian, Inc.),
 the Gaussian 90(TM) system (copyright 1990, Gaussian, Inc.),
 the Gaussian 88(TM) system (copyright 1988, Gaussian, Inc.),
 the Gaussian 86(TM) system (copyright 1986, Carnegie Mellon
 University), and the Gaussian 82(TM) system (copyright 1983,
 Carnegie Mellon University). Gaussian is a federally registered
 trademark of Gaussian, Inc.
  
 This software contains proprietary and confidential information,
 including trade secrets, belonging to Gaussian, Inc.
  
 This software is provided under written license and may be
 used, copied, transmitted, or stored only in accord with that
 written license.
  
 The following legend is applicable only to US Government
 contracts under FAR:
  
                    RESTRICTED RIGHTS LEGEND
  
 Use, reproduction and disclosure by the US Government is
 subject to restrictions as set forth in subparagraphs (a)
 and (c) of the Commercial Computer Software - Restricted
 Rights clause in FAR 52.227-19.
  
 Gaussian, Inc.
 340 Quinnipiac St., Bldg. 40, Wallingford CT 06492
  
  
 ---------------------------------------------------------------
 Warning -- This program may not be used in any manner that
 competes with the business of Gaussian, Inc. or will provide
 assistance to any competitor of Gaussian, Inc.  The licensee
 of this program is prohibited from giving any competitor of
 Gaussian, Inc. access to this program.  By using this program,
 the user acknowledges that Gaussian, Inc. is engaged in the
 business of creating and licensing software in the field of
 computational chemistry and represents and warrants to the
 licensee that it is not a competitor of Gaussian, Inc. and that
 it will not use this program in any manner prohibited above.
 ---------------------------------------------------------------
  

 Cite this work as:
 Gaussian 09, Revision E.01,
 M. J. Frisch, G. W. Trucks, H. B. Schlegel, G. E. Scuseria, 
 M. A. Robb, J. R. Cheeseman, G. Scalmani, V. Barone, B. Mennucci, 
 G. A. Petersson, H. Nakatsuji, M. Caricato, X. Li, H. P. Hratchian, 
 A. F. Izmaylov, J. Bloino, G. Zheng, J. L. Sonnenberg, M. Hada, 
 M. Ehara, K. Toyota, R. Fukuda, J. Hasegawa, M. Ishida, T. Nakajima, 
 Y. Honda, O. Kitao, H. Nakai, T. Vreven, J. A. Montgomery, Jr., 
 J. E. Peralta, F. Ogliaro, M. Bearpark, J. J. Heyd, E. Brothers, 
 K. N. Kudin, V. N. Staroverov, T. Keith, R. Kobayashi, J. Normand, 
 K. Raghavachari, A. Rendell, J. C. Burant, S. S. Iyengar, J. Tomasi, 
 M. Cossi, N. Rega, J. M. Millam, M. Klene, J. E. Knox, J. B. Cross, 
 V. Bakken, C. Adamo, J. Jaramillo, R. Gomperts, R. E. Stratmann, 
 O. Yazyev, A. J. Austin, R. Cammi, C. Pomelli, J. W. Ochterski, 
 R. L. Martin, K. Morokuma, V. G. Zakrzewski, G. A. Voth, 
 P. Salvador, J. J. Dannenberg, S. Dapprich, A. D. Daniels, 
 O. Farkas, J. B. Foresman, J. V. Ortiz, J. Cioslowski, 
 and D. J. Fox, Gaussian, Inc., Wallingford CT, 2013.
 
 ******************************************
 Gaussian 09:  ES64L-G09RevE.01 30-Nov-2015
                17-Feb-2017 
 ******************************************
 %chk=h12.chk
 ----------------------------------------------------------------------
 #rhf/gen scf(symm,tight,novaracc,noincfock,fulldiag) stable(crhf) gues
 s=read geom=nocrowd test
 ----------------------------------------------------------------------
 1/38=1/1;
 2/12=1,17=6,18=5,40=1/2;
 3/5=7,16=1,25=1,30=1,116=1/1,2,3;
 4/5=1,9=4/1;
 5/5=100002,15=2,16=1,32=2,38=6/2;
 8/6=1,10=90,11=11/1,4;
 9/8=4,13=1/2;
 6/7=2,8=2,9=2,10=2,28=1/1;
 99/5=1,9=1/99;
 ----------------------------------------------------------------------
 hf stability analysis of h10 triangular lattice, y= 1.5813852119866876
 ----------------------------------------------------------------------
 Symbolic Z-matrix:
 Charge =  0 Multiplicity = 1
 H
 H                    1     1.62298 
 H                    1     1.62298  2     26. 
 H                    2     1.62298  1     154.     3     0.       0
 H                    4     1.62298  2     180.     3     0.       0
 H                    5     1.62298  4     180.     3     0.       0
 H                    3     1.62298  1     180.     4     0.       0
 H                    7     1.62298  3     180.     4     0.       0
 H                    3     1.62298  4     180.     1     0.       0
 H                    7     1.62298  5     180.     3     0.       0
 H                    4     1.62298  3     180.     1     0.       0
 H                    5     1.62298  7     180.     3     0.       0
 
                          Input orientation:                          
 ---------------------------------------------------------------------
 Center     Atomic      Atomic             Coordinates (Angstroms)
 Number     Number       Type             X           Y           Z
 ---------------------------------------------------------------------
      1          1           0        0.000000    0.000000    0.000000
      2          1           0        0.000000    0.000000    1.622982
      3          1           0        0.711469    0.000000    1.458727
      4          1           0        0.711469    0.000000    3.081709
      5          1           0        1.422937    0.000000    4.540435
      6          1           0        2.134406    0.000000    5.999162
      7          1           0        1.422937    0.000000    2.917453
      8          1           0        2.134406    0.000000    4.376180
      9          1           0        0.711469    0.000000   -0.164255
     10          1           0        1.422937    0.000000    1.294471
     11          1           0        0.711469    0.000000    4.704691
     12          1           0        1.422937    0.000000    6.163418
 ---------------------------------------------------------------------
                    Distance matrix (angstroms):
                    1          2          3          4          5
     1  H    0.000000
     2  H    1.622982   0.000000
     3  H    1.622982   0.730183   0.000000
     4  H    3.162770   1.622982   1.622982   0.000000
     5  H    4.758183   3.245964   3.162770   1.622982   0.000000
     6  H    6.367545   4.868946   4.758183   3.245964   1.622982
     7  H    3.245964   1.923644   1.622982   0.730183   1.622982
     8  H    4.868946   3.483645   3.245964   1.923644   0.730183
     9  H    0.730183   1.923644   1.622982   3.245964   4.758183
    10  H    1.923644   1.460366   0.730183   1.923644   3.245964
    11  H    4.758183   3.162770   3.245964   1.622982   0.730183
    12  H    6.325541   4.758183   4.758183   3.162770   1.622982
                    6          7          8          9         10
     6  H    0.000000
     7  H    3.162770   0.000000
     8  H    1.622982   1.622982   0.000000
     9  H    6.325541   3.162770   4.758183   0.000000
    10  H    4.758183   1.622982   3.162770   1.622982   0.000000
    11  H    1.923644   1.923644   1.460366   4.868946   3.483645
    12  H    0.730183   3.245964   1.923644   6.367545   4.868946
                   11         12
    11  H    0.000000
    12  H    1.622982   0.000000
 Stoichiometry    H12
 Framework group  D2H[C2'(H.H),C2"(H.H),SG(H8)]
 Deg. of freedom     6
 Full point group                 D2H     NOp   8
 Largest Abelian subgroup         D2H     NOp   8
 Largest concise Abelian subgroup D2      NOp   4
                         Standard orientation:                         
 ---------------------------------------------------------------------
 Center     Atomic      Atomic             Coordinates (Angstroms)
 Number     Number       Type             X           Y           Z
 ---------------------------------------------------------------------
      1          1           0       -0.000000    0.365092    3.162770
      2          1           0       -0.000000    0.730183    1.581385
      3          1           0       -0.000000    0.000000    1.581385
      4          1           0        0.000000    0.365092   -0.000000
      5          1           0        0.000000   -0.000000   -1.581385
      6          1           0       -0.000000   -0.365092   -3.162770
      7          1           0       -0.000000   -0.365092    0.000000
      8          1           0       -0.000000   -0.730183   -1.581385
      9          1           0       -0.000000   -0.365092    3.162770
     10          1           0       -0.000000   -0.730183    1.581385
     11          1           0        0.000000    0.730183   -1.581385
     12          1           0        0.000000    0.365092   -3.162770
 ---------------------------------------------------------------------
 Rotational constants (GHZ):    171.0038281      9.1145248      8.6533028
 General basis read from cards:  (5D, 7F)
 There are     4 symmetry adapted cartesian basis functions of AG  symmetry.
 There are     0 symmetry adapted cartesian basis functions of B1G symmetry.
 There are     0 symmetry adapted cartesian basis functions of B2G symmetry.
 There are     2 symmetry adapted cartesian basis functions of B3G symmetry.
 There are     0 symmetry adapted cartesian basis functions of AU  symmetry.
 There are     3 symmetry adapted cartesian basis functions of B1U symmetry.
 There are     3 symmetry adapted cartesian basis functions of B2U symmetry.
 There are     0 symmetry adapted cartesian basis functions of B3U symmetry.
 There are     4 symmetry adapted basis functions of AG  symmetry.
 There are     0 symmetry adapted basis functions of B1G symmetry.
 There are     0 symmetry adapted basis functions of B2G symmetry.
 There are     2 symmetry adapted basis functions of B3G symmetry.
 There are     0 symmetry adapted basis functions of AU  symmetry.
 There are     3 symmetry adapted basis functions of B1U symmetry.
 There are     3 symmetry adapted basis functions of B2U symmetry.
 There are     0 symmetry adapted basis functions of B3U symmetry.
    12 basis functions,   120 primitive gaussians,    12 cartesian basis functions
     6 alpha electrons        6 beta electrons
       nuclear repulsion energy        17.6525071520 Hartrees.
 NAtoms=   12 NActive=   12 NUniq=    4 SFac= 4.00D+00 NAtFMM=   60 NAOKFM=F Big=F
 Integral buffers will be    131072 words long.
 Regular integral format.
 Two-electron integral symmetry is turned on.
 One-electron integrals computed using PRISM.
 NBasis=    12 RedAO= T EigKep=  1.07D-01  NBF=     4     0     0     2     0     3     3     0
 NBsUse=    12 1.00D-06 EigRej= -1.00D+00 NBFU=     4     0     0     2     0     3     3     0
 Initial guess from the checkpoint file:  "h12.chk"
 B after Tr=     0.000000    0.000000    0.000000
         Rot=    1.000000    0.000000    0.000000    0.000000 Ang=   0.00 deg.
 Initial guess orbital symmetries:
       Occupied  (AG) (B1U) (AG) (B1U) (AG) (B2U)
       Virtual   (B3G) (B2U) (B3G) (B2U) (AG) (B1U)
 Keep R1 ints in memory in symmetry-blocked form, NReq=898078.
 Requested convergence on RMS density matrix=1.00D-08 within 128 cycles.
 Requested convergence on MAX density matrix=1.00D-06.
 Requested convergence on             energy=1.00D-06.
 No special actions if energy rises.
 SCF Done:  E(RHF) =  -5.96582524226     A.U. after    7 cycles
            NFock=  7  Conv=0.58D-09     -V/T= 1.9436
 Range of M.O.s used for correlation:     1    12
 NBasis=    12 NAE=     6 NBE=     6 NFC=     0 NFV=     0
 NROrb=     12 NOA=     6 NOB=     6 NVA=     6 NVB=     6
 Semi-Direct transformation.
 ModeAB=           4 MOrb=             6 LenV=     134089101
 LASXX=         2181 LTotXX=        2181 LenRXX=        5115
 LTotAB=        2934 MaxLAS=        1800 LenRXY=           0
 NonZer=        7296 LenScr=      655360 LnRSAI=        1800
 LnScr1=      655360 LExtra=           0 Total=      1317635
 MaxDsk=          -1 SrtSym=           T ITran=            3
 JobTyp=0 Pass  1:  I=   1 to   6.
 (rs|ai) integrals will be sorted in core.
 Spin components of T(2) and E(2):
     alpha-alpha T2 =       0.2344234750D-02 E2=     -0.4339544273D-02
     alpha-beta  T2 =       0.1889499980D+00 E2=     -0.1205072248D+00
     beta-beta   T2 =       0.2344234750D-02 E2=     -0.4339544273D-02
 ANorm=    0.1092537628D+01
 E2 =    -0.1291863133D+00 EUMP2 =    -0.60950115555986D+01
 Second order stability test of a single determinant RHF wave function:
 Stabil:  MDV=134217728
 ***********************************************************************
 Matrix         Lowest Root    Major Pairs
 ***********************************************************************
 Internal RHF     0.1722508    Stable
 RRHF --> CRHF    0.033344     Stable
 RRHF --> RUHF   -0.296252     6A=7B
 Not stable.
 ***********************************************************************

 **********************************************************************

            Population analysis using the SCF density.

 **********************************************************************

 Orbital symmetries:
       Occupied  (AG) (B1U) (AG) (B1U) (AG) (B2U)
       Virtual   (B3G) (B2U) (B3G) (B2U) (AG) (B1U)
 The electronic state is 1-AG.
 Alpha  occ. eigenvalues --   -0.84605  -0.81330  -0.64128  -0.59300  -0.50640
 Alpha  occ. eigenvalues --   -0.28821
 Alpha virt. eigenvalues --   -0.09512   0.41227   0.46443   0.58885   0.80313
 Alpha virt. eigenvalues --    0.83193
          Condensed to atoms (all electrons):
               1          2          3          4          5          6
     1  H    0.684363  -0.016359  -0.088750   0.005652  -0.000057  -0.000003
     2  H   -0.016359   0.838986   0.313558   0.036019   0.001847  -0.000345
     3  H   -0.088750   0.313558   0.976235  -0.100788   0.003226  -0.000057
     4  H    0.005652   0.036019  -0.100788   0.902201  -0.100788   0.001216
     5  H   -0.000057   0.001847   0.003226  -0.100788   0.976235  -0.088750
     6  H   -0.000003  -0.000345  -0.000057   0.001216  -0.088750   0.684363
     7  H    0.001216  -0.106478  -0.100788   0.509010  -0.100788   0.005652
     8  H   -0.000345  -0.018578   0.001847  -0.106478   0.313558  -0.016359
     9  H    0.492489  -0.063173  -0.088750   0.001216  -0.000057   0.000005
    10  H   -0.063173  -0.190518   0.313558  -0.106478   0.001847   0.000349
    11  H    0.000349   0.032540   0.001847   0.036019   0.313558  -0.063173
    12  H    0.000005   0.000349  -0.000057   0.005652  -0.088750   0.492489
               7          8          9         10         11         12
     1  H    0.001216  -0.000345   0.492489  -0.063173   0.000349   0.000005
     2  H   -0.106478  -0.018578  -0.063173  -0.190518   0.032540   0.000349
     3  H   -0.100788   0.001847  -0.088750   0.313558   0.001847  -0.000057
     4  H    0.509010  -0.106478   0.001216  -0.106478   0.036019   0.005652
     5  H   -0.100788   0.313558  -0.000057   0.001847   0.313558  -0.088750
     6  H    0.005652  -0.016359   0.000005   0.000349  -0.063173   0.492489
     7  H    0.902201   0.036019   0.005652   0.036019  -0.106478   0.001216
     8  H    0.036019   0.838986   0.000349   0.032540  -0.190518  -0.063173
     9  H    0.005652   0.000349   0.684363  -0.016359  -0.000345  -0.000003
    10  H    0.036019   0.032540  -0.016359   0.838986  -0.018578  -0.000345
    11  H   -0.106478  -0.190518  -0.000345  -0.018578   0.838986  -0.016359
    12  H    0.001216  -0.063173  -0.000003  -0.000345  -0.016359   0.684363
 Mulliken charges:
               1
     1  H   -0.015386
     2  H    0.172152
     3  H   -0.231080
     4  H   -0.082452
     5  H   -0.231080
     6  H   -0.015386
     7  H   -0.082452
     8  H    0.172152
     9  H   -0.015386
    10  H    0.172152
    11  H    0.172152
    12  H   -0.015386
 Sum of Mulliken charges =   0.00000
 Mulliken charges with hydrogens summed into heavy atoms:
               1
 Electronic spatial extent (au):  <R**2>=            244.3573
 Charge=              0.0000 electrons
 Dipole moment (field-independent basis, Debye):
    X=             -0.0000    Y=              0.0000    Z=              0.0000  Tot=              0.0000
 Quadrupole moment (field-independent basis, Debye-Ang):
   XX=            -15.2784   YY=            -14.2997   ZZ=            -20.7473
   XY=              0.0000   XZ=              0.0000   YZ=              0.0000
 Traceless Quadrupole moment (field-independent basis, Debye-Ang):
   XX=              1.4968   YY=              2.4754   ZZ=             -3.9722
   XY=              0.0000   XZ=              0.0000   YZ=              0.0000
 Octapole moment (field-independent basis, Debye-Ang**2):
  XXX=             -0.0000  YYY=             -0.0000  ZZZ=              0.0000  XYY=             -0.0000
  XXY=             -0.0000  XXZ=              0.0000  XZZ=             -0.0000  YZZ=             -0.0000
  YYZ=              0.0000  XYZ=             -0.0000
 Hexadecapole moment (field-independent basis, Debye-Ang**3):
 XXXX=            -18.2693 YYYY=            -40.3311 ZZZZ=           -600.7175 XXXY=             -0.0000
 XXXZ=              0.0000 YYYX=             -0.0000 YYYZ=              0.0000 ZZZX=              0.0000
 ZZZY=              0.0000 XXYY=             -9.8462 XXZZ=            -80.2890 YYZZ=            -75.2964
 XXYZ=              0.0000 YYXZ=              0.0000 ZZXY=              0.0000
 N-N= 1.765250715197D+01 E-N=-4.618230648485D+01  KE= 6.322113290870D+00
 Symmetry AG   KE= 3.091649542404D+00
 Symmetry B1G  KE= 0.000000000000D+00
 Symmetry B2G  KE= 0.000000000000D+00
 Symmetry B3G  KE=-4.285329353147D-17
 Symmetry AU   KE= 0.000000000000D+00
 Symmetry B1U  KE= 1.878550020877D+00
 Symmetry B2U  KE= 1.351913727589D+00
 Symmetry B3U  KE= 0.000000000000D+00

 Test job not archived.
 1\1\GINC-SULU\Stability\RHF\Gen\H12\LCJ1\17-Feb-2017\0\\#rhf/gen scf(s
 ymm,tight,novaracc,noincfock,fulldiag) stable(crhf) guess=read geom=no
 crowd test\\hf stability analysis of h10 triangular lattice, y= 1.5813
 852119866876\\0,1\H\H,1,1.6229821251\H,1,1.6229821251,2,26.\H,2,1.6229
 821251,1,154.,3,0.,0\H,4,1.6229821251,2,180.,3,0.,0\H,5,1.6229821251,4
 ,180.,3,0.,0\H,3,1.6229821251,1,180.,4,0.,0\H,7,1.6229821251,3,180.,4,
 0.,0\H,3,1.6229821251,4,180.,1,0.,0\H,7,1.6229821251,5,180.,3,0.,0\H,4
 ,1.6229821251,3,180.,1,0.,0\H,5,1.6229821251,7,180.,3,0.,0\\Version=ES
 64L-G09RevE.01\State=1-AG\HF=-5.9658252\MP2=-6.0950116\RMSD=5.818e-10\
 Dipole=0.,0.,0.\Quadrupole=1.5978309,1.1128109,-2.7106419,0.,-1.050691
 3,0.\PG=D02H [C2'(H1.H1),C2"(H1.H1),SG(H8)]\\@


      LET US REMEMBER, PLEASE, THAT THE SEARCH FOR THE CONSTITUTION
      OF THE WORLD IS ONE OF THE GREATEST AND NOBLEST PROBLEMS PRESENTED 
      BY NATURE.

                                                  -- GALILEO
 Job cpu time:       0 days  0 hours  0 minutes  0.8 seconds.
 File lengths (MBytes):  RWF=     84 Int=      0 D2E=      0 Chk=      2 Scr=      2
 Normal termination of Gaussian 09 at Fri Feb 17 15:17:56 2017.
