 Entering Gaussian System, Link 0=g09
 AtFile(1): H.gbs
            H     0
            S   10   1.00
               1000.000000000000            0.000068713567
                316.227766000000            0.000169141320
                100.000000000000            0.000823394812
                 31.622776600000            0.003425569236
                 10.000000000000            0.013951996000
                  3.162277660000            0.056909313560
                  1.000000000000            0.198286399900
                  0.316227766000            0.496922426700
                  0.100000000000            0.369846276400
                  0.031622776600            0.003752720039
            ****
 Initial command:
 /projects/guscus/apps/gau/g09-e1/g09/l1.exe "/users/lcj1/gaussian/h12/rhfstability/cross/guessfrommix/alpha75/Gau-18821.inp" -scrdir="/users/lcj1/gaussian/h12/rhfstability/cross/guessfrommix/alpha75/"
 Entering Link 1 = /projects/guscus/apps/gau/g09-e1/g09/l1.exe PID=     18822.
  
 Copyright (c) 1988,1990,1992,1993,1995,1998,2003,2009,2015,
            Gaussian, Inc.  All Rights Reserved.
  
 This is part of the Gaussian(R) 09 program.  It is based on
 the Gaussian(R) 03 system (copyright 2003, Gaussian, Inc.),
 the Gaussian(R) 98 system (copyright 1998, Gaussian, Inc.),
 the Gaussian(R) 94 system (copyright 1995, Gaussian, Inc.),
 the Gaussian 92(TM) system (copyright 1992, Gaussian, Inc.),
 the Gaussian 90(TM) system (copyright 1990, Gaussian, Inc.),
 the Gaussian 88(TM) system (copyright 1988, Gaussian, Inc.),
 the Gaussian 86(TM) system (copyright 1986, Carnegie Mellon
 University), and the Gaussian 82(TM) system (copyright 1983,
 Carnegie Mellon University). Gaussian is a federally registered
 trademark of Gaussian, Inc.
  
 This software contains proprietary and confidential information,
 including trade secrets, belonging to Gaussian, Inc.
  
 This software is provided under written license and may be
 used, copied, transmitted, or stored only in accord with that
 written license.
  
 The following legend is applicable only to US Government
 contracts under FAR:
  
                    RESTRICTED RIGHTS LEGEND
  
 Use, reproduction and disclosure by the US Government is
 subject to restrictions as set forth in subparagraphs (a)
 and (c) of the Commercial Computer Software - Restricted
 Rights clause in FAR 52.227-19.
  
 Gaussian, Inc.
 340 Quinnipiac St., Bldg. 40, Wallingford CT 06492
  
  
 ---------------------------------------------------------------
 Warning -- This program may not be used in any manner that
 competes with the business of Gaussian, Inc. or will provide
 assistance to any competitor of Gaussian, Inc.  The licensee
 of this program is prohibited from giving any competitor of
 Gaussian, Inc. access to this program.  By using this program,
 the user acknowledges that Gaussian, Inc. is engaged in the
 business of creating and licensing software in the field of
 computational chemistry and represents and warrants to the
 licensee that it is not a competitor of Gaussian, Inc. and that
 it will not use this program in any manner prohibited above.
 ---------------------------------------------------------------
  

 Cite this work as:
 Gaussian 09, Revision E.01,
 M. J. Frisch, G. W. Trucks, H. B. Schlegel, G. E. Scuseria, 
 M. A. Robb, J. R. Cheeseman, G. Scalmani, V. Barone, B. Mennucci, 
 G. A. Petersson, H. Nakatsuji, M. Caricato, X. Li, H. P. Hratchian, 
 A. F. Izmaylov, J. Bloino, G. Zheng, J. L. Sonnenberg, M. Hada, 
 M. Ehara, K. Toyota, R. Fukuda, J. Hasegawa, M. Ishida, T. Nakajima, 
 Y. Honda, O. Kitao, H. Nakai, T. Vreven, J. A. Montgomery, Jr., 
 J. E. Peralta, F. Ogliaro, M. Bearpark, J. J. Heyd, E. Brothers, 
 K. N. Kudin, V. N. Staroverov, T. Keith, R. Kobayashi, J. Normand, 
 K. Raghavachari, A. Rendell, J. C. Burant, S. S. Iyengar, J. Tomasi, 
 M. Cossi, N. Rega, J. M. Millam, M. Klene, J. E. Knox, J. B. Cross, 
 V. Bakken, C. Adamo, J. Jaramillo, R. Gomperts, R. E. Stratmann, 
 O. Yazyev, A. J. Austin, R. Cammi, C. Pomelli, J. W. Ochterski, 
 R. L. Martin, K. Morokuma, V. G. Zakrzewski, G. A. Voth, 
 P. Salvador, J. J. Dannenberg, S. Dapprich, A. D. Daniels, 
 O. Farkas, J. B. Foresman, J. V. Ortiz, J. Cioslowski, 
 and D. J. Fox, Gaussian, Inc., Wallingford CT, 2013.
 
 ******************************************
 Gaussian 09:  ES64L-G09RevE.01 30-Nov-2015
                17-Feb-2017 
 ******************************************
 %chk=h12.chk
 ----------------------------------------------------------------------
 #rhf/gen scf(symm,tight,novaracc,noincfock,fulldiag) stable(crhf) gues
 s=read geom=nocrowd test
 ----------------------------------------------------------------------
 1/38=1/1;
 2/12=1,17=6,18=5,40=1/2;
 3/5=7,16=1,25=1,30=1,116=1/1,2,3;
 4/5=1,9=4/1;
 5/5=100002,15=2,16=1,32=2,38=6/2;
 8/6=1,10=90,11=11/1,4;
 9/8=4,13=1/2;
 6/7=2,8=2,9=2,10=2,28=1/1;
 99/5=1,9=1/99;
 ----------------------------------------------------------------------
 hf stability analysis of h10 triangular lattice, y= 0.3650915174764740
 0
 ----------------------------------------------------------------------
 Symbolic Z-matrix:
 Charge =  0 Multiplicity = 1
 H
 H                    1     1.62298 
 H                    1     1.62298  2     154. 
 H                    2     1.62298  1     26.      3     0.       0
 H                    4     1.62298  2     180.     3     0.       0
 H                    5     1.62298  4     180.     3     0.       0
 H                    3     1.62298  1     180.     4     0.       0
 H                    7     1.62298  3     180.     4     0.       0
 H                    3     1.62298  4     180.     1     0.       0
 H                    7     1.62298  5     180.     3     0.       0
 H                    4     1.62298  3     180.     1     0.       0
 H                    5     1.62298  7     180.     3     0.       0
 
                          Input orientation:                          
 ---------------------------------------------------------------------
 Center     Atomic      Atomic             Coordinates (Angstroms)
 Number     Number       Type             X           Y           Z
 ---------------------------------------------------------------------
      1          1           0        0.000000    0.000000    0.000000
      2          1           0        0.000000    0.000000    1.622982
      3          1           0        0.711468    0.000000   -1.458727
      4          1           0        0.711468    0.000000    0.164255
      5          1           0        1.422937    0.000000   -1.294471
      6          1           0        2.134405    0.000000   -2.753198
      7          1           0        1.422937    0.000000   -2.917453
      8          1           0        2.134405    0.000000   -4.376180
      9          1           0        0.711468    0.000000   -3.081709
     10          1           0        1.422937    0.000000   -4.540435
     11          1           0        0.711468    0.000000    1.787237
     12          1           0        1.422937    0.000000    0.328511
 ---------------------------------------------------------------------
                    Distance matrix (angstroms):
                    1          2          3          4          5
     1  H    0.000000
     2  H    1.622982   0.000000
     3  H    1.622982   3.162770   0.000000
     4  H    0.730183   1.622982   1.622982   0.000000
     5  H    1.923644   3.245964   0.730183   1.622982   0.000000
     6  H    3.483645   4.868946   1.923644   3.245964   1.622982
     7  H    3.245964   4.758182   1.622982   3.162770   1.622982
     8  H    4.868946   6.367545   3.245964   4.758182   3.162770
     9  H    3.162770   4.758182   1.622982   3.245964   1.923644
    10  H    4.758182   6.325540   3.162770   4.758182   3.245964
    11  H    1.923644   0.730183   3.245964   1.622982   3.162770
    12  H    1.460366   1.923644   1.923644   0.730183   1.622982
                    6          7          8          9         10
     6  H    0.000000
     7  H    0.730183   0.000000
     8  H    1.622982   1.622982   0.000000
     9  H    1.460366   0.730183   1.923644   0.000000
    10  H    1.923644   1.622982   0.730183   1.622982   0.000000
    11  H    4.758182   4.758182   6.325540   4.868946   6.367545
    12  H    3.162770   3.245964   4.758182   3.483645   4.868946
                   11         12
    11  H    0.000000
    12  H    1.622982   0.000000
 Stoichiometry    H12
 Framework group  D2H[C2'(H.H),C2"(H.H),SG(H8)]
 Deg. of freedom     6
 Full point group                 D2H     NOp   8
 Largest Abelian subgroup         D2H     NOp   8
 Largest concise Abelian subgroup D2      NOp   4
                         Standard orientation:                         
 ---------------------------------------------------------------------
 Center     Atomic      Atomic             Coordinates (Angstroms)
 Number     Number       Type             X           Y           Z
 ---------------------------------------------------------------------
      1          1           0        0.000000    0.730183    1.581385
      2          1           0        0.000000    0.365092    3.162770
      3          1           0        0.000000    0.365092   -0.000000
      4          1           0        0.000000    0.000000    1.581385
      5          1           0       -0.000000   -0.365092    0.000000
      6          1           0       -0.000000   -0.730183   -1.581385
      7          1           0        0.000000   -0.000000   -1.581385
      8          1           0       -0.000000   -0.365092   -3.162770
      9          1           0        0.000000    0.730183   -1.581385
     10          1           0        0.000000    0.365092   -3.162770
     11          1           0       -0.000000   -0.365092    3.162770
     12          1           0       -0.000000   -0.730183    1.581385
 ---------------------------------------------------------------------
 Rotational constants (GHZ):    171.0038587      9.1145265      8.6533043
 General basis read from cards:  (5D, 7F)
 There are     4 symmetry adapted cartesian basis functions of AG  symmetry.
 There are     0 symmetry adapted cartesian basis functions of B1G symmetry.
 There are     0 symmetry adapted cartesian basis functions of B2G symmetry.
 There are     2 symmetry adapted cartesian basis functions of B3G symmetry.
 There are     0 symmetry adapted cartesian basis functions of AU  symmetry.
 There are     3 symmetry adapted cartesian basis functions of B1U symmetry.
 There are     3 symmetry adapted cartesian basis functions of B2U symmetry.
 There are     0 symmetry adapted cartesian basis functions of B3U symmetry.
 There are     4 symmetry adapted basis functions of AG  symmetry.
 There are     0 symmetry adapted basis functions of B1G symmetry.
 There are     0 symmetry adapted basis functions of B2G symmetry.
 There are     2 symmetry adapted basis functions of B3G symmetry.
 There are     0 symmetry adapted basis functions of AU  symmetry.
 There are     3 symmetry adapted basis functions of B1U symmetry.
 There are     3 symmetry adapted basis functions of B2U symmetry.
 There are     0 symmetry adapted basis functions of B3U symmetry.
    12 basis functions,   120 primitive gaussians,    12 cartesian basis functions
     6 alpha electrons        6 beta electrons
       nuclear repulsion energy        17.6525087340 Hartrees.
 NAtoms=   12 NActive=   12 NUniq=    4 SFac= 4.00D+00 NAtFMM=   60 NAOKFM=F Big=F
 Integral buffers will be    131072 words long.
 Regular integral format.
 Two-electron integral symmetry is turned on.
 One-electron integrals computed using PRISM.
 NBasis=    12 RedAO= T EigKep=  1.07D-01  NBF=     4     0     0     2     0     3     3     0
 NBsUse=    12 1.00D-06 EigRej= -1.00D+00 NBFU=     4     0     0     2     0     3     3     0
 Initial guess from the checkpoint file:  "h12.chk"
 B after Tr=     0.000000    0.000000    0.000000
         Rot=   -0.000000    0.000000    0.707107    0.707107 Ang= 180.00 deg.
 Initial guess orbital symmetries:
       Occupied  (AG) (B2U) (AG) (B2U) (AG) (B1U)
       Virtual   (B3G) (B1U) (B3G) (B1U) (AG) (B2U)
 Keep R1 ints in memory in symmetry-blocked form, NReq=898078.
 Requested convergence on RMS density matrix=1.00D-08 within 128 cycles.
 Requested convergence on MAX density matrix=1.00D-06.
 Requested convergence on             energy=1.00D-06.
 No special actions if energy rises.
 SCF Done:  E(RHF) =  -4.39716813244     A.U. after   12 cycles
            NFock= 12  Conv=0.61D-08     -V/T= 1.5775
 Range of M.O.s used for correlation:     1    12
 NBasis=    12 NAE=     6 NBE=     6 NFC=     0 NFV=     0
 NROrb=     12 NOA=     6 NOB=     6 NVA=     6 NVB=     6

 **** Warning!!: The smallest alpha delta epsilon is -0.55742114D+00

 Semi-Direct transformation.
 ModeAB=           4 MOrb=             6 LenV=     134089101
 LASXX=         2181 LTotXX=        2181 LenRXX=        5115
 LTotAB=        2934 MaxLAS=        1800 LenRXY=           0
 NonZer=        7296 LenScr=      655360 LnRSAI=        1800
 LnScr1=      655360 LExtra=           0 Total=      1317635
 MaxDsk=          -1 SrtSym=           T ITran=            3
 JobTyp=0 Pass  1:  I=   1 to   6.
 (rs|ai) integrals will be sorted in core.
 Spin components of T(2) and E(2):
     alpha-alpha T2 =       0.7434913506D+00 E2=     -0.1429042416D+00
     alpha-beta  T2 =       0.7506333572D+01 E2=     -0.1122922730D+01
     beta-beta   T2 =       0.7434913506D+00 E2=     -0.1429042416D+00
 ANorm=    0.3161220694D+01
 E2 =    -0.1408731213D+01 EUMP2 =    -0.58058993452876D+01
 Second order stability test of a single determinant RHF wave function:
 Stabil:  MDV=134217728
 ***********************************************************************
 Matrix         Lowest Root    Major Pairs
 ***********************************************************************
 Internal RHF    -0.6879023    6A=7A
 RRHF --> CRHF   -0.8142521    6A=7A
 RRHF --> RUHF   -0.9702153    6A=7B
 Not stable.
 ***********************************************************************

 **********************************************************************

            Population analysis using the SCF density.

 **********************************************************************

 Orbital symmetries:
       Occupied  (AG) (B1U) (AG) (AG) (B2U) (B2U)
       Virtual   (B1U) (B3G) (B3G) (B2U) (AG) (B1U)
 The electronic state is 1-AG.
 Alpha  occ. eigenvalues --   -0.83896  -0.80760  -0.55634  -0.41417  -0.29486
 Alpha  occ. eigenvalues --    0.18845
 Alpha virt. eigenvalues --   -0.36897  -0.10726   0.32352   0.59115   0.78798
 Alpha virt. eigenvalues --    0.81628
          Condensed to atoms (all electrons):
               1          2          3          4          5          6
     1  H    0.811504  -0.041088   0.070944   0.268548  -0.127183  -0.018217
     2  H   -0.041088   2.247349  -0.041061  -0.027131   0.042571  -0.000120
     3  H    0.070944  -0.041061   1.422541  -0.105432   0.113663  -0.127183
     4  H    0.268548  -0.027131  -0.105432   0.914172  -0.105432   0.004137
     5  H   -0.127183   0.042571   0.113663  -0.105432   1.422541   0.070944
     6  H   -0.018217  -0.000120  -0.127183   0.004137   0.070944   0.811504
     7  H    0.004137  -0.000730  -0.105432   0.008818  -0.105432   0.268548
     8  H   -0.000120  -0.000318   0.042571  -0.000730  -0.041061  -0.041088
     9  H    0.034275  -0.000592   0.070944   0.004137  -0.127183  -0.211180
    10  H   -0.000592   0.000483  -0.041061  -0.000730   0.042571   0.000633
    11  H    0.000633  -1.180489   0.042571  -0.027131  -0.041061  -0.000592
    12  H   -0.211180   0.000633  -0.127183   0.268548   0.070944   0.034275
               7          8          9         10         11         12
     1  H    0.004137  -0.000120   0.034275  -0.000592   0.000633  -0.211180
     2  H   -0.000730  -0.000318  -0.000592   0.000483  -1.180489   0.000633
     3  H   -0.105432   0.042571   0.070944  -0.041061   0.042571  -0.127183
     4  H    0.008818  -0.000730   0.004137  -0.000730  -0.027131   0.268548
     5  H   -0.105432  -0.041061  -0.127183   0.042571  -0.041061   0.070944
     6  H    0.268548  -0.041088  -0.211180   0.000633  -0.000592   0.034275
     7  H    0.914172  -0.027131   0.268548  -0.027131  -0.000730   0.004137
     8  H   -0.027131   2.247349   0.000633  -1.180489   0.000483  -0.000592
     9  H    0.268548   0.000633   0.811504  -0.041088  -0.000120  -0.018217
    10  H   -0.027131  -1.180489  -0.041088   2.247349  -0.000318  -0.000120
    11  H   -0.000730   0.000483  -0.000120  -0.000318   2.247349  -0.041088
    12  H    0.004137  -0.000592  -0.018217  -0.000120  -0.041088   0.811504
 Mulliken charges:
               1
     1  H    0.208337
     2  H    0.000492
     3  H   -0.215883
     4  H   -0.201775
     5  H   -0.215883
     6  H    0.208337
     7  H   -0.201775
     8  H    0.000492
     9  H    0.208337
    10  H    0.000492
    11  H    0.000492
    12  H    0.208337
 Sum of Mulliken charges =  -0.00000
 Mulliken charges with hydrogens summed into heavy atoms:
               1
 Electronic spatial extent (au):  <R**2>=            239.9059
 Charge=             -0.0000 electrons
 Dipole moment (field-independent basis, Debye):
    X=             -0.0000    Y=             -0.0000    Z=             -0.0000  Tot=              0.0000
 Quadrupole moment (field-independent basis, Debye-Ang):
   XX=            -14.6340   YY=            -16.9425   ZZ=            -12.7617
   XY=             -0.0000   XZ=              0.0000   YZ=              0.0000
 Traceless Quadrupole moment (field-independent basis, Debye-Ang):
   XX=              0.1454   YY=             -2.1631   ZZ=              2.0177
   XY=             -0.0000   XZ=              0.0000   YZ=              0.0000
 Octapole moment (field-independent basis, Debye-Ang**2):
  XXX=             -0.0000  YYY=             -0.0000  ZZZ=             -0.0000  XYY=             -0.0000
  XXY=             -0.0000  XXZ=             -0.0000  XZZ=             -0.0000  YZZ=              0.0000
  YYZ=              0.0000  XYZ=              0.0000
 Hexadecapole moment (field-independent basis, Debye-Ang**3):
 XXXX=            -17.1439 YYYY=            -45.3675 ZZZZ=           -450.3859 XXXY=             -0.0000
 XXXZ=              0.0000 YYYX=             -0.0000 YYYZ=              0.0000 ZZZX=              0.0000
 ZZZY=             -0.0000 XXYY=            -10.4320 XXZZ=            -70.9801 YYZZ=            -96.6982
 XXYZ=             -0.0000 YYXZ=              0.0000 ZZXY=             -0.0000
 N-N= 1.765250873402D+01 E-N=-4.626604330734D+01  KE= 7.613636803791D+00
 Symmetry AG   KE= 3.097534160614D+00
 Symmetry B1G  KE= 0.000000000000D+00
 Symmetry B2G  KE= 0.000000000000D+00
 Symmetry B3G  KE=-1.933642010640D-17
 Symmetry AU   KE= 0.000000000000D+00
 Symmetry B1U  KE= 7.436450129137D-01
 Symmetry B2U  KE= 3.772457630264D+00
 Symmetry B3U  KE= 0.000000000000D+00

 Test job not archived.
 1\1\GINC-SULU\Stability\RHF\Gen\H12\LCJ1\17-Feb-2017\0\\#rhf/gen scf(s
 ymm,tight,novaracc,noincfock,fulldiag) stable(crhf) guess=read geom=no
 crowd test\\hf stability analysis of h10 triangular lattice, y= 0.3650
 9151747647400\\0,1\H\H,1,1.6229819796\H,1,1.6229819796,2,154.\H,2,1.62
 29819796,1,26.,3,0.,0\H,4,1.6229819796,2,180.,3,0.,0\H,5,1.6229819796,
 4,180.,3,0.,0\H,3,1.6229819796,1,180.,4,0.,0\H,7,1.6229819796,3,180.,4
 ,0.,0\H,3,1.6229819796,4,180.,1,0.,0\H,7,1.6229819796,5,180.,3,0.,0\H,
 4,1.6229819796,3,180.,1,0.,0\H,5,1.6229819796,7,180.,3,0.,0\\Version=E
 S64L-G09RevE.01\State=1-AG\HF=-4.3971681\MP2=-5.8058993\RMSD=6.090e-09
 \Dipole=0.,0.,0.\Quadrupole=-1.450925,0.1081256,1.3427994,0.,-0.681295
 2,0.\PG=D02H [C2'(H1.H1),C2"(H1.H1),SG(H8)]\\@


 THE ONLY EXISTING THINGS ARE ATOMS AND EMPTY SPACE;
 ALL ELSE IS MERE OPINION. -- DEMOCRITUS OF ABDERA D. 370 B.C.
 EXPERIMENTS ARE THE ONLY MEANS OF KNOWLEDGE AT OUR DISPOSAL
 THE REST IS POETRY, IMAGINATION. -- MAX PLANCK
 Job cpu time:       0 days  0 hours  0 minutes  0.8 seconds.
 File lengths (MBytes):  RWF=     84 Int=      0 D2E=      0 Chk=      2 Scr=      2
 Normal termination of Gaussian 09 at Fri Feb 17 15:15:33 2017.
