 Entering Gaussian System, Link 0=g09
 AtFile(1): H.gbs
            H     0
            S   10   1.00
               1000.000000000000            0.000068713567
                316.227766000000            0.000169141320
                100.000000000000            0.000823394812
                 31.622776600000            0.003425569236
                 10.000000000000            0.013951996000
                  3.162277660000            0.056909313560
                  1.000000000000            0.198286399900
                  0.316227766000            0.496922426700
                  0.100000000000            0.369846276400
                  0.031622776600            0.003752720039
            ****
 Initial command:
 /projects/guscus/apps/gau/g09-e1/g09/l1.exe "/users/lcj1/gaussian/h10/rhfstability/2rows/zmat/constside/fwd/Gau-12830.inp" -scrdir="/users/lcj1/gaussian/h10/rhfstability/2rows/zmat/constside/fwd/"
 Entering Link 1 = /projects/guscus/apps/gau/g09-e1/g09/l1.exe PID=     12831.
  
 Copyright (c) 1988,1990,1992,1993,1995,1998,2003,2009,2015,
            Gaussian, Inc.  All Rights Reserved.
  
 This is part of the Gaussian(R) 09 program.  It is based on
 the Gaussian(R) 03 system (copyright 2003, Gaussian, Inc.),
 the Gaussian(R) 98 system (copyright 1998, Gaussian, Inc.),
 the Gaussian(R) 94 system (copyright 1995, Gaussian, Inc.),
 the Gaussian 92(TM) system (copyright 1992, Gaussian, Inc.),
 the Gaussian 90(TM) system (copyright 1990, Gaussian, Inc.),
 the Gaussian 88(TM) system (copyright 1988, Gaussian, Inc.),
 the Gaussian 86(TM) system (copyright 1986, Carnegie Mellon
 University), and the Gaussian 82(TM) system (copyright 1983,
 Carnegie Mellon University). Gaussian is a federally registered
 trademark of Gaussian, Inc.
  
 This software contains proprietary and confidential information,
 including trade secrets, belonging to Gaussian, Inc.
  
 This software is provided under written license and may be
 used, copied, transmitted, or stored only in accord with that
 written license.
  
 The following legend is applicable only to US Government
 contracts under FAR:
  
                    RESTRICTED RIGHTS LEGEND
  
 Use, reproduction and disclosure by the US Government is
 subject to restrictions as set forth in subparagraphs (a)
 and (c) of the Commercial Computer Software - Restricted
 Rights clause in FAR 52.227-19.
  
 Gaussian, Inc.
 340 Quinnipiac St., Bldg. 40, Wallingford CT 06492
  
  
 ---------------------------------------------------------------
 Warning -- This program may not be used in any manner that
 competes with the business of Gaussian, Inc. or will provide
 assistance to any competitor of Gaussian, Inc.  The licensee
 of this program is prohibited from giving any competitor of
 Gaussian, Inc. access to this program.  By using this program,
 the user acknowledges that Gaussian, Inc. is engaged in the
 business of creating and licensing software in the field of
 computational chemistry and represents and warrants to the
 licensee that it is not a competitor of Gaussian, Inc. and that
 it will not use this program in any manner prohibited above.
 ---------------------------------------------------------------
  

 Cite this work as:
 Gaussian 09, Revision E.01,
 M. J. Frisch, G. W. Trucks, H. B. Schlegel, G. E. Scuseria, 
 M. A. Robb, J. R. Cheeseman, G. Scalmani, V. Barone, B. Mennucci, 
 G. A. Petersson, H. Nakatsuji, M. Caricato, X. Li, H. P. Hratchian, 
 A. F. Izmaylov, J. Bloino, G. Zheng, J. L. Sonnenberg, M. Hada, 
 M. Ehara, K. Toyota, R. Fukuda, J. Hasegawa, M. Ishida, T. Nakajima, 
 Y. Honda, O. Kitao, H. Nakai, T. Vreven, J. A. Montgomery, Jr., 
 J. E. Peralta, F. Ogliaro, M. Bearpark, J. J. Heyd, E. Brothers, 
 K. N. Kudin, V. N. Staroverov, T. Keith, R. Kobayashi, J. Normand, 
 K. Raghavachari, A. Rendell, J. C. Burant, S. S. Iyengar, J. Tomasi, 
 M. Cossi, N. Rega, J. M. Millam, M. Klene, J. E. Knox, J. B. Cross, 
 V. Bakken, C. Adamo, J. Jaramillo, R. Gomperts, R. E. Stratmann, 
 O. Yazyev, A. J. Austin, R. Cammi, C. Pomelli, J. W. Ochterski, 
 R. L. Martin, K. Morokuma, V. G. Zakrzewski, G. A. Voth, 
 P. Salvador, J. J. Dannenberg, S. Dapprich, A. D. Daniels, 
 O. Farkas, J. B. Foresman, J. V. Ortiz, J. Cioslowski, 
 and D. J. Fox, Gaussian, Inc., Wallingford CT, 2013.
 
 ******************************************
 Gaussian 09:  ES64L-G09RevE.01 30-Nov-2015
                10-Feb-2017 
 ******************************************
 %chk=h10.chk
 ----------------------------------------------------------------------
 #rhf/gen scf(tight,novaracc,noincfock,fulldiag) stable(crhf) guess=rea
 d geom=nocrowd test
 ----------------------------------------------------------------------
 1/38=1/1;
 2/12=1,17=6,18=5,40=1/2;
 3/5=7,16=1,25=1,30=1,116=1/1,2,3;
 4/5=1/1;
 5/5=100002,16=1,32=2,38=6/2;
 8/6=1,10=90,11=11/1,4;
 9/8=4,13=1/2;
 6/7=2,8=2,9=2,10=2,28=1/1;
 99/5=1,9=1/99;
 ----------------------------------------------------------------------
 hf stability analysis of h10 triangular lattice, y= 0.6609558909028850
 9
 ----------------------------------------------------------------------
 Symbolic Z-matrix:
 Charge =  0 Multiplicity = 1
 H
 H                    1     1.7644 
 H                    1     1.7644   2     136. 
 H                    2     1.7644   1     44.      3     0.       0
 H                    3     1.7644   1     180.     2     0.       0
 H                    4     1.7644   2     180.     1     0.       0
 H                    5     1.7644   3     180.     2     0.       0
 H                    6     1.7644   4     180.     1     0.       0
 H                    7     1.7644   5     180.     2     0.       0
 H                    8     1.7644   6     180.     1     0.       0
 
                          Input orientation:                          
 ---------------------------------------------------------------------
 Center     Atomic      Atomic             Coordinates (Angstroms)
 Number     Number       Type             X           Y           Z
 ---------------------------------------------------------------------
      1          1           0        0.000000    0.000000    0.000000
      2          1           0        0.000000    0.000000    1.764400
      3          1           0        1.225655    0.000000   -1.269203
      4          1           0        1.225655    0.000000    0.495197
      5          1           0        2.451310    0.000000   -2.538406
      6          1           0        2.451310    0.000000   -0.774006
      7          1           0        3.676966    0.000000   -3.807609
      8          1           0        3.676966    0.000000   -2.043209
      9          1           0        4.902621    0.000000   -5.076813
     10          1           0        4.902621    0.000000   -3.312413
 ---------------------------------------------------------------------
                    Distance matrix (angstroms):
                    1          2          3          4          5
     1  H    0.000000
     2  H    1.764400   0.000000
     3  H    1.764400   3.271846   0.000000
     4  H    1.321912   1.764400   1.764400   0.000000
     5  H    3.528800   4.952077   1.764400   3.271846   0.000000
     6  H    2.570605   3.528800   1.321912   1.764400   1.764400
     7  H    5.293200   6.675879   3.528800   4.952077   1.764400
     8  H    4.206517   5.293200   2.570605   3.528800   1.321912
     9  H    7.057600   8.416524   5.293200   6.675879   3.528800
    10  H    5.916736   7.057600   4.206517   5.293200   2.570605
                    6          7          8          9         10
     6  H    0.000000
     7  H    3.271846   0.000000
     8  H    1.764400   1.764400   0.000000
     9  H    4.952077   1.764400   3.271846   0.000000
    10  H    3.528800   1.321912   1.764400   1.764400   0.000000
 Stoichiometry    H10
 Framework group  C2H[SGH(H10)]
 Deg. of freedom     9
 Full point group                 C2H     NOp   4
 Largest Abelian subgroup         C2H     NOp   4
 Largest concise Abelian subgroup C2      NOp   2
                         Standard orientation:                         
 ---------------------------------------------------------------------
 Center     Atomic      Atomic             Coordinates (Angstroms)
 Number     Number       Type             X           Y           Z
 ---------------------------------------------------------------------
      1          1           0        2.451310   -1.656206   -0.000000
      2          1           0        2.451310   -3.420606   -0.000000
      3          1           0        1.225655   -0.387003   -0.000000
      4          1           0        1.225655   -2.151403   -0.000000
      5          1           0       -0.000000    0.882200    0.000000
      6          1           0       -0.000000   -0.882200   -0.000000
      7          1           0       -1.225655    2.151403   -0.000000
      8          1           0       -1.225655    0.387003   -0.000000
      9          1           0       -2.451310    3.420606   -0.000000
     10          1           0       -2.451310    1.656206   -0.000000
 ---------------------------------------------------------------------
 Rotational constants (GHZ):    142.6758919      7.5372473      7.1590507
 General basis read from cards:  (5D, 7F)
 There are     5 symmetry adapted cartesian basis functions of AG  symmetry.
 There are     0 symmetry adapted cartesian basis functions of BG  symmetry.
 There are     0 symmetry adapted cartesian basis functions of AU  symmetry.
 There are     5 symmetry adapted cartesian basis functions of BU  symmetry.
 There are     5 symmetry adapted basis functions of AG  symmetry.
 There are     0 symmetry adapted basis functions of BG  symmetry.
 There are     0 symmetry adapted basis functions of AU  symmetry.
 There are     5 symmetry adapted basis functions of BU  symmetry.
    10 basis functions,   100 primitive gaussians,    10 cartesian basis functions
     5 alpha electrons        5 beta electrons
       nuclear repulsion energy         9.0973452979 Hartrees.
 NAtoms=   10 NActive=   10 NUniq=    5 SFac= 4.00D+00 NAtFMM=   60 NAOKFM=F Big=F
 Integral buffers will be    131072 words long.
 Regular integral format.
 Two-electron integral symmetry is turned on.
 One-electron integrals computed using PRISM.
 NBasis=    10 RedAO= T EigKep=  3.90D-01  NBF=     5     0     0     5
 NBsUse=    10 1.00D-06 EigRej= -1.00D+00 NBFU=     5     0     0     5
 Initial guess from the checkpoint file:  "h10.chk"
 B after Tr=     0.000000    0.000000   -0.000000
         Rot=    0.999880   -0.000000    0.000000    0.015514 Ang=   1.78 deg.
 Initial guess orbital symmetries:
       Occupied  (AG) (BU) (AG) (BU) (AG)
       Virtual   (BU) (BU) (AG) (BU) (AG)
 Keep R1 ints in memory in symmetry-blocked form, NReq=872721.
 Requested convergence on RMS density matrix=1.00D-08 within 128 cycles.
 Requested convergence on MAX density matrix=1.00D-06.
 Requested convergence on             energy=1.00D-06.
 No special actions if energy rises.
 SCF Done:  E(RHF) =  -4.70563340649     A.U. after   12 cycles
            NFock= 12  Conv=0.36D-08     -V/T= 2.0408
 Range of M.O.s used for correlation:     1    10
 NBasis=    10 NAE=     5 NBE=     5 NFC=     0 NFV=     0
 NROrb=     10 NOA=     5 NOB=     5 NVA=     5 NVB=     5

 **** Warning!!: The smallest alpha delta epsilon is  0.98432712D-01

 Semi-Direct transformation.
 ModeAB=           4 MOrb=             5 LenV=     134113448
 LASXX=         1030 LTotXX=        1030 LenRXX=        2480
 LTotAB=        1450 MaxLAS=        1500 LenRXY=           0
 NonZer=        3510 LenScr=      655360 LnRSAI=        1500
 LnScr1=      655360 LExtra=           0 Total=      1314700
 MaxDsk=          -1 SrtSym=           T ITran=            3
 JobTyp=0 Pass  1:  I=   1 to   5.
 (rs|ai) integrals will be sorted in core.
 Spin components of T(2) and E(2):
     alpha-alpha T2 =       0.3267000741D-02 E2=     -0.2792952488D-02
     alpha-beta  T2 =       0.8404962592D+00 E2=     -0.2645125647D+00
     beta-beta   T2 =       0.3267000741D-02 E2=     -0.2792952488D-02
 ANorm=    0.1359054915D+01
 E2 =    -0.2700984697D+00 EUMP2 =    -0.49757318761886D+01
 Second order stability test of a single determinant RHF wave function:
 Stabil:  MDV=134217728
 ***********************************************************************
 Matrix         Lowest Root    Major Pairs
 ***********************************************************************
 Internal RHF     0.002069     Stable
 RRHF --> CRHF   -0.0254407    5A=6A 5A=7A
 RRHF --> RUHF   -0.3764391    5A=6B 5A=7B 4A=8B 3A=7B 4A=10B
 Not stable.
 ***********************************************************************

 **********************************************************************

            Population analysis using the SCF density.

 **********************************************************************

 Orbital symmetries:
       Occupied  (AG) (BU) (AG) (BU) (AG)
       Virtual   (BU) (BU) (AG) (BU) (AG)
 The electronic state is 1-AG.
 Alpha  occ. eigenvalues --   -0.63467  -0.57511  -0.47470  -0.34839  -0.14235
 Alpha virt. eigenvalues --   -0.04391   0.01598   0.06877   0.15702   0.22001
          Condensed to atoms (all electrons):
               1          2          3          4          5          6
     1  H    0.785041  -0.040568   0.000469   0.267100  -0.005992  -0.041502
     2  H   -0.040568   1.216942  -0.021346   0.057910   0.001163   0.000330
     3  H    0.000469  -0.021346   0.833190   0.007229  -0.080443   0.290661
     4  H    0.267100   0.057910   0.007229   0.553796  -0.004493  -0.041843
     5  H   -0.005992   0.001163  -0.080443  -0.004493   0.833003   0.031352
     6  H   -0.041502   0.000330   0.290661  -0.041843   0.031352   0.833003
     7  H    0.000125  -0.000015   0.000389   0.000106  -0.041843  -0.004493
     8  H    0.001491   0.000003  -0.034834   0.000389   0.290661  -0.080443
     9  H   -0.000033   0.000005   0.000003  -0.000015   0.000330   0.001163
    10  H    0.000129  -0.000033   0.001491   0.000125  -0.041502  -0.005992
               7          8          9         10
     1  H    0.000125   0.001491  -0.000033   0.000129
     2  H   -0.000015   0.000003   0.000005  -0.000033
     3  H    0.000389  -0.034834   0.000003   0.001491
     4  H    0.000106   0.000389  -0.000015   0.000125
     5  H   -0.041843   0.290661   0.000330  -0.041502
     6  H   -0.004493  -0.080443   0.001163  -0.005992
     7  H    0.553796   0.007229   0.057910   0.267100
     8  H    0.007229   0.833190  -0.021346   0.000469
     9  H    0.057910  -0.021346   1.216942  -0.040568
    10  H    0.267100   0.000469  -0.040568   0.785041
 Mulliken charges:
               1
     1  H    0.033739
     2  H   -0.214391
     3  H    0.003191
     4  H    0.159696
     5  H    0.017765
     6  H    0.017765
     7  H    0.159696
     8  H    0.003191
     9  H   -0.214391
    10  H    0.033739
 Sum of Mulliken charges =  -0.00000
 Mulliken charges with hydrogens summed into heavy atoms:
               1
 Electronic spatial extent (au):  <R**2>=            298.6279
 Charge=             -0.0000 electrons
 Dipole moment (field-independent basis, Debye):
    X=              0.0000    Y=             -0.0000    Z=              0.0000  Tot=              0.0000
 Quadrupole moment (field-independent basis, Debye-Ang):
   XX=            -20.5353   YY=            -30.9244   ZZ=            -13.7650
   XY=             14.4244   XZ=              0.0000   YZ=             -0.0000
 Traceless Quadrupole moment (field-independent basis, Debye-Ang):
   XX=              1.2063   YY=             -9.1828   ZZ=              7.9765
   XY=             14.4244   XZ=              0.0000   YZ=             -0.0000
 Octapole moment (field-independent basis, Debye-Ang**2):
  XXX=             -0.0000  YYY=              0.0000  ZZZ=              0.0000  XYY=              0.0000
  XXY=             -0.0000  XXZ=              0.0000  XZZ=             -0.0000  YZZ=             -0.0000
  YYZ=              0.0000  XYZ=             -0.0000
 Hexadecapole moment (field-independent basis, Debye-Ang**3):
 XXXX=           -307.8321 YYYY=           -642.3731 ZZZZ=            -17.4375 XXXY=            224.7245
 XXXZ=              0.0000 YYYX=            337.2657 YYYZ=             -0.0000 ZZZX=             -0.0000
 ZZZY=             -0.0000 XXYY=           -245.2270 XXZZ=            -48.8636 YYZZ=            -65.7322
 XXYZ=             -0.0000 YYXZ=              0.0000 ZZXY=             46.9916
 N-N= 9.097345297887D+00 E-N=-2.777653095414D+01  KE= 4.520990592808D+00
 Symmetry AG   KE= 2.682981699956D+00
 Symmetry BG   KE= 0.000000000000D+00
 Symmetry AU   KE= 0.000000000000D+00
 Symmetry BU   KE= 1.838008892851D+00

 Test job not archived.
 1\1\GINC-SULU\Stability\RHF\Gen\H10\LCJ1\10-Feb-2017\0\\#rhf/gen scf(t
 ight,novaracc,noincfock,fulldiag) stable(crhf) guess=read geom=nocrowd
  test\\hf stability analysis of h10 triangular lattice, y= 0.660955890
 90288509\\0,1\H\H,1,1.7644\H,1,1.7644,2,136.\H,2,1.7644,1,44.,3,0.,0\H
 ,3,1.7644,1,180.,2,0.,0\H,4,1.7644,2,180.,1,0.,0\H,5,1.7644,3,180.,2,0
 .,0\H,6,1.7644,4,180.,1,0.,0\H,7,1.7644,5,180.,2,0.,0\H,8,1.7644,6,180
 .,1,0.,0\\Version=ES64L-G09RevE.01\State=1-AG\HF=-4.7056334\MP2=-4.975
 7319\RMSD=3.600e-09\Dipole=0.,0.,0.\Quadrupole=0.8968484,5.9303571,-6.
 8272055,0.,10.7242087,0.\PG=C02H [SGH(H10)]\\@


 I KNOW YOU BELIEVE YOU UNDERSTAND WHAT YOU THINK I SAID,
 BUT I AM NOT SURE YOU REALIZE THAT WHAT YOU HEARD IS NOT WHAT I MEANT.
 Job cpu time:       0 days  0 hours  0 minutes  0.7 seconds.
 File lengths (MBytes):  RWF=     84 Int=      0 D2E=      0 Chk=      2 Scr=      2
 Normal termination of Gaussian 09 at Fri Feb 10 11:17:32 2017.
