 Entering Gaussian System, Link 0=g09
 AtFile(1): H.gbs
            H     0
            S   10   1.00
               1000.000000000000            0.000068713567
                316.227766000000            0.000169141320
                100.000000000000            0.000823394812
                 31.622776600000            0.003425569236
                 10.000000000000            0.013951996000
                  3.162277660000            0.056909313560
                  1.000000000000            0.198286399900
                  0.316227766000            0.496922426700
                  0.100000000000            0.369846276400
                  0.031622776600            0.003752720039
            ****
 Initial command:
 /projects/guscus/apps/gau/g09-e1/g09/l1.exe "/users/lcj1/gaussian/h6/custombasis/selectivefinemesh/Gau-8380.inp" -scrdir="/users/lcj1/gaussian/h6/custombasis/selectivefinemesh/"
 Entering Link 1 = /projects/guscus/apps/gau/g09-e1/g09/l1.exe PID=      8381.
  
 Copyright (c) 1988,1990,1992,1993,1995,1998,2003,2009,2015,
            Gaussian, Inc.  All Rights Reserved.
  
 This is part of the Gaussian(R) 09 program.  It is based on
 the Gaussian(R) 03 system (copyright 2003, Gaussian, Inc.),
 the Gaussian(R) 98 system (copyright 1998, Gaussian, Inc.),
 the Gaussian(R) 94 system (copyright 1995, Gaussian, Inc.),
 the Gaussian 92(TM) system (copyright 1992, Gaussian, Inc.),
 the Gaussian 90(TM) system (copyright 1990, Gaussian, Inc.),
 the Gaussian 88(TM) system (copyright 1988, Gaussian, Inc.),
 the Gaussian 86(TM) system (copyright 1986, Carnegie Mellon
 University), and the Gaussian 82(TM) system (copyright 1983,
 Carnegie Mellon University). Gaussian is a federally registered
 trademark of Gaussian, Inc.
  
 This software contains proprietary and confidential information,
 including trade secrets, belonging to Gaussian, Inc.
  
 This software is provided under written license and may be
 used, copied, transmitted, or stored only in accord with that
 written license.
  
 The following legend is applicable only to US Government
 contracts under FAR:
  
                    RESTRICTED RIGHTS LEGEND
  
 Use, reproduction and disclosure by the US Government is
 subject to restrictions as set forth in subparagraphs (a)
 and (c) of the Commercial Computer Software - Restricted
 Rights clause in FAR 52.227-19.
  
 Gaussian, Inc.
 340 Quinnipiac St., Bldg. 40, Wallingford CT 06492
  
  
 ---------------------------------------------------------------
 Warning -- This program may not be used in any manner that
 competes with the business of Gaussian, Inc. or will provide
 assistance to any competitor of Gaussian, Inc.  The licensee
 of this program is prohibited from giving any competitor of
 Gaussian, Inc. access to this program.  By using this program,
 the user acknowledges that Gaussian, Inc. is engaged in the
 business of creating and licensing software in the field of
 computational chemistry and represents and warrants to the
 licensee that it is not a competitor of Gaussian, Inc. and that
 it will not use this program in any manner prohibited above.
 ---------------------------------------------------------------
  

 Cite this work as:
 Gaussian 09, Revision E.01,
 M. J. Frisch, G. W. Trucks, H. B. Schlegel, G. E. Scuseria, 
 M. A. Robb, J. R. Cheeseman, G. Scalmani, V. Barone, B. Mennucci, 
 G. A. Petersson, H. Nakatsuji, M. Caricato, X. Li, H. P. Hratchian, 
 A. F. Izmaylov, J. Bloino, G. Zheng, J. L. Sonnenberg, M. Hada, 
 M. Ehara, K. Toyota, R. Fukuda, J. Hasegawa, M. Ishida, T. Nakajima, 
 Y. Honda, O. Kitao, H. Nakai, T. Vreven, J. A. Montgomery, Jr., 
 J. E. Peralta, F. Ogliaro, M. Bearpark, J. J. Heyd, E. Brothers, 
 K. N. Kudin, V. N. Staroverov, T. Keith, R. Kobayashi, J. Normand, 
 K. Raghavachari, A. Rendell, J. C. Burant, S. S. Iyengar, J. Tomasi, 
 M. Cossi, N. Rega, J. M. Millam, M. Klene, J. E. Knox, J. B. Cross, 
 V. Bakken, C. Adamo, J. Jaramillo, R. Gomperts, R. E. Stratmann, 
 O. Yazyev, A. J. Austin, R. Cammi, C. Pomelli, J. W. Ochterski, 
 R. L. Martin, K. Morokuma, V. G. Zakrzewski, G. A. Voth, 
 P. Salvador, J. J. Dannenberg, S. Dapprich, A. D. Daniels, 
 O. Farkas, J. B. Foresman, J. V. Ortiz, J. Cioslowski, 
 and D. J. Fox, Gaussian, Inc., Wallingford CT, 2013.
 
 ******************************************
 Gaussian 09:  ES64L-G09RevE.01 30-Nov-2015
                20-Jan-2017 
 ******************************************
 ----------------------------------------------------------------------
 # casscf(6,6,nroot=3,fulldiag)/gen scf(tight,novaracc,noincfock) geom=
 nocrowd test
 ----------------------------------------------------------------------
 1/38=1/1;
 2/12=1,17=6,18=5,40=1/2;
 3/5=7,16=1,25=1,32=1,116=101/1,2,3;
 4/17=6,18=6/1,5;
 5/5=100002,17=1000000,28=3,32=2,38=1/10;
 6/7=2,8=2,9=2,10=2,28=1/1;
 99/5=1,9=1/99;
 ----------------------------------------------------------------------
 mbs cascf calculation for a triangular configuration of 6 H atoms (mad
 e up of 4 iscosceles triangles)
 ----------------------------------------------------------------------
 Symbolic Z-matrix:
 Charge =  0 Multiplicity = 1
 H                     0.        0.        2.995 
 H                     0.19277   0.        0. 
 H                    -0.19277   0.        0. 
 H                     0.        0.       -2.995 
 H                     0.38554   0.       -2.995 
 H                    -0.38554   0.       -2.995 
 
                          Input orientation:                          
 ---------------------------------------------------------------------
 Center     Atomic      Atomic             Coordinates (Angstroms)
 Number     Number       Type             X           Y           Z
 ---------------------------------------------------------------------
      1          1           0        0.000000    0.000000    2.995000
      2          1           0        0.192771    0.000000    0.000000
      3          1           0       -0.192771    0.000000    0.000000
      4          1           0        0.000000    0.000000   -2.995000
      5          1           0        0.385542    0.000000   -2.995000
      6          1           0       -0.385542    0.000000   -2.995000
 ---------------------------------------------------------------------
                    Distance matrix (angstroms):
                    1          2          3          4          5
     1  H    0.000000
     2  H    3.001197   0.000000
     3  H    3.001197   0.385542   0.000000
     4  H    5.990000   3.001197   3.001197   0.000000
     5  H    6.002395   3.001197   3.050323   0.385542   0.000000
     6  H    6.002395   3.050323   3.001197   0.385542   0.771084
                    6
     6  H    0.000000
 Stoichiometry    H6
 Framework group  C2V[C2(HH),SGV(H4)]
 Deg. of freedom     5
 Full point group                 C2V     NOp   4
 Largest Abelian subgroup         C2V     NOp   4
 Largest concise Abelian subgroup C2      NOp   2
                         Standard orientation:                         
 ---------------------------------------------------------------------
 Center     Atomic      Atomic             Coordinates (Angstroms)
 Number     Number       Type             X           Y           Z
 ---------------------------------------------------------------------
      1          1           0       -0.000000   -0.000000    3.993333
      2          1           0        0.000000    0.192771    0.998333
      3          1           0       -0.000000   -0.192771    0.998333
      4          1           0        0.000000    0.000000   -1.996667
      5          1           0        0.000000    0.385542   -1.996667
      6          1           0       -0.000000   -0.385542   -1.996667
 ---------------------------------------------------------------------
 Rotational constants (GHZ):   1349.4246908     16.7710268     16.5651505
 General basis read from cards:  (5D, 7F)
 There are     4 symmetry adapted cartesian basis functions of A1  symmetry.
 There are     0 symmetry adapted cartesian basis functions of A2  symmetry.
 There are     0 symmetry adapted cartesian basis functions of B1  symmetry.
 There are     2 symmetry adapted cartesian basis functions of B2  symmetry.
 There are     4 symmetry adapted basis functions of A1  symmetry.
 There are     0 symmetry adapted basis functions of A2  symmetry.
 There are     0 symmetry adapted basis functions of B1  symmetry.
 There are     2 symmetry adapted basis functions of B2  symmetry.
     6 basis functions,    60 primitive gaussians,     6 cartesian basis functions
     3 alpha electrons        3 beta electrons
       nuclear repulsion energy         6.4735012834 Hartrees.
 NAtoms=    6 NActive=    6 NUniq=    4 SFac= 2.25D+00 NAtFMM=   60 NAOKFM=F Big=F
 Integral buffers will be    131072 words long.
 Regular integral format.
 Two-electron integral symmetry is turned off.
 One-electron integrals computed using PRISM.
 The smallest eigenvalue of the overlap matrix is  1.684D-02
 NBasis=     6 RedAO= F EigKep=  0.00D+00  NBF=     4     0     0     2
 NBsUse=     6 1.00D-04 EigRej=  0.00D+00 NBFU=     4     0     0     2
 ExpMin= 3.16D-02 ExpMax= 1.00D+03 ExpMxC= 1.00D+01 IAcc=3 IRadAn=         5 AccDes= 0.00D+00
 Harris functional with IExCor=  205 and IRadAn=       5 diagonalized for initial guess.
 HarFok:  IExCor=  205 AccDes= 0.00D+00 IRadAn=         5 IDoV= 1 UseB2=F ITyADJ=14
 ICtDFT=  3500011 ScaDFX=  1.000000  1.000000  1.000000  1.000000
 FoFCou: FMM=F IPFlag=           0 FMFlag=      100000 FMFlg1=           0
         NFxFlg=           0 DoJE=T BraDBF=F KetDBF=T FulRan=T
         wScrn=  0.000000 ICntrl=     500 IOpCl=  0 I1Cent=   200000004 NGrid=           0
         NMat0=    1 NMatS0=      1 NMatT0=    0 NMatD0=    1 NMtDS0=    0 NMtDT0=    0
 Petite list used in FoFCou.
 Initial guess orbital symmetries:
       Occupied  (A1) (A1) (A1)
       Virtual   (B2) (B2) (A1)
 The electronic state of the initial guess is 1-A1.
          Truncation Level=               99999
          a=  3          b=  0          c=  3
          a=N/2 - s   b=2s   c=n- (a+b)
          no. active orbitals (n)  6
          no. active ELECTRONS (N)=  6
                                                  IRREPS TO BE RETAINED = 1 2 3 4
                                                  GROUP IRREP. MULT. TABLE
                                                      1    2    3    4
                                                      2    1    4    3
                                                      3    4    1    2
                                                      4    3    2    1
                                                  IRREP. LABELS FOR ORBITALS
                                                   1 1 1 4 4 1
          BOTTOM WEIGHT= 12     TOP WEIGHT= 30
          Configuration         1 Symmetry 1 111000
          Configuration         2 Symmetry 4 11ab00
          Configuration         3 Symmetry 1 110100
          Configuration         4 Symmetry 4 1a1b00
          Configuration         5 Symmetry 4 11a0b0
          Configuration         6 Symmetry 1 1ab100
          Configuration         7 Symmetry 1 110ab0
          Configuration         8 Symmetry 4 a11b00
          Configuration         9 Symmetry 4 1a10b0
          Configuration        10 Symmetry 1 11a00b
          Configuration        11 Symmetry 1 101100
          Configuration        12 Symmetry 1 a1b100
          Configuration        13 Symmetry 1 1abab0
          Configuration        14 Symmetry 1 110010
          Configuration        15 Symmetry 4 110a0b
          Configuration        16 Symmetry 4 a110b0
          Configuration        17 Symmetry 1 1aabb0
          Configuration        18 Symmetry 1 1a100b
          Configuration        19 Symmetry 1 ab1100
          Configuration        20 Symmetry 1 101ab0
          Configuration        21 Symmetry 1 a1bab0
          Configuration        22 Symmetry 1 1ab010
          Configuration        23 Symmetry 4 1a01b0
          Configuration        24 Symmetry 4 1aba0b
          Configuration        25 Symmetry 4 1100ab
          Configuration        26 Symmetry 1 a1abb0
          Configuration        27 Symmetry 1 a1100b
          Configuration        28 Symmetry 4 1aab0b
          Configuration        29 Symmetry 1 011100
          Configuration        30 Symmetry 1 ab1ab0
          Configuration        31 Symmetry 1 101010
          Configuration        32 Symmetry 4 10a1b0
          Configuration        33 Symmetry 4 101a0b
          Configuration        34 Symmetry 1 a1b010
          Configuration        35 Symmetry 4 a101b0
          Configuration        36 Symmetry 4 a1ba0b
          Configuration        37 Symmetry 4 1a0b10
          Configuration        38 Symmetry 4 1ab0ab
          Configuration        39 Symmetry 1 1a010b
          Configuration        40 Symmetry 1 110001
          Configuration        41 Symmetry 1 aa1bb0
          Configuration        42 Symmetry 4 a1ab0b
          Configuration        43 Symmetry 4 1aa0bb
          Configuration        44 Symmetry 1 011ab0
          Configuration        45 Symmetry 1 ab1010
          Configuration        46 Symmetry 4 aba1b0
          Configuration        47 Symmetry 4 ab1a0b
          Configuration        48 Symmetry 4 10ab10
          Configuration        49 Symmetry 4 1010ab
          Configuration        50 Symmetry 1 10a10b
          Configuration        51 Symmetry 4 a10b10
          Configuration        52 Symmetry 4 a1b0ab
          Configuration        53 Symmetry 4 aab1b0
          Configuration        54 Symmetry 1 a1010b
          Configuration        55 Symmetry 1 1a0bab
          Configuration        56 Symmetry 1 1ab001
          Configuration        57 Symmetry 1 1a0abb
          Configuration        58 Symmetry 4 aa1b0b
          Configuration        59 Symmetry 4 a1a0bb
          Configuration        60 Symmetry 1 011010
          Configuration        61 Symmetry 4 01a1b0
          Configuration        62 Symmetry 4 011a0b
          Configuration        63 Symmetry 4 abab10
          Configuration        64 Symmetry 4 ab10ab
          Configuration        65 Symmetry 4 a011b0
          Configuration        66 Symmetry 1 aba10b
          Configuration        67 Symmetry 1 100110
          Configuration        68 Symmetry 1 10abab
          Configuration        69 Symmetry 1 101001
          Configuration        70 Symmetry 1 10aabb
          Configuration        71 Symmetry 4 aabb10
          Configuration        72 Symmetry 1 a10bab
          Configuration        73 Symmetry 1 a1b001
          Configuration        74 Symmetry 1 aab10b
          Configuration        75 Symmetry 1 a10abb
          Configuration        76 Symmetry 4 1a0b01
          Configuration        77 Symmetry 1 1a001b
          Configuration        78 Symmetry 4 aa10bb
          Configuration        79 Symmetry 4 01ab10
          Configuration        80 Symmetry 4 0110ab
          Configuration        81 Symmetry 4 0a11b0
          Configuration        82 Symmetry 1 01a10b
          Configuration        83 Symmetry 1 ab0110
          Configuration        84 Symmetry 4 a01b10
          Configuration        85 Symmetry 1 ababab
          Configuration        86 Symmetry 1 ab1001
          Configuration        87 Symmetry 1 a0110b
          Configuration        88 Symmetry 1 abaabb
          Configuration        89 Symmetry 4 1001ab
          Configuration        90 Symmetry 4 10ab01
          Configuration        91 Symmetry 1 10a01b
          Configuration        92 Symmetry 1 aabbab
          Configuration        93 Symmetry 4 a10b01
          Configuration        94 Symmetry 1 a1001b
          Configuration        95 Symmetry 1 aababb
          Configuration        96 Symmetry 4 1a00b1
          Configuration        97 Symmetry 1 aaabbb
          Configuration        98 Symmetry 1 010110
          Configuration        99 Symmetry 4 0a1b10
          Configuration       100 Symmetry 1 01abab
          Configuration       101 Symmetry 1 011001
          Configuration       102 Symmetry 1 0a110b
          Configuration       103 Symmetry 1 01aabb
          Configuration       104 Symmetry 1 a0b110
          Configuration       105 Symmetry 4 ab01ab
          Configuration       106 Symmetry 1 a01bab
          Configuration       107 Symmetry 4 abab01
          Configuration       108 Symmetry 1 aba01b
          Configuration       109 Symmetry 1 a01abb
          Configuration       110 Symmetry 1 100101
          Configuration       111 Symmetry 4 100a1b
          Configuration       112 Symmetry 4 10a0b1
          Configuration       113 Symmetry 4 aabb01
          Configuration       114 Symmetry 1 aab01b
          Configuration       115 Symmetry 4 a100b1
          Configuration       116 Symmetry 4 aa01bb
          Configuration       117 Symmetry 1 0ab110
          Configuration       118 Symmetry 4 0101ab
          Configuration       119 Symmetry 1 0a1bab
          Configuration       120 Symmetry 4 01ab01
          Configuration       121 Symmetry 1 01a01b
          Configuration       122 Symmetry 1 0a1abb
          Configuration       123 Symmetry 4 a0b1ab
          Configuration       124 Symmetry 1 ab0101
          Configuration       125 Symmetry 4 ab0a1b
          Configuration       126 Symmetry 4 a01b01
          Configuration       127 Symmetry 1 a0101b
          Configuration       128 Symmetry 4 aba0b1
          Configuration       129 Symmetry 4 a0a1bb
          Configuration       130 Symmetry 1 100ab1
          Configuration       131 Symmetry 4 aab0b1
          Configuration       132 Symmetry 4 aa0b1b
          Configuration       133 Symmetry 1 001110
          Configuration       134 Symmetry 4 0ab1ab
          Configuration       135 Symmetry 1 010101
          Configuration       136 Symmetry 4 010a1b
          Configuration       137 Symmetry 4 0a1b01
          Configuration       138 Symmetry 1 0a101b
          Configuration       139 Symmetry 4 01a0b1
          Configuration       140 Symmetry 4 0aa1bb
          Configuration       141 Symmetry 1 a0b101
          Configuration       142 Symmetry 4 a0ba1b
          Configuration       143 Symmetry 1 ab0ab1
          Configuration       144 Symmetry 4 a010b1
          Configuration       145 Symmetry 4 a0ab1b
          Configuration       146 Symmetry 1 100011
          Configuration       147 Symmetry 1 aa0bb1
          Configuration       148 Symmetry 4 0011ab
          Configuration       149 Symmetry 1 0ab101
          Configuration       150 Symmetry 4 0aba1b
          Configuration       151 Symmetry 1 010ab1
          Configuration       152 Symmetry 4 0a10b1
          Configuration       153 Symmetry 4 0aab1b
          Configuration       154 Symmetry 1 a0bab1
          Configuration       155 Symmetry 1 a0011b
          Configuration       156 Symmetry 1 ab0011
          Configuration       157 Symmetry 1 a0abb1
          Configuration       158 Symmetry 1 001101
          Configuration       159 Symmetry 4 001a1b
          Configuration       160 Symmetry 1 0abab1
          Configuration       161 Symmetry 1 0a011b
          Configuration       162 Symmetry 1 010011
          Configuration       163 Symmetry 1 0aabb1
          Configuration       164 Symmetry 1 a0b011
          Configuration       165 Symmetry 4 a001b1
          Configuration       166 Symmetry 1 001ab1
          Configuration       167 Symmetry 1 00a11b
          Configuration       168 Symmetry 1 0ab011
          Configuration       169 Symmetry 4 0a01b1
          Configuration       170 Symmetry 4 a00b11
          Configuration       171 Symmetry 1 001011
          Configuration       172 Symmetry 4 00a1b1
          Configuration       173 Symmetry 4 0a0b11
          Configuration       174 Symmetry 4 00ab11
          Configuration       175 Symmetry 1 000111
          NO OF BASIS FUNCTIONS =       175 NO TO BE DELETED =    0
 CI Matrix Elements calculated here
          NO. OF CONFIGURATIONS IN REFERENCE SPACE =    1
                                   SECONDARY SPACE =  175
                                   TERTIARY SPACE =  175
          NO. OF ORBITALS =    6
          NO. OF ELECTRONS =    6
          NO. OF WEIGHTS =   19
          REFERENCE STATE CONFIGURATIONS ARE:     0
          NO. OF CORE ORBITALS =    0
          OPTION:  NON-DIAGONAL HOLE LINE INTERACTIONS INCLUDED
 Len28=       94025 LenMCI=       51962.
 Enter MCSCF program.
 NO. OF ORBITALS =  6     NO. OF CORE-ORBITALS =  0
 NO. OF VALENCE-ORBITALS =  6      NO. OF VIRTUAL-ORBITALS =  0
 USED ACCURACY IN CHECKING CONVERGENCE =  1.00D-08
  Memory needed for Incore Integrals:                  262375
  Integrals KEPT IN MEMORY
 IBUJAK length=                     924
 Integral file not found: evaluate integrals 
 FoFCou: FMM=F IPFlag=           0 FMFlag=           0 FMFlg1=           0
         NFxFlg=           0 DoJE=F BraDBF=F KetDBF=F FulRan=T
         wScrn=  0.000000 ICntrl=     600 IOpCl=  0 I1Cent=           0 NGrid=           0
         NMat0=    1 NMatS0=      1 NMatT0=    0 NMatD0=    1 NMtDS0=    0 NMtDT0=    0
 Symmetry not used in FoFCou.
 Defining IBUGAM
 2ND ORD PT ENERGY     CV    0.000000   CU    0.000000   UV    0.000000
 TOTAL                      -1.081165
 ITN=  1 MaxIt= 64 E=     -1.0811649782 DE=-1.08D+00 Acc= 1.00D-08 Lan=  0
 ITN=  2 MaxIt= 64 E=     -1.0811649782 DE=-7.99D-15 Acc= 1.00D-08 Lan=  0
 ... Do an extra-iteration for final printing.
 Final one electron symbolic density matrix:
                1             2             3             4             5 
      1  0.199909D+01
      2  0.188638D-05  0.199244D+01
      3  0.974012D-05  0.387809D-03  0.500850D-04
      4  0.261801D-17  0.418164D-17  0.476243D-15  0.199853D+01
      5 -0.376103D-15  0.161907D-14  0.104718D-15  0.162974D-13  0.757482D-02
      6 -0.383052D-03  0.862879D-05  0.222530D-06 -0.590016D-14 -0.672576D-16
                6 
      6  0.231261D-02
 MCSCF converged.

 **********************************************************************

            Population analysis using the SCF density.

 **********************************************************************

 Orbital symmetries:
       Occupied  (A1) (A1) (A1)
       Virtual   (B2) (B2) (A1)
 The electronic state is 1-A1.
 Alpha  occ. eigenvalues --    0.00000   0.00000   0.00000
 Alpha virt. eigenvalues --    0.00000   0.00000   0.00000
          Condensed to atoms (all electrons):
               1          2          3          4          5          6
     1  H    0.000327   0.000718   0.000718  -0.000000  -0.000000  -0.000000
     2  H    0.000718   0.586237   0.417581  -0.002292   0.015159  -0.015615
     3  H    0.000718   0.417581   0.586237  -0.002292  -0.015615   0.015159
     4  H   -0.000000  -0.002292  -0.002292   1.625196   0.065955   0.065955
     5  H   -0.000000   0.015159  -0.015615   0.065955   3.822547  -2.766975
     6  H   -0.000000  -0.015615   0.015159   0.065955  -2.766975   3.822547
 Mulliken charges:
               1
     1  H    0.998238
     2  H   -0.001788
     3  H   -0.001788
     4  H   -0.752521
     5  H   -0.121071
     6  H   -0.121071
 Sum of Mulliken charges =  -0.00000
 Mulliken charges with hydrogens summed into heavy atoms:
               1
 Electronic spatial extent (au):  <R**2>=             84.1510
 Charge=             -0.0000 electrons
 Dipole moment (field-independent basis, Debye):
    X=              0.0000    Y=             -0.0000    Z=             28.6691  Tot=             28.6691
 Quadrupole moment (field-independent basis, Debye-Ang):
   XX=             -7.3042   YY=            -10.4994   ZZ=             50.0187
   XY=             -0.0000   XZ=             -0.0000   YZ=             -0.0000
 Traceless Quadrupole moment (field-independent basis, Debye-Ang):
   XX=            -18.0425   YY=            -21.2378   ZZ=             39.2803
   XY=             -0.0000   XZ=             -0.0000   YZ=             -0.0000
 Octapole moment (field-independent basis, Debye-Ang**2):
  XXX=              0.0000  YYY=             -0.0000  ZZZ=            362.8102  XYY=              0.0000
  XXY=             -0.0000  XXZ=              6.3752  XZZ=              0.0000  YZZ=             -0.0000
  YYZ=             13.0817  XYZ=              0.0000
 Hexadecapole moment (field-independent basis, Debye-Ang**3):
 XXXX=             -8.6657 YYYY=            -17.9390 ZZZZ=           1009.0845 XXXY=             -0.0000
 XXXZ=             -0.0000 YYYX=             -0.0000 YYYZ=              0.0000 ZZZX=             -0.0000
 ZZZY=              0.0000 XXYY=             -4.3426 XXZZ=            -23.9244 YYZZ=            -38.4095
 XXYZ=             -0.0000 YYXZ=             -0.0000 ZZXY=             -0.0000
 N-N= 6.473501283420D+00 E-N=-1.687595308556D+01  KE= 4.141405323813D+00

 Test job not archived.
 1\1\GINC-SULU\SP\CASSCF\Gen\H6\LCJ1\20-Jan-2017\0\\# casscf(6,6,nroot=
 3,fulldiag)/gen scf(tight,novaracc,noincfock) geom=nocrowd test\\mbs c
 ascf calculation for a triangular configuration of 6 H atoms (made up 
 of 4 iscosceles triangles)\\0,1\H,0,0.,0.,2.995\H,0,0.192771,0.,0.\H,0
 ,-0.192771,0.,0.\H,0,0.,0.,-2.995\H,0,0.385542,0.,-2.995\H,0,-0.385542
 ,0.,-2.995\\Version=ES64L-G09RevE.01\State=1-A1\HF=-1.081165\RMSD=0.00
 0e+00\Dipole=0.,0.,11.2792774\Quadrupole=-15.7897723,-13.4141823,29.20
 39546,0.,0.,0.\PG=C02V [C2(H1H1),SGV(H4)]\\@


     ON THE SURVIVAL OF THE FITTEST -
 "STRONG REPRESENTATIVES FROM EACH PAST ERA THRIVE TODAY,
 SUCH AS PROGRAMMING IN THE THIRTY YEAR OLD LANGUAGE KNOWN
 AS FORTRAN, AND EVEN IN THE ANCIENT SCRIPT KNOWN AS DIRECT
 MACHINE CODE. SOME PEOPLE MIGHT LOOK ON SUCH RELICS AS LIVING
 FOSSILS; OTHERS WOULD POINT OUT THAT EVEN A VERY OLD SPECIES
 MIGHT STILL BE FILLING A PARTICULAR ECOLOGICAL NICHE."
     -- ALAN KAY, SCI.AM. SEPTEMBER 1984
 Job cpu time:       0 days  0 hours  0 minutes  1.4 seconds.
 File lengths (MBytes):  RWF=     82 Int=      0 D2E=      0 Chk=      2 Scr=      2
 Normal termination of Gaussian 09 at Fri Jan 20 02:33:34 2017.
