 Entering Gaussian System, Link 0=g09
 AtFile(1): H.gbs
            H     0
            S   10   1.00
               1000.000000000000            0.000068713567
                316.227766000000            0.000169141320
                100.000000000000            0.000823394812
                 31.622776600000            0.003425569236
                 10.000000000000            0.013951996000
                  3.162277660000            0.056909313560
                  1.000000000000            0.198286399900
                  0.316227766000            0.496922426700
                  0.100000000000            0.369846276400
                  0.031622776600            0.003752720039
            ****
 Initial command:
 /projects/guscus/apps/gau/g09-e1/g09/l1.exe "/users/lcj1/gaussian/h12/rhfstability/cross/d2hguess/fwd/Gau-18738.inp" -scrdir="/users/lcj1/gaussian/h12/rhfstability/cross/d2hguess/fwd/"
 Entering Link 1 = /projects/guscus/apps/gau/g09-e1/g09/l1.exe PID=     18739.
  
 Copyright (c) 1988,1990,1992,1993,1995,1998,2003,2009,2015,
            Gaussian, Inc.  All Rights Reserved.
  
 This is part of the Gaussian(R) 09 program.  It is based on
 the Gaussian(R) 03 system (copyright 2003, Gaussian, Inc.),
 the Gaussian(R) 98 system (copyright 1998, Gaussian, Inc.),
 the Gaussian(R) 94 system (copyright 1995, Gaussian, Inc.),
 the Gaussian 92(TM) system (copyright 1992, Gaussian, Inc.),
 the Gaussian 90(TM) system (copyright 1990, Gaussian, Inc.),
 the Gaussian 88(TM) system (copyright 1988, Gaussian, Inc.),
 the Gaussian 86(TM) system (copyright 1986, Carnegie Mellon
 University), and the Gaussian 82(TM) system (copyright 1983,
 Carnegie Mellon University). Gaussian is a federally registered
 trademark of Gaussian, Inc.
  
 This software contains proprietary and confidential information,
 including trade secrets, belonging to Gaussian, Inc.
  
 This software is provided under written license and may be
 used, copied, transmitted, or stored only in accord with that
 written license.
  
 The following legend is applicable only to US Government
 contracts under FAR:
  
                    RESTRICTED RIGHTS LEGEND
  
 Use, reproduction and disclosure by the US Government is
 subject to restrictions as set forth in subparagraphs (a)
 and (c) of the Commercial Computer Software - Restricted
 Rights clause in FAR 52.227-19.
  
 Gaussian, Inc.
 340 Quinnipiac St., Bldg. 40, Wallingford CT 06492
  
  
 ---------------------------------------------------------------
 Warning -- This program may not be used in any manner that
 competes with the business of Gaussian, Inc. or will provide
 assistance to any competitor of Gaussian, Inc.  The licensee
 of this program is prohibited from giving any competitor of
 Gaussian, Inc. access to this program.  By using this program,
 the user acknowledges that Gaussian, Inc. is engaged in the
 business of creating and licensing software in the field of
 computational chemistry and represents and warrants to the
 licensee that it is not a competitor of Gaussian, Inc. and that
 it will not use this program in any manner prohibited above.
 ---------------------------------------------------------------
  

 Cite this work as:
 Gaussian 09, Revision E.01,
 M. J. Frisch, G. W. Trucks, H. B. Schlegel, G. E. Scuseria, 
 M. A. Robb, J. R. Cheeseman, G. Scalmani, V. Barone, B. Mennucci, 
 G. A. Petersson, H. Nakatsuji, M. Caricato, X. Li, H. P. Hratchian, 
 A. F. Izmaylov, J. Bloino, G. Zheng, J. L. Sonnenberg, M. Hada, 
 M. Ehara, K. Toyota, R. Fukuda, J. Hasegawa, M. Ishida, T. Nakajima, 
 Y. Honda, O. Kitao, H. Nakai, T. Vreven, J. A. Montgomery, Jr., 
 J. E. Peralta, F. Ogliaro, M. Bearpark, J. J. Heyd, E. Brothers, 
 K. N. Kudin, V. N. Staroverov, T. Keith, R. Kobayashi, J. Normand, 
 K. Raghavachari, A. Rendell, J. C. Burant, S. S. Iyengar, J. Tomasi, 
 M. Cossi, N. Rega, J. M. Millam, M. Klene, J. E. Knox, J. B. Cross, 
 V. Bakken, C. Adamo, J. Jaramillo, R. Gomperts, R. E. Stratmann, 
 O. Yazyev, A. J. Austin, R. Cammi, C. Pomelli, J. W. Ochterski, 
 R. L. Martin, K. Morokuma, V. G. Zakrzewski, G. A. Voth, 
 P. Salvador, J. J. Dannenberg, S. Dapprich, A. D. Daniels, 
 O. Farkas, J. B. Foresman, J. V. Ortiz, J. Cioslowski, 
 and D. J. Fox, Gaussian, Inc., Wallingford CT, 2013.
 
 ******************************************
 Gaussian 09:  ES64L-G09RevE.01 30-Nov-2015
                 9-Feb-2017 
 ******************************************
 %chk=h12.chk
 ----------------------------------------------------------------------
 #rhf/gen scf(symm,tight,novaracc,noincfock,fulldiag) stable(crhf) gues
 s=read geom=nocrowd test
 ----------------------------------------------------------------------
 1/38=1/1;
 2/12=1,17=6,18=5,40=1/2;
 3/5=7,16=1,25=1,30=1,116=1/1,2,3;
 4/5=1,9=4/1;
 5/5=100002,15=2,16=1,32=2,38=6/2;
 8/6=1,10=90,11=11/1,4;
 9/8=4,13=1/2;
 6/7=2,8=2,9=2,10=2,28=1/1;
 99/5=1,9=1/99;
 ----------------------------------------------------------------------
 hf stability analysis of h10 triangular lattice, y= 1.0420355127918348
 ----------------------------------------------------------------------
 Symbolic Z-matrix:
 Charge =  0 Multiplicity = 1
 H
 H                    1     1.18018 
 H                    1     1.18018  2     56. 
 H                    2     1.18018  1     124.     3     0.       0
 H                    4     1.18018  2     180.     3     0.       0
 H                    5     1.18018  4     180.     3     0.       0
 H                    3     1.18018  1     180.     4     0.       0
 H                    7     1.18018  3     180.     4     0.       0
 H                    3     1.18018  4     180.     1     0.       0
 H                    7     1.18018  5     180.     3     0.       0
 H                    4     1.18018  3     180.     1     0.       0
 H                    5     1.18018  7     180.     3     0.       0
 
                          Input orientation:                          
 ---------------------------------------------------------------------
 Center     Atomic      Atomic             Coordinates (Angstroms)
 Number     Number       Type             X           Y           Z
 ---------------------------------------------------------------------
      1          1           0        0.000000    0.000000    0.000000
      2          1           0        0.000000    0.000000    1.180178
      3          1           0        0.978412    0.000000    0.659947
      4          1           0        0.978412    0.000000    1.840125
      5          1           0        1.956824    0.000000    2.500073
      6          1           0        2.935236    0.000000    3.160020
      7          1           0        1.956824    0.000000    1.319895
      8          1           0        2.935236    0.000000    1.979842
      9          1           0        0.978412    0.000000   -0.520231
     10          1           0        1.956824    0.000000    0.139716
     11          1           0        0.978412    0.000000    3.020304
     12          1           0        1.956824    0.000000    3.680251
 ---------------------------------------------------------------------
                    Distance matrix (angstroms):
                    1          2          3          4          5
     1  H    0.000000
     2  H    1.180178   0.000000
     3  H    1.180178   1.108120   0.000000
     4  H    2.084071   1.180178   1.180178   0.000000
     5  H    3.174827   2.360356   2.084071   1.180178   0.000000
     6  H    4.312927   3.540535   3.174827   2.360356   1.180178
     7  H    2.360356   1.961806   1.180178   1.108120   1.180178
     8  H    3.540535   3.042215   2.360356   1.961806   1.108120
     9  H    1.108120   1.961806   1.180178   2.360356   3.174827
    10  H    1.961806   2.216240   1.108120   1.961806   2.360356
    11  H    3.174827   2.084071   2.360356   1.180178   1.108120
    12  H    4.168142   3.174827   3.174827   2.084071   1.180178
                    6          7          8          9         10
     6  H    0.000000
     7  H    2.084071   0.000000
     8  H    1.180178   1.180178   0.000000
     9  H    4.168142   2.084071   3.174827   0.000000
    10  H    3.174827   1.180178   2.084071   1.180178   0.000000
    11  H    1.961806   1.961806   2.216240   3.540535   3.042215
    12  H    1.108120   2.360356   1.961806   4.312927   3.540535
                   11         12
    11  H    0.000000
    12  H    1.180178   0.000000
 Stoichiometry    H12
 Framework group  D2H[C2'(H.H),C2"(H.H),SG(H8)]
 Deg. of freedom     6
 Full point group                 D2H     NOp   8
 Largest Abelian subgroup         D2H     NOp   8
 Largest concise Abelian subgroup D2      NOp   4
                         Standard orientation:                         
 ---------------------------------------------------------------------
 Center     Atomic      Atomic             Coordinates (Angstroms)
 Number     Number       Type             X           Y           Z
 ---------------------------------------------------------------------
      1          1           0        0.000000    0.554060    2.084071
      2          1           0        0.000000    1.108120    1.042035
      3          1           0        0.000000    0.000000    1.042035
      4          1           0       -0.000000    0.554060   -0.000000
      5          1           0        0.000000   -0.000000   -1.042035
      6          1           0       -0.000000   -0.554060   -2.084071
      7          1           0       -0.000000   -0.554060    0.000000
      8          1           0       -0.000000   -1.108120   -1.042035
      9          1           0       -0.000000   -0.554060    2.084071
     10          1           0       -0.000000   -1.108120    1.042035
     11          1           0        0.000000    1.108120   -1.042035
     12          1           0        0.000000    0.554060   -2.084071
 ---------------------------------------------------------------------
 Rotational constants (GHZ):     74.2498563     20.9915422     16.3649318
 General basis read from cards:  (5D, 7F)
 There are     4 symmetry adapted cartesian basis functions of AG  symmetry.
 There are     0 symmetry adapted cartesian basis functions of B1G symmetry.
 There are     0 symmetry adapted cartesian basis functions of B2G symmetry.
 There are     2 symmetry adapted cartesian basis functions of B3G symmetry.
 There are     0 symmetry adapted cartesian basis functions of AU  symmetry.
 There are     3 symmetry adapted cartesian basis functions of B1U symmetry.
 There are     3 symmetry adapted cartesian basis functions of B2U symmetry.
 There are     0 symmetry adapted cartesian basis functions of B3U symmetry.
 There are     4 symmetry adapted basis functions of AG  symmetry.
 There are     0 symmetry adapted basis functions of B1G symmetry.
 There are     0 symmetry adapted basis functions of B2G symmetry.
 There are     2 symmetry adapted basis functions of B3G symmetry.
 There are     0 symmetry adapted basis functions of AU  symmetry.
 There are     3 symmetry adapted basis functions of B1U symmetry.
 There are     3 symmetry adapted basis functions of B2U symmetry.
 There are     0 symmetry adapted basis functions of B3U symmetry.
    12 basis functions,   120 primitive gaussians,    12 cartesian basis functions
     6 alpha electrons        6 beta electrons
       nuclear repulsion energy        19.5019142325 Hartrees.
 NAtoms=   12 NActive=   12 NUniq=    4 SFac= 4.00D+00 NAtFMM=   60 NAOKFM=F Big=F
 Integral buffers will be    131072 words long.
 Regular integral format.
 Two-electron integral symmetry is turned on.
 One-electron integrals computed using PRISM.
 NBasis=    12 RedAO= T EigKep=  1.53D-01  NBF=     4     0     0     2     0     3     3     0
 NBsUse=    12 1.00D-06 EigRej= -1.00D+00 NBFU=     4     0     0     2     0     3     3     0
 Initial guess from the checkpoint file:  "h12.chk"
 B after Tr=     0.000000    0.000000   -0.000000
         Rot=    1.000000    0.000000   -0.000000    0.000000 Ang=   0.00 deg.
 Initial guess orbital symmetries:
       Occupied  (AG) (B1U) (B2U) (AG) (B3G) (AG)
       Virtual   (B1U) (B2U) (B1U) (B3G) (AG) (B2U)
 Keep R1 ints in memory in symmetry-blocked form, NReq=903832.
 Requested convergence on RMS density matrix=1.00D-08 within 128 cycles.
 Requested convergence on MAX density matrix=1.00D-06.
 Requested convergence on             energy=1.00D-06.
 No special actions if energy rises.
 SCF Done:  E(RHF) =  -5.51115994456     A.U. after    9 cycles
            NFock=  9  Conv=0.26D-08     -V/T= 1.8395
 Range of M.O.s used for correlation:     1    12
 NBasis=    12 NAE=     6 NBE=     6 NFC=     0 NFV=     0
 NROrb=     12 NOA=     6 NOB=     6 NVA=     6 NVB=     6

 **** Warning!!: The smallest alpha delta epsilon is  0.19092788D-01

 Semi-Direct transformation.
 ModeAB=           4 MOrb=             6 LenV=     134083795
 LASXX=         2181 LTotXX=        2181 LenRXX=        5115
 LTotAB=        2934 MaxLAS=        1800 LenRXY=           0
 NonZer=        7296 LenScr=      655360 LnRSAI=        1800
 LnScr1=      655360 LExtra=           0 Total=      1317635
 MaxDsk=          -1 SrtSym=           T ITran=            3
 JobTyp=0 Pass  1:  I=   1 to   6.
 (rs|ai) integrals will be sorted in core.
 Spin components of T(2) and E(2):
     alpha-alpha T2 =       0.1264609102D-01 E2=     -0.1367949497D-01
     alpha-beta  T2 =       0.7733998059D+00 E2=     -0.1604143853D+00
     beta-beta   T2 =       0.1264609102D-01 E2=     -0.1367949497D-01
 ANorm=    0.1341153231D+01
 E2 =    -0.1877733752D+00 EUMP2 =    -0.56989333197745D+01
 Second order stability test of a single determinant RHF wave function:
 Stabil:  MDV=134217728
 ***********************************************************************
 Matrix         Lowest Root    Major Pairs
 ***********************************************************************
 Internal RHF    -0.204896     6A=7A
 RRHF --> CRHF   -0.2411512    6A=7A
 RRHF --> RUHF   -0.3240741    6A=7B
 Not stable.
 ***********************************************************************

 **********************************************************************

            Population analysis using the SCF density.

 **********************************************************************

 Orbital symmetries:
       Occupied  (AG) (B1U) (B2U) (AG) (B3G) (AG)
       Virtual   (B1U) (B2U) (B1U) (AG) (B3G) (B2U)
 The electronic state is 1-AG.
 Alpha  occ. eigenvalues --   -0.94185  -0.80420  -0.56514  -0.55529  -0.41259
 Alpha  occ. eigenvalues --   -0.07488
 Alpha virt. eigenvalues --   -0.05579   0.12797   0.27853   0.38199   0.38456
 Alpha virt. eigenvalues --    0.63623
          Condensed to atoms (all electrons):
               1          2          3          4          5          6
     1  H    0.657241   0.141482   0.188001  -0.020555   0.003456   0.002814
     2  H    0.141482   1.637587  -0.362742  -0.098377  -0.110986  -0.001413
     3  H    0.188001  -0.362742   0.949748   0.203783   0.096062   0.003456
     4  H   -0.020555  -0.098377   0.203783   0.833238   0.203783  -0.044034
     5  H    0.003456  -0.110986   0.096062   0.203783   0.949748   0.188001
     6  H    0.002814  -0.001413   0.003456  -0.044034   0.188001   0.657241
     7  H   -0.044034  -0.136998   0.203783   0.263428   0.203783  -0.020555
     8  H   -0.001413   0.063874  -0.110986  -0.136998  -0.362742   0.141482
     9  H    0.076819  -0.118310   0.188001  -0.044034   0.003456   0.000822
    10  H   -0.118310   0.070757  -0.362742  -0.136998  -0.110986  -0.017122
    11  H   -0.017122   0.166475  -0.110986  -0.098377  -0.362742  -0.118310
    12  H    0.000822  -0.017122   0.003456  -0.020555   0.188001   0.076819
               7          8          9         10         11         12
     1  H   -0.044034  -0.001413   0.076819  -0.118310  -0.017122   0.000822
     2  H   -0.136998   0.063874  -0.118310   0.070757   0.166475  -0.017122
     3  H    0.203783  -0.110986   0.188001  -0.362742  -0.110986   0.003456
     4  H    0.263428  -0.136998  -0.044034  -0.136998  -0.098377  -0.020555
     5  H    0.203783  -0.362742   0.003456  -0.110986  -0.362742   0.188001
     6  H   -0.020555   0.141482   0.000822  -0.017122  -0.118310   0.076819
     7  H    0.833238  -0.098377  -0.020555  -0.098377  -0.136998  -0.044034
     8  H   -0.098377   1.637587  -0.017122   0.166475   0.070757  -0.118310
     9  H   -0.020555  -0.017122   0.657241   0.141482  -0.001413   0.002814
    10  H   -0.098377   0.166475   0.141482   1.637587   0.063874  -0.001413
    11  H   -0.136998   0.070757  -0.001413   0.063874   1.637587   0.141482
    12  H   -0.044034  -0.118310   0.002814  -0.001413   0.141482   0.657241
 Mulliken charges:
               1
     1  H    0.130798
     2  H   -0.234228
     3  H    0.111165
     4  H    0.095696
     5  H    0.111165
     6  H    0.130798
     7  H    0.095696
     8  H   -0.234228
     9  H    0.130798
    10  H   -0.234228
    11  H   -0.234228
    12  H    0.130798
 Sum of Mulliken charges =   0.00000
 Mulliken charges with hydrogens summed into heavy atoms:
               1
 Electronic spatial extent (au):  <R**2>=            146.1757
 Charge=              0.0000 electrons
 Dipole moment (field-independent basis, Debye):
    X=              0.0000    Y=             -0.0000    Z=              0.0000  Tot=              0.0000
 Quadrupole moment (field-independent basis, Debye-Ang):
   XX=            -15.2415   YY=            -25.4960   ZZ=             -8.6937
   XY=             -0.0000   XZ=             -0.0000   YZ=             -0.0000
 Traceless Quadrupole moment (field-independent basis, Debye-Ang):
   XX=              1.2356   YY=             -9.0190   ZZ=              7.7834
   XY=             -0.0000   XZ=             -0.0000   YZ=             -0.0000
 Octapole moment (field-independent basis, Debye-Ang**2):
  XXX=              0.0000  YYY=              0.0000  ZZZ=              0.0000  XYY=              0.0000
  XXY=             -0.0000  XXZ=              0.0000  XZZ=              0.0000  YZZ=              0.0000
  YYZ=              0.0000  XYZ=              0.0000
 Hexadecapole moment (field-independent basis, Debye-Ang**3):
 XXXX=            -18.1839 YYYY=           -108.9551 ZZZZ=           -148.4178 XXXY=             -0.0000
 XXXZ=              0.0000 YYYX=             -0.0000 YYYZ=              0.0000 ZZZX=              0.0000
 ZZZY=              0.0000 XXYY=            -18.0992 XXZZ=            -36.0318 YYZZ=            -58.0711
 XXYZ=              0.0000 YYXZ=              0.0000 ZZXY=             -0.0000
 N-N= 1.950191423252D+01 E-N=-4.988306688423D+01  KE= 6.564828680866D+00
 Symmetry AG   KE= 3.696937276960D+00
 Symmetry B1G  KE= 0.000000000000D+00
 Symmetry B2G  KE= 0.000000000000D+00
 Symmetry B3G  KE= 1.258573878373D+00
 Symmetry AU   KE= 0.000000000000D+00
 Symmetry B1U  KE= 6.813689649762D-01
 Symmetry B2U  KE= 9.279485605566D-01
 Symmetry B3U  KE= 0.000000000000D+00

 Test job not archived.
 1\1\GINC-SULU\Stability\RHF\Gen\H12\LCJ1\09-Feb-2017\0\\#rhf/gen scf(s
 ymm,tight,novaracc,noincfock,fulldiag) stable(crhf) guess=read geom=no
 crowd test\\hf stability analysis of h10 triangular lattice, y= 1.0420
 355127918348\\0,1\H\H,1,1.1801781946\H,1,1.1801781946,2,56.\H,2,1.1801
 781946,1,124.,3,0.,0\H,4,1.1801781946,2,180.,3,0.,0\H,5,1.1801781946,4
 ,180.,3,0.,0\H,3,1.1801781946,1,180.,4,0.,0\H,7,1.1801781946,3,180.,4,
 0.,0\H,3,1.1801781946,4,180.,1,0.,0\H,7,1.1801781946,5,180.,3,0.,0\H,4
 ,1.1801781946,3,180.,1,0.,0\H,5,1.1801781946,7,180.,3,0.,0\\Version=ES
 64L-G09RevE.01\State=1-AG\HF=-5.5111599\MP2=-5.6989333\RMSD=2.556e-09\
 Dipole=0.,0.,0.\Quadrupole=-3.9520633,0.9186015,3.0334618,0.,5.1782334
 ,0.\PG=D02H [C2'(H1.H1),C2"(H1.H1),SG(H8)]\\@


 IF IT'S NOT TRUE, IT'S WELL INVENTED -- DANTE
 Job cpu time:       0 days  0 hours  0 minutes  0.8 seconds.
 File lengths (MBytes):  RWF=     84 Int=      0 D2E=      0 Chk=      2 Scr=      2
 Normal termination of Gaussian 09 at Thu Feb  9 19:33:12 2017.
