 Entering Gaussian System, Link 0=g09
 AtFile(1): H.gbs
            H     0
            S   10   1.00
               1000.000000000000            0.000068713567
                316.227766000000            0.000169141320
                100.000000000000            0.000823394812
                 31.622776600000            0.003425569236
                 10.000000000000            0.013951996000
                  3.162277660000            0.056909313560
                  1.000000000000            0.198286399900
                  0.316227766000            0.496922426700
                  0.100000000000            0.369846276400
                  0.031622776600            0.003752720039
            ****
 Initial command:
 /projects/guscus/apps/gau/g09-e1/g09/l1.exe "/users/lcj1/gaussian/h10/2rows_uhf/singlet/staboptguess/Gau-6461.inp" -scrdir="/users/lcj1/gaussian/h10/2rows_uhf/singlet/staboptguess/"
 Entering Link 1 = /projects/guscus/apps/gau/g09-e1/g09/l1.exe PID=      6462.
  
 Copyright (c) 1988,1990,1992,1993,1995,1998,2003,2009,2015,
            Gaussian, Inc.  All Rights Reserved.
  
 This is part of the Gaussian(R) 09 program.  It is based on
 the Gaussian(R) 03 system (copyright 2003, Gaussian, Inc.),
 the Gaussian(R) 98 system (copyright 1998, Gaussian, Inc.),
 the Gaussian(R) 94 system (copyright 1995, Gaussian, Inc.),
 the Gaussian 92(TM) system (copyright 1992, Gaussian, Inc.),
 the Gaussian 90(TM) system (copyright 1990, Gaussian, Inc.),
 the Gaussian 88(TM) system (copyright 1988, Gaussian, Inc.),
 the Gaussian 86(TM) system (copyright 1986, Carnegie Mellon
 University), and the Gaussian 82(TM) system (copyright 1983,
 Carnegie Mellon University). Gaussian is a federally registered
 trademark of Gaussian, Inc.
  
 This software contains proprietary and confidential information,
 including trade secrets, belonging to Gaussian, Inc.
  
 This software is provided under written license and may be
 used, copied, transmitted, or stored only in accord with that
 written license.
  
 The following legend is applicable only to US Government
 contracts under FAR:
  
                    RESTRICTED RIGHTS LEGEND
  
 Use, reproduction and disclosure by the US Government is
 subject to restrictions as set forth in subparagraphs (a)
 and (c) of the Commercial Computer Software - Restricted
 Rights clause in FAR 52.227-19.
  
 Gaussian, Inc.
 340 Quinnipiac St., Bldg. 40, Wallingford CT 06492
  
  
 ---------------------------------------------------------------
 Warning -- This program may not be used in any manner that
 competes with the business of Gaussian, Inc. or will provide
 assistance to any competitor of Gaussian, Inc.  The licensee
 of this program is prohibited from giving any competitor of
 Gaussian, Inc. access to this program.  By using this program,
 the user acknowledges that Gaussian, Inc. is engaged in the
 business of creating and licensing software in the field of
 computational chemistry and represents and warrants to the
 licensee that it is not a competitor of Gaussian, Inc. and that
 it will not use this program in any manner prohibited above.
 ---------------------------------------------------------------
  

 Cite this work as:
 Gaussian 09, Revision E.01,
 M. J. Frisch, G. W. Trucks, H. B. Schlegel, G. E. Scuseria, 
 M. A. Robb, J. R. Cheeseman, G. Scalmani, V. Barone, B. Mennucci, 
 G. A. Petersson, H. Nakatsuji, M. Caricato, X. Li, H. P. Hratchian, 
 A. F. Izmaylov, J. Bloino, G. Zheng, J. L. Sonnenberg, M. Hada, 
 M. Ehara, K. Toyota, R. Fukuda, J. Hasegawa, M. Ishida, T. Nakajima, 
 Y. Honda, O. Kitao, H. Nakai, T. Vreven, J. A. Montgomery, Jr., 
 J. E. Peralta, F. Ogliaro, M. Bearpark, J. J. Heyd, E. Brothers, 
 K. N. Kudin, V. N. Staroverov, T. Keith, R. Kobayashi, J. Normand, 
 K. Raghavachari, A. Rendell, J. C. Burant, S. S. Iyengar, J. Tomasi, 
 M. Cossi, N. Rega, J. M. Millam, M. Klene, J. E. Knox, J. B. Cross, 
 V. Bakken, C. Adamo, J. Jaramillo, R. Gomperts, R. E. Stratmann, 
 O. Yazyev, A. J. Austin, R. Cammi, C. Pomelli, J. W. Ochterski, 
 R. L. Martin, K. Morokuma, V. G. Zakrzewski, G. A. Voth, 
 P. Salvador, J. J. Dannenberg, S. Dapprich, A. D. Daniels, 
 O. Farkas, J. B. Foresman, J. V. Ortiz, J. Cioslowski, 
 and D. J. Fox, Gaussian, Inc., Wallingford CT, 2013.
 
 ******************************************
 Gaussian 09:  ES64L-G09RevE.01 30-Nov-2015
                28-Feb-2017 
 ******************************************
 %chk=h10.chk
 ----------------------------------------------------------------------
 #uhf/gen scf(tight,novaracc,noincfock,fulldiag) stable(cuhf) guess=rea
 d geom=nocrowd test
 ----------------------------------------------------------------------
 1/38=1/1;
 2/12=1,17=6,18=5,40=1/2;
 3/5=7,16=1,25=1,30=1,116=2/1,2,3;
 4/5=1/1;
 5/5=100002,16=1,32=2,38=6/2;
 8/6=1,10=90,11=11/1,4;
 9/8=4,13=1/2;
 6/7=2,8=2,9=2,10=2,28=1/1;
 99/5=1,9=1/99;
 ----------------------------------------------------------------------
 hf stability analysis of h10 triangular lattice, y= 0.5453026111479248
 9
 ----------------------------------------------------------------------
 Symbolic Z-matrix:
 Charge =  0 Multiplicity = 1
 H
 H                    1     1.19094 
 H                    1     1.19094  2     125.5 
 H                    2     1.19094  1     54.5     3     0.       0
 H                    3     1.19094  1     180.     2     0.       0
 H                    4     1.19094  2     180.     1     0.       0
 H                    5     1.19094  3     180.     2     0.       0
 H                    6     1.19094  4     180.     1     0.       0
 H                    7     1.19094  5     180.     2     0.       0
 H                    8     1.19094  6     180.     1     0.       0
 
                          Input orientation:                          
 ---------------------------------------------------------------------
 Center     Atomic      Atomic             Coordinates (Angstroms)
 Number     Number       Type             X           Y           Z
 ---------------------------------------------------------------------
      1          1           0        0.000000    0.000000    0.000000
      2          1           0        0.000000    0.000000    1.190945
      3          1           0        0.969567    0.000000   -0.691585
      4          1           0        0.969567    0.000000    0.499360
      5          1           0        1.939133    0.000000   -1.383170
      6          1           0        1.939133    0.000000   -0.192226
      7          1           0        2.908700    0.000000   -2.074756
      8          1           0        2.908700    0.000000   -0.883811
      9          1           0        3.878267    0.000000   -2.766341
     10          1           0        3.878267    0.000000   -1.575396
 ---------------------------------------------------------------------
                    Distance matrix (angstroms):
                    1          2          3          4          5
     1  H    0.000000
     2  H    1.190945   0.000000
     3  H    1.190945   2.117541   0.000000
     4  H    1.090605   1.190945   1.190945   0.000000
     5  H    2.381890   3.222780   1.190945   2.117541   0.000000
     6  H    1.948638   2.381890   1.090605   1.190945   1.190945
     7  H    3.572835   4.373252   2.381890   3.222780   1.190945
     8  H    3.040010   3.572835   1.948638   2.381890   1.090605
     9  H    4.763780   5.540854   3.572835   4.373252   2.381890
    10  H    4.186027   4.763780   3.040010   3.572835   1.948638
                    6          7          8          9         10
     6  H    0.000000
     7  H    2.117541   0.000000
     8  H    1.190945   1.190945   0.000000
     9  H    3.222780   1.190945   2.117541   0.000000
    10  H    2.381890   1.090605   1.190945   1.190945   0.000000
 Stoichiometry    H10
 Framework group  C2H[SGH(H10)]
 Deg. of freedom     9
 Full point group                 C2H     NOp   4
 Largest Abelian subgroup         C2H     NOp   4
 Largest concise Abelian subgroup C2      NOp   2
                         Standard orientation:                         
 ---------------------------------------------------------------------
 Center     Atomic      Atomic             Coordinates (Angstroms)
 Number     Number       Type             X           Y           Z
 ---------------------------------------------------------------------
      1          1           0        1.939133   -0.787698    0.000000
      2          1           0        1.939133   -1.978643    0.000000
      3          1           0        0.969567   -0.096113    0.000000
      4          1           0        0.969567   -1.287058    0.000000
      5          1           0        0.000000    0.595472    0.000000
      6          1           0       -0.000000   -0.595472    0.000000
      7          1           0       -0.969567    1.287058    0.000000
      8          1           0       -0.969567    0.096113    0.000000
      9          1           0       -1.939133    1.978643    0.000000
     10          1           0       -1.939133    0.787698    0.000000
 ---------------------------------------------------------------------
 Rotational constants (GHZ):    223.1394799     16.9035906     15.7132568
 General basis read from cards:  (5D, 7F)
 There are     5 symmetry adapted cartesian basis functions of AG  symmetry.
 There are     0 symmetry adapted cartesian basis functions of BG  symmetry.
 There are     0 symmetry adapted cartesian basis functions of AU  symmetry.
 There are     5 symmetry adapted cartesian basis functions of BU  symmetry.
 There are     5 symmetry adapted basis functions of AG  symmetry.
 There are     0 symmetry adapted basis functions of BG  symmetry.
 There are     0 symmetry adapted basis functions of AU  symmetry.
 There are     5 symmetry adapted basis functions of BU  symmetry.
    10 basis functions,   100 primitive gaussians,    10 cartesian basis functions
     5 alpha electrons        5 beta electrons
       nuclear repulsion energy        12.9837718453 Hartrees.
 NAtoms=   10 NActive=   10 NUniq=    5 SFac= 4.00D+00 NAtFMM=   60 NAOKFM=F Big=F
 Integral buffers will be    131072 words long.
 Regular integral format.
 Two-electron integral symmetry is turned on.
 One-electron integrals computed using PRISM.
 NBasis=    10 RedAO= T EigKep=  1.95D-01  NBF=     5     0     0     5
 NBsUse=    10 1.00D-06 EigRej= -1.00D+00 NBFU=     5     0     0     5
 Initial guess from the checkpoint file:  "h10.chk"
 B after Tr=    -0.000000    0.000000    0.000000
         Rot=    0.990776    0.000000    0.000000   -0.135512 Ang= -15.58 deg.
 Initial guess orbital symmetries:
 Alpha Orbitals:
       Occupied  (BG) (BG) (BG) (BG) (BG)
       Virtual   (BG) (BG) (BG) (BG) (BG)
 Beta  Orbitals:
       Occupied  (BG) (BG) (BG) (BG) (BG)
       Virtual   (BG) (BG) (BG) (BG) (BG)
 Initial guess <Sx>= 0.0000 <Sy>= 0.0000 <Sz>= 0.0000 <S**2>= 1.3073 S= 0.7479
 Keep R1 and R2 ints in memory in symmetry-blocked form, NReq=878739.
 Requested convergence on RMS density matrix=1.00D-08 within 128 cycles.
 Requested convergence on MAX density matrix=1.00D-06.
 Requested convergence on             energy=1.00D-06.
 No special actions if energy rises.
 An orbital has undefined symmetry, so N**3 symmetry is turned off.
 Density matrix breaks symmetry, PCut= 1.00D-04
 Density matrix has no symmetry -- integrals replicated.
 Density matrix breaks symmetry, PCut= 1.00D-07
 Density matrix has no symmetry -- integrals replicated.
 Density matrix breaks symmetry, PCut= 1.00D-07
 Density matrix has no symmetry -- integrals replicated.
 Density matrix breaks symmetry, PCut= 1.00D-07
 Density matrix has no symmetry -- integrals replicated.
 Density matrix breaks symmetry, PCut= 1.00D-07
 Density matrix has no symmetry -- integrals replicated.
 Density matrix breaks symmetry, PCut= 1.00D-07
 Density matrix has no symmetry -- integrals replicated.
 Density matrix breaks symmetry, PCut= 1.00D-07
 Density matrix has no symmetry -- integrals replicated.
 Density matrix breaks symmetry, PCut= 1.00D-07
 Density matrix has no symmetry -- integrals replicated.
 Density matrix breaks symmetry, PCut= 1.00D-07
 Density matrix has no symmetry -- integrals replicated.
 Rare condition: small coef for last iteration:  0.000D+00
 Density matrix breaks symmetry, PCut= 1.00D-07
 Density matrix has no symmetry -- integrals replicated.
 Density matrix breaks symmetry, PCut= 1.00D-07
 Density matrix has no symmetry -- integrals replicated.
 Density matrix breaks symmetry, PCut= 1.00D-07
 Density matrix has no symmetry -- integrals replicated.
 Density matrix breaks symmetry, PCut= 1.00D-07
 Density matrix has no symmetry -- integrals replicated.
 Density matrix breaks symmetry, PCut= 1.00D-07
 Density matrix has no symmetry -- integrals replicated.
 Density matrix breaks symmetry, PCut= 1.00D-07
 Density matrix has no symmetry -- integrals replicated.
 Density matrix breaks symmetry, PCut= 1.00D-07
 Density matrix has no symmetry -- integrals replicated.
 Rare condition: small coef for last iteration:  0.000D+00
 Density matrix breaks symmetry, PCut= 1.00D-07
 Density matrix has no symmetry -- integrals replicated.
 Density matrix breaks symmetry, PCut= 1.00D-07
 Density matrix has no symmetry -- integrals replicated.
 Density matrix breaks symmetry, PCut= 1.00D-07
 Density matrix has no symmetry -- integrals replicated.
 Density matrix breaks symmetry, PCut= 1.00D-07
 Density matrix has no symmetry -- integrals replicated.
 Density matrix breaks symmetry, PCut= 1.00D-07
 Density matrix has no symmetry -- integrals replicated.
 Rare condition: small coef for last iteration:  0.000D+00
 Density matrix breaks symmetry, PCut= 1.00D-07
 Density matrix has no symmetry -- integrals replicated.
 Density matrix breaks symmetry, PCut= 1.00D-07
 Density matrix has no symmetry -- integrals replicated.
 Rare condition: small coef for last iteration:  0.000D+00
 Density matrix breaks symmetry, PCut= 1.00D-07
 Density matrix has no symmetry -- integrals replicated.
 Density matrix breaks symmetry, PCut= 1.00D-07
 Density matrix has no symmetry -- integrals replicated.
 Density matrix breaks symmetry, PCut= 1.00D-07
 Density matrix has no symmetry -- integrals replicated.
 Density matrix breaks symmetry, PCut= 1.00D-07
 Density matrix has no symmetry -- integrals replicated.
 Density matrix breaks symmetry, PCut= 1.00D-07
 Density matrix has no symmetry -- integrals replicated.
 Density matrix breaks symmetry, PCut= 1.00D-07
 Density matrix has no symmetry -- integrals replicated.
 Density matrix breaks symmetry, PCut= 1.00D-07
 Density matrix has no symmetry -- integrals replicated.
 Density matrix breaks symmetry, PCut= 1.00D-07
 Density matrix has no symmetry -- integrals replicated.
 Density matrix breaks symmetry, PCut= 1.00D-07
 Density matrix has no symmetry -- integrals replicated.
 Density matrix breaks symmetry, PCut= 1.00D-07
 Density matrix has no symmetry -- integrals replicated.
 Density matrix breaks symmetry, PCut= 1.00D-07
 Density matrix has no symmetry -- integrals replicated.
 Density matrix breaks symmetry, PCut= 1.00D-07
 Density matrix has no symmetry -- integrals replicated.
 Density matrix breaks symmetry, PCut= 1.00D-07
 Density matrix has no symmetry -- integrals replicated.
 Density matrix breaks symmetry, PCut= 1.00D-07
 Density matrix has no symmetry -- integrals replicated.
 Density matrix breaks symmetry, PCut= 1.00D-07
 Density matrix has no symmetry -- integrals replicated.
 SCF Done:  E(UHF) =  -4.88058671009     A.U. after   37 cycles
            NFock= 37  Conv=0.40D-08     -V/T= 1.9492
 <Sx>= 0.0000 <Sy>= 0.0000 <Sz>= 0.0000 <S**2>= 0.9238 S= 0.5834
 <L.S>= 0.000000000000E+00
 Annihilation of the first spin contaminant:
 S**2 before annihilation     0.9238,   after     0.9700
 Range of M.O.s used for correlation:     1    10
 NBasis=    10 NAE=     5 NBE=     5 NFC=     0 NFV=     0
 NROrb=     10 NOA=     5 NOB=     5 NVA=     5 NVB=     5
 Semi-Direct transformation.
 ModeAB=           2 MOrb=             5 LenV=     134107893
 LASXX=         1030 LTotXX=        1030 LenRXX=        1030
 LTotAB=        1825 MaxLAS=        2750 LenRXY=        2750
 NonZer=        2750 LenScr=      655360 LnRSAI=           0
 LnScr1=           0 LExtra=           0 Total=       659140
 MaxDsk=          -1 SrtSym=           F ITran=            3
 JobTyp=1 Pass  1:  I=   1 to   5.
 (rs|ai) integrals will be sorted in core.
 ModeAB=           2 MOrb=             5 LenV=     134107893
 LASXX=         1030 LTotXX=        1030 LenRXX=        2750
 LTotAB=         225 MaxLAS=        2750 LenRXY=         225
 NonZer=        2750 LenScr=      655360 LnRSAI=           0
 LnScr1=           0 LExtra=           0 Total=       658335
 MaxDsk=          -1 SrtSym=           F ITran=            3
 JobTyp=2 Pass  1:  I=   1 to   5.
 (rs|ai) integrals will be sorted in core.
 SymMOI:  orbitals are not symmetric.
 Spin components of T(2) and E(2):
     alpha-alpha T2 =       0.4087652709D-02 E2=     -0.5424735300D-02
     alpha-beta  T2 =       0.4610010405D-01 E2=     -0.6681190074D-01
     beta-beta   T2 =       0.4087652704D-02 E2=     -0.5424735295D-02
 ANorm=    0.1026779143D+01
 E2 =    -0.7766137133D-01 EUMP2 =    -0.49582480814200D+01
 (S**2,0)=  0.92379D+00           (S**2,1)=  0.83501D+00
 E(PUHF)=      -0.49292044879D+01        E(PMP2)=      -0.50054247628D+01
 Second order stability test of a single determinant UHF wave function:
 Stabil:  MDV=134217728
 ***********************************************************************
 Matrix         Lowest Root    Major Pairs
 ***********************************************************************
 Internal UHF     0.0381134    Stable
 RUHF --> CUHF (A)0.121622     Stable
 RUHF --> CUHF (B)0.121622     Stable
 RUHF --> GHF     0.           Zero root
 Stable under the perturbations considered.
 ***********************************************************************

 **********************************************************************

            Population analysis using the SCF density.

 **********************************************************************

 Orbital symmetries:
 Alpha Orbitals:
       Occupied  (BG) (BG) (BG) (BG) (BG)
       Virtual   (BG) (BG) (BG) (BG) (BG)
 Beta  Orbitals:
       Occupied  (BG) (BG) (BG) (BG) (BG)
       Virtual   (BG) (BG) (BG) (BG) (BG)
 Unable to determine electronic state:  partially filled degenerate orbitals.
 Alpha  occ. eigenvalues --   -0.84862  -0.72615  -0.56188  -0.34618  -0.33365
 Alpha virt. eigenvalues --    0.05671   0.18415   0.26405   0.48183   0.57637
  Beta  occ. eigenvalues --   -0.84862  -0.72615  -0.56188  -0.34618  -0.33365
  Beta virt. eigenvalues --    0.05671   0.18415   0.26405   0.48183   0.57637
          Condensed to atoms (all electrons):
               1          2          3          4          5          6
     1  H    0.791081   0.154484   0.119009  -0.045155   0.013369  -0.131378
     2  H    0.154484   0.977589  -0.134910   0.091563   0.002046  -0.044582
     3  H    0.119009  -0.134910   1.250351  -0.078212   0.101422   0.061559
     4  H   -0.045155   0.091563  -0.078212   0.810742  -0.091066   0.253327
     5  H    0.013369   0.002046   0.101422  -0.091066   0.936050  -0.133045
     6  H   -0.131378  -0.044582   0.061559   0.253327  -0.133045   0.936050
     7  H    0.004663   0.001346  -0.010829  -0.008466   0.253327  -0.091066
     8  H   -0.005580   0.010271  -0.166523  -0.010829   0.061559   0.101422
     9  H   -0.000258  -0.000277   0.010271   0.001346  -0.044582   0.002046
    10  H    0.000317  -0.000258  -0.005580   0.004663  -0.131378   0.013369
               7          8          9         10
     1  H    0.004663  -0.005580  -0.000258   0.000317
     2  H    0.001346   0.010271  -0.000277  -0.000258
     3  H   -0.010829  -0.166523   0.010271  -0.005580
     4  H   -0.008466  -0.010829   0.001346   0.004663
     5  H    0.253327   0.061559  -0.044582  -0.131378
     6  H   -0.091066   0.101422   0.002046   0.013369
     7  H    0.810742  -0.078212   0.091563  -0.045155
     8  H   -0.078212   1.250351  -0.134910   0.119009
     9  H    0.091563  -0.134910   0.977589   0.154484
    10  H   -0.045155   0.119009   0.154484   0.791081
          Atomic-Atomic Spin Densities.
               1          2          3          4          5          6
     1  H    0.592096   0.026837   0.046726  -0.167038   0.023490  -0.111017
     2  H    0.026837  -0.550169   0.023150   0.067046  -0.008553   0.012505
     3  H    0.046726   0.023150   0.250347  -0.251199   0.149405  -0.092002
     4  H   -0.167038   0.067046  -0.251199   0.453413  -0.028614   0.174246
     5  H    0.023490  -0.008553   0.149405  -0.028614  -0.357606  -0.000000
     6  H   -0.111017   0.012505  -0.092002   0.174246  -0.000000   0.357606
     7  H    0.001998  -0.000398  -0.009096  -0.000000  -0.174246   0.028614
     8  H    0.008021  -0.000917  -0.000000   0.009096   0.092002  -0.149405
     9  H   -0.000678  -0.000000   0.000917   0.000398  -0.012505   0.008553
    10  H   -0.000000   0.000678  -0.008021  -0.001998   0.111017  -0.023490
               7          8          9         10
     1  H    0.001998   0.008021  -0.000678  -0.000000
     2  H   -0.000398  -0.000917  -0.000000   0.000678
     3  H   -0.009096  -0.000000   0.000917  -0.008021
     4  H   -0.000000   0.009096   0.000398  -0.001998
     5  H   -0.174246   0.092002  -0.012505   0.111017
     6  H    0.028614  -0.149405   0.008553  -0.023490
     7  H   -0.453413   0.251199  -0.067046   0.167038
     8  H    0.251199  -0.250347  -0.023150  -0.046726
     9  H   -0.067046  -0.023150   0.550169  -0.026837
    10  H    0.167038  -0.046726  -0.026837  -0.592096
 Mulliken charges and spin densities:
               1          2
     1  H    0.099447   0.420434
     2  H   -0.057273  -0.429821
     3  H   -0.146558   0.110226
     4  H    0.072086   0.255349
     5  H    0.032297  -0.205609
     6  H    0.032297   0.205609
     7  H    0.072086  -0.255349
     8  H   -0.146558  -0.110226
     9  H   -0.057273   0.429821
    10  H    0.099447  -0.420434
 Sum of Mulliken charges =  -0.00000   0.00000
 Mulliken charges and spin densities with hydrogens summed into heavy atoms:
               1          2
 Electronic spatial extent (au):  <R**2>=            145.5992
 Charge=             -0.0000 electrons
 Dipole moment (field-independent basis, Debye):
    X=              0.0000    Y=             -0.0000    Z=              0.0000  Tot=              0.0000
 Quadrupole moment (field-independent basis, Debye-Ang):
   XX=            -14.2216   YY=            -15.3711   ZZ=            -12.9591
   XY=              0.5264   XZ=              0.0000   YZ=             -0.0000
 Traceless Quadrupole moment (field-independent basis, Debye-Ang):
   XX=             -0.0377   YY=             -1.1872   ZZ=              1.2248
   XY=              0.5264   XZ=              0.0000   YZ=             -0.0000
 Octapole moment (field-independent basis, Debye-Ang**2):
  XXX=              0.0000  YYY=             -0.0000  ZZZ=             -0.0000  XYY=             -0.0000
  XXY=              0.0000  XXZ=             -0.0000  XZZ=              0.0000  YZZ=             -0.0000
  YYZ=             -0.0000  XYZ=              0.0000
 Hexadecapole moment (field-independent basis, Debye-Ang**3):
 XXXX=           -176.9085 YYYY=           -136.7331 ZZZZ=            -15.6677 XXXY=             63.7180
 XXXZ=              0.0000 YYYX=             64.5906 YYYZ=             -0.0000 ZZZX=              0.0000
 ZZZY=             -0.0000 XXYY=            -59.6383 XXZZ=            -30.8696 YYZZ=            -23.6656
 XXYZ=             -0.0000 YYXZ=              0.0000 ZZXY=             18.1102
 N-N= 1.298377184526D+01 E-N=-3.523754447365D+01  KE= 5.141769454603D+00
 Symmetry AG   KE= 1.940396049634D+00
 Symmetry BG   KE= 0.000000000000D+00
 Symmetry AU   KE= 0.000000000000D+00
 Symmetry BU   KE= 3.201373404969D+00
                          Isotropic Fermi Contact Couplings
        Atom                 a.u.       MegaHertz       Gauss      10(-4) cm-1
     1  H(1)               0.16433     367.26901     131.05071     122.50776
     2  H(1)              -0.15689    -350.63883    -125.11665    -116.96052
     3  H(1)               0.06008     134.26476      47.90900      44.78590
     4  H(1)               0.11643     260.20838      92.84882      86.79617
     5  H(1)              -0.09583    -214.18368     -76.42606     -71.44398
     6  H(1)               0.09583     214.18368      76.42606      71.44398
     7  H(1)              -0.11643    -260.20838     -92.84882     -86.79617
     8  H(1)              -0.06008    -134.26476     -47.90900     -44.78590
     9  H(1)               0.15689     350.63883     125.11665     116.96052
    10  H(1)              -0.16433    -367.26901    -131.05071    -122.50776
 --------------------------------------------------------
       Center         ----  Spin Dipole Couplings  ----
                      3XX-RR        3YY-RR        3ZZ-RR
 --------------------------------------------------------
     1   Atom        0.023652     -0.034330      0.010677
     2   Atom        0.002971      0.044311     -0.047282
     3   Atom        0.035010     -0.008051     -0.026959
     4   Atom        0.049197     -0.038245     -0.010952
     5   Atom        0.009565     -0.003688     -0.005877
     6   Atom       -0.009565      0.003688      0.005877
     7   Atom       -0.049197      0.038245      0.010952
     8   Atom       -0.035010      0.008051      0.026959
     9   Atom       -0.002971     -0.044311      0.047282
    10   Atom       -0.023652      0.034330     -0.010677
 --------------------------------------------------------
                        XY            XZ            YZ
 --------------------------------------------------------
     1   Atom        0.012016      0.000000     -0.000000
     2   Atom       -0.018813      0.000000     -0.000000
     3   Atom        0.013262      0.000000     -0.000000
     4   Atom        0.038054      0.000000     -0.000000
     5   Atom       -0.007671      0.000000     -0.000000
     6   Atom        0.007671      0.000000     -0.000000
     7   Atom       -0.038054      0.000000      0.000000
     8   Atom       -0.013262      0.000000     -0.000000
     9   Atom        0.018813      0.000000     -0.000000
    10   Atom       -0.012016     -0.000000     -0.000000
 --------------------------------------------------------


 ---------------------------------------------------------------------------------
              Anisotropic Spin Dipole Couplings in Principal Axis System
 ---------------------------------------------------------------------------------

       Atom             a.u.   MegaHertz   Gauss  10(-4) cm-1        Axes

              Baa    -0.0367   -19.593    -6.991    -6.535 -0.1952  0.9808  0.0000
     1 H(1)   Bbb     0.0107     5.697     2.033     1.900  0.0000  0.0000  1.0000
              Bcc     0.0260    13.896     4.958     4.635  0.9808  0.1952  0.0000
 
              Baa    -0.0473   -25.228    -9.002    -8.415  0.0000  0.0000  1.0000
     2 H(1)   Bbb    -0.0043    -2.299    -0.820    -0.767  0.9326  0.3609  0.0000
              Bcc     0.0516    27.526     9.822     9.182 -0.3609  0.9326  0.0000
 
              Baa    -0.0270   -14.384    -5.133    -4.798  0.0000  0.0000  1.0000
     3 H(1)   Bbb    -0.0118    -6.300    -2.248    -2.101 -0.2725  0.9621  0.0000
              Bcc     0.0388    20.684     7.381     6.899  0.9621  0.2725  0.0000
 
              Baa    -0.0525   -28.004    -9.993    -9.341 -0.3505  0.9366  0.0000
     4 H(1)   Bbb    -0.0110    -5.844    -2.085    -1.949  0.0000  0.0000  1.0000
              Bcc     0.0634    33.848    12.078    11.290  0.9366  0.3505  0.0000
 
              Baa    -0.0072    -3.840    -1.370    -1.281  0.4161  0.9093  0.0000
     5 H(1)   Bbb    -0.0059    -3.136    -1.119    -1.046  0.0000  0.0000  1.0000
              Bcc     0.0131     6.976     2.489     2.327  0.9093 -0.4161  0.0000
 
              Baa    -0.0131    -6.976    -2.489    -2.327  0.9093 -0.4161  0.0000
     6 H(1)   Bbb     0.0059     3.136     1.119     1.046  0.0000  0.0000  1.0000
              Bcc     0.0072     3.840     1.370     1.281  0.4161  0.9093  0.0000
 
              Baa    -0.0634   -33.848   -12.078   -11.290  0.9366  0.3505  0.0000
     7 H(1)   Bbb     0.0110     5.844     2.085     1.949  0.0000  0.0000  1.0000
              Bcc     0.0525    28.004     9.993     9.341 -0.3505  0.9366  0.0000
 
              Baa    -0.0388   -20.684    -7.381    -6.899  0.9621  0.2725  0.0000
     8 H(1)   Bbb     0.0118     6.300     2.248     2.101 -0.2725  0.9621  0.0000
              Bcc     0.0270    14.384     5.133     4.798  0.0000  0.0000  1.0000
 
              Baa    -0.0516   -27.526    -9.822    -9.182 -0.3609  0.9326  0.0000
     9 H(1)   Bbb     0.0043     2.299     0.820     0.767  0.9326  0.3609  0.0000
              Bcc     0.0473    25.228     9.002     8.415  0.0000  0.0000  1.0000
 
              Baa    -0.0260   -13.896    -4.958    -4.635  0.9808  0.1952  0.0000
    10 H(1)   Bbb    -0.0107    -5.697    -2.033    -1.900  0.0000  0.0000  1.0000
              Bcc     0.0367    19.593     6.991     6.535 -0.1952  0.9808 -0.0000
 

 ---------------------------------------------------------------------------------


 Test job not archived.
 1\1\GINC-SULU\Stability\UHF\Gen\H10\LCJ1\28-Feb-2017\0\\#uhf/gen scf(t
 ight,novaracc,noincfock,fulldiag) stable(cuhf) guess=read geom=nocrowd
  test\\hf stability analysis of h10 triangular lattice, y= 0.545302611
 14792489\\0,1\H\H,1,1.1909448849\H,1,1.1909448849,2,125.5\H,2,1.190944
 8849,1,54.5,3,0.,0\H,3,1.1909448849,1,180.,2,0.,0\H,4,1.1909448849,2,1
 80.,1,0.,0\H,5,1.1909448849,3,180.,2,0.,0\H,6,1.1909448849,4,180.,1,0.
 ,0\H,7,1.1909448849,5,180.,2,0.,0\H,8,1.1909448849,6,180.,1,0.,0\\Vers
 ion=ES64L-G09RevE.01\HF=-4.8805867\MP2=-4.9582481\PUHF=-4.9292045\PMP2
 -0=-5.0054248\S2=0.923791\S2-1=0.835008\S2A=0.970035\RMSD=4.001e-09\Di
 pole=0.,0.,0.\Quadrupole=-0.0280005,0.9106344,-0.8826339,0.,0.3913356,
 0.\PG=C02H [SGH(H10)]\\@


 SUCCESS IS COUNTED SWEETEST
 BY THOSE WHO NE'ER SUCCEED.
 TO COMPREHEND NECTAR
 REQUIRES SOREST NEED.
           EMILY DICKINSON
 Job cpu time:       0 days  0 hours  0 minutes  1.3 seconds.
 File lengths (MBytes):  RWF=     94 Int=      0 D2E=      0 Chk=      2 Scr=      2
 Normal termination of Gaussian 09 at Tue Feb 28 18:11:23 2017.
