 Entering Gaussian System, Link 0=g09
 AtFile(1): H.gbs
            H     0
            S   10   1.00
               1000.000000000000            0.000068713567
                316.227766000000            0.000169141320
                100.000000000000            0.000823394812
                 31.622776600000            0.003425569236
                 10.000000000000            0.013951996000
                  3.162277660000            0.056909313560
                  1.000000000000            0.198286399900
                  0.316227766000            0.496922426700
                  0.100000000000            0.369846276400
                  0.031622776600            0.003752720039
            ****
 Initial command:
 /projects/guscus/apps/gau/g09-e1/g09/l1.exe "/users/lcj1/gaussian/h10/2rows_uhf/singlet/staboptguess/Gau-16147.inp" -scrdir="/users/lcj1/gaussian/h10/2rows_uhf/singlet/staboptguess/"
 Entering Link 1 = /projects/guscus/apps/gau/g09-e1/g09/l1.exe PID=     16148.
  
 Copyright (c) 1988,1990,1992,1993,1995,1998,2003,2009,2015,
            Gaussian, Inc.  All Rights Reserved.
  
 This is part of the Gaussian(R) 09 program.  It is based on
 the Gaussian(R) 03 system (copyright 2003, Gaussian, Inc.),
 the Gaussian(R) 98 system (copyright 1998, Gaussian, Inc.),
 the Gaussian(R) 94 system (copyright 1995, Gaussian, Inc.),
 the Gaussian 92(TM) system (copyright 1992, Gaussian, Inc.),
 the Gaussian 90(TM) system (copyright 1990, Gaussian, Inc.),
 the Gaussian 88(TM) system (copyright 1988, Gaussian, Inc.),
 the Gaussian 86(TM) system (copyright 1986, Carnegie Mellon
 University), and the Gaussian 82(TM) system (copyright 1983,
 Carnegie Mellon University). Gaussian is a federally registered
 trademark of Gaussian, Inc.
  
 This software contains proprietary and confidential information,
 including trade secrets, belonging to Gaussian, Inc.
  
 This software is provided under written license and may be
 used, copied, transmitted, or stored only in accord with that
 written license.
  
 The following legend is applicable only to US Government
 contracts under FAR:
  
                    RESTRICTED RIGHTS LEGEND
  
 Use, reproduction and disclosure by the US Government is
 subject to restrictions as set forth in subparagraphs (a)
 and (c) of the Commercial Computer Software - Restricted
 Rights clause in FAR 52.227-19.
  
 Gaussian, Inc.
 340 Quinnipiac St., Bldg. 40, Wallingford CT 06492
  
  
 ---------------------------------------------------------------
 Warning -- This program may not be used in any manner that
 competes with the business of Gaussian, Inc. or will provide
 assistance to any competitor of Gaussian, Inc.  The licensee
 of this program is prohibited from giving any competitor of
 Gaussian, Inc. access to this program.  By using this program,
 the user acknowledges that Gaussian, Inc. is engaged in the
 business of creating and licensing software in the field of
 computational chemistry and represents and warrants to the
 licensee that it is not a competitor of Gaussian, Inc. and that
 it will not use this program in any manner prohibited above.
 ---------------------------------------------------------------
  

 Cite this work as:
 Gaussian 09, Revision E.01,
 M. J. Frisch, G. W. Trucks, H. B. Schlegel, G. E. Scuseria, 
 M. A. Robb, J. R. Cheeseman, G. Scalmani, V. Barone, B. Mennucci, 
 G. A. Petersson, H. Nakatsuji, M. Caricato, X. Li, H. P. Hratchian, 
 A. F. Izmaylov, J. Bloino, G. Zheng, J. L. Sonnenberg, M. Hada, 
 M. Ehara, K. Toyota, R. Fukuda, J. Hasegawa, M. Ishida, T. Nakajima, 
 Y. Honda, O. Kitao, H. Nakai, T. Vreven, J. A. Montgomery, Jr., 
 J. E. Peralta, F. Ogliaro, M. Bearpark, J. J. Heyd, E. Brothers, 
 K. N. Kudin, V. N. Staroverov, T. Keith, R. Kobayashi, J. Normand, 
 K. Raghavachari, A. Rendell, J. C. Burant, S. S. Iyengar, J. Tomasi, 
 M. Cossi, N. Rega, J. M. Millam, M. Klene, J. E. Knox, J. B. Cross, 
 V. Bakken, C. Adamo, J. Jaramillo, R. Gomperts, R. E. Stratmann, 
 O. Yazyev, A. J. Austin, R. Cammi, C. Pomelli, J. W. Ochterski, 
 R. L. Martin, K. Morokuma, V. G. Zakrzewski, G. A. Voth, 
 P. Salvador, J. J. Dannenberg, S. Dapprich, A. D. Daniels, 
 O. Farkas, J. B. Foresman, J. V. Ortiz, J. Cioslowski, 
 and D. J. Fox, Gaussian, Inc., Wallingford CT, 2013.
 
 ******************************************
 Gaussian 09:  ES64L-G09RevE.01 30-Nov-2015
                28-Feb-2017 
 ******************************************
 %chk=h10.chk
 ----------------------------------------------------------------------
 #uhf/gen scf(tight,novaracc,noincfock,fulldiag) stable(cuhf) guess=rea
 d geom=nocrowd test
 ----------------------------------------------------------------------
 1/38=1/1;
 2/12=1,17=6,18=5,40=1/2;
 3/5=7,16=1,25=1,30=1,116=2/1,2,3;
 4/5=1/1;
 5/5=100002,16=1,32=2,38=6/2;
 8/6=1,10=90,11=11/1,4;
 9/8=4,13=1/2;
 6/7=2,8=2,9=2,10=2,28=1/1;
 99/5=1,9=1/99;
 ----------------------------------------------------------------------
 hf stability analysis of h10 triangular lattice, y= 1.2509902265939778
 ----------------------------------------------------------------------
 Symbolic Z-matrix:
 Charge =  0 Multiplicity = 1
 H
 H                    1     1.33341 
 H                    1     1.33341  2     40.5 
 H                    2     1.33341  1     139.5    3     0.       0
 H                    3     1.33341  1     180.     2     0.       0
 H                    4     1.33341  2     180.     1     0.       0
 H                    5     1.33341  3     180.     2     0.       0
 H                    6     1.33341  4     180.     1     0.       0
 H                    7     1.33341  5     180.     2     0.       0
 H                    8     1.33341  6     180.     1     0.       0
 
                          Input orientation:                          
 ---------------------------------------------------------------------
 Center     Atomic      Atomic             Coordinates (Angstroms)
 Number     Number       Type             X           Y           Z
 ---------------------------------------------------------------------
      1          1           0        0.000000    0.000000    0.000000
      2          1           0        0.000000    0.000000    1.333406
      3          1           0        0.865978    0.000000    1.013930
      4          1           0        0.865978    0.000000    2.347336
      5          1           0        1.731956    0.000000    2.027860
      6          1           0        1.731956    0.000000    3.361266
      7          1           0        2.597934    0.000000    3.041790
      8          1           0        2.597934    0.000000    4.375197
      9          1           0        3.463912    0.000000    4.055720
     10          1           0        3.463912    0.000000    5.389127
 ---------------------------------------------------------------------
                    Distance matrix (angstroms):
                    1          2          3          4          5
     1  H    0.000000
     2  H    1.333406   0.000000
     3  H    1.333406   0.923029   0.000000
     4  H    2.501980   1.333406   1.333406   0.000000
     5  H    2.666813   1.865995   1.333406   0.923029   0.000000
     6  H    3.781241   2.666813   2.501980   1.333406   1.333406
     7  H    4.000219   3.109315   2.666813   1.865995   1.333406
     8  H    5.088380   4.000219   3.781241   2.666813   2.501980
     9  H    5.333625   4.405642   4.000219   3.109315   2.666813
    10  H    6.406354   5.333625   5.088380   4.000219   3.781241
                    6          7          8          9         10
     6  H    0.000000
     7  H    0.923029   0.000000
     8  H    1.333406   1.333406   0.000000
     9  H    1.865995   1.333406   0.923029   0.000000
    10  H    2.666813   2.501980   1.333406   1.333406   0.000000
 Stoichiometry    H10
 Framework group  C2H[SGH(H10)]
 Deg. of freedom     9
 Full point group                 C2H     NOp   4
 Largest Abelian subgroup         C2H     NOp   4
 Largest concise Abelian subgroup C2      NOp   2
                         Standard orientation:                         
 ---------------------------------------------------------------------
 Center     Atomic      Atomic             Coordinates (Angstroms)
 Number     Number       Type             X           Y           Z
 ---------------------------------------------------------------------
      1          1           0        1.731956    2.694563    0.000000
      2          1           0        1.731956    1.361157    0.000000
      3          1           0        0.865978    1.680633    0.000000
      4          1           0        0.865978    0.347227    0.000000
      5          1           0        0.000000    0.666703    0.000000
      6          1           0       -0.000000   -0.666703    0.000000
      7          1           0       -0.865978   -0.347227    0.000000
      8          1           0       -0.865978   -1.680633    0.000000
      9          1           0       -1.731956   -1.361157    0.000000
     10          1           0       -1.731956   -2.694563    0.000000
 ---------------------------------------------------------------------
 Rotational constants (GHZ):    287.8001065     13.1058244     12.5350061
 General basis read from cards:  (5D, 7F)
 There are     5 symmetry adapted cartesian basis functions of AG  symmetry.
 There are     0 symmetry adapted cartesian basis functions of BG  symmetry.
 There are     0 symmetry adapted cartesian basis functions of AU  symmetry.
 There are     5 symmetry adapted cartesian basis functions of BU  symmetry.
 There are     5 symmetry adapted basis functions of AG  symmetry.
 There are     0 symmetry adapted basis functions of BG  symmetry.
 There are     0 symmetry adapted basis functions of AU  symmetry.
 There are     5 symmetry adapted basis functions of BU  symmetry.
    10 basis functions,   100 primitive gaussians,    10 cartesian basis functions
     5 alpha electrons        5 beta electrons
       nuclear repulsion energy        12.2382960229 Hartrees.
 NAtoms=   10 NActive=   10 NUniq=    5 SFac= 4.00D+00 NAtFMM=   60 NAOKFM=F Big=F
 Integral buffers will be    131072 words long.
 Regular integral format.
 Two-electron integral symmetry is turned on.
 One-electron integrals computed using PRISM.
 NBasis=    10 RedAO= T EigKep=  1.86D-01  NBF=     5     0     0     5
 NBsUse=    10 1.00D-06 EigRej= -1.00D+00 NBFU=     5     0     0     5
 Initial guess from the checkpoint file:  "h10.chk"
 B after Tr=    -0.000000   -0.000000   -0.000000
         Rot=   -0.673331    0.000000   -0.000000    0.739341 Ang= 264.65 deg.
 Initial guess orbital symmetries:
 Alpha Orbitals:
       Occupied  (BG) (BG) (BG) (BG) (BG)
       Virtual   (BG) (BG) (BG) (BG) (BG)
 Beta  Orbitals:
       Occupied  (BG) (BG) (BG) (BG) (BG)
       Virtual   (BG) (BG) (BG) (BG) (BG)
 Initial guess <Sx>= 0.0000 <Sy>= 0.0000 <Sz>= 0.0000 <S**2>= 1.6677 S= 0.8848
 Keep R1 and R2 ints in memory in symmetry-blocked form, NReq=876863.
 Requested convergence on RMS density matrix=1.00D-08 within 128 cycles.
 Requested convergence on MAX density matrix=1.00D-06.
 Requested convergence on             energy=1.00D-06.
 No special actions if energy rises.
 An orbital has undefined symmetry, so N**3 symmetry is turned off.
 Density matrix breaks symmetry, PCut= 1.00D-04
 Density matrix has no symmetry -- integrals replicated.
 Density matrix breaks symmetry, PCut= 1.00D-07
 Density matrix has no symmetry -- integrals replicated.
 Density matrix breaks symmetry, PCut= 1.00D-07
 Density matrix has no symmetry -- integrals replicated.
 Density matrix breaks symmetry, PCut= 1.00D-07
 Density matrix has no symmetry -- integrals replicated.
 Density matrix breaks symmetry, PCut= 1.00D-07
 Density matrix has no symmetry -- integrals replicated.
 Density matrix breaks symmetry, PCut= 1.00D-07
 Density matrix has no symmetry -- integrals replicated.
 Density matrix breaks symmetry, PCut= 1.00D-07
 Density matrix has no symmetry -- integrals replicated.
 Density matrix breaks symmetry, PCut= 1.00D-07
 Density matrix has no symmetry -- integrals replicated.
 Density matrix breaks symmetry, PCut= 1.00D-07
 Density matrix has no symmetry -- integrals replicated.
 Density matrix breaks symmetry, PCut= 1.00D-07
 Density matrix has no symmetry -- integrals replicated.
 Density matrix breaks symmetry, PCut= 1.00D-07
 Density matrix has no symmetry -- integrals replicated.
 Rare condition: small coef for last iteration:  0.000D+00
 Density matrix breaks symmetry, PCut= 1.00D-07
 Density matrix has no symmetry -- integrals replicated.
 Rare condition: small coef for last iteration:  0.000D+00
 Density matrix breaks symmetry, PCut= 1.00D-07
 Density matrix has no symmetry -- integrals replicated.
 Density matrix breaks symmetry, PCut= 1.00D-07
 Density matrix has no symmetry -- integrals replicated.
 Rare condition: small coef for last iteration:  0.000D+00
 Density matrix breaks symmetry, PCut= 1.00D-07
 Density matrix has no symmetry -- integrals replicated.
 Density matrix breaks symmetry, PCut= 1.00D-07
 Density matrix has no symmetry -- integrals replicated.
 Rare condition: small coef for last iteration:  0.000D+00
 Density matrix breaks symmetry, PCut= 1.00D-07
 Density matrix has no symmetry -- integrals replicated.
 Density matrix breaks symmetry, PCut= 1.00D-07
 Density matrix has no symmetry -- integrals replicated.
 Rare condition: small coef for last iteration:  0.000D+00
 Density matrix breaks symmetry, PCut= 1.00D-07
 Density matrix has no symmetry -- integrals replicated.
 Rare condition: small coef for last iteration:  0.000D+00
 Density matrix breaks symmetry, PCut= 1.00D-07
 Density matrix has no symmetry -- integrals replicated.
 Density matrix breaks symmetry, PCut= 1.00D-07
 Density matrix has no symmetry -- integrals replicated.
 Density matrix breaks symmetry, PCut= 1.00D-07
 Density matrix has no symmetry -- integrals replicated.
 Rare condition: small coef for last iteration:  0.000D+00
 Density matrix breaks symmetry, PCut= 1.00D-07
 Density matrix has no symmetry -- integrals replicated.
 Rare condition: small coef for last iteration:  0.000D+00
 Density matrix breaks symmetry, PCut= 1.00D-07
 Density matrix has no symmetry -- integrals replicated.
 Density matrix breaks symmetry, PCut= 1.00D-07
 Density matrix has no symmetry -- integrals replicated.
 Rare condition: small coef for last iteration:  0.000D+00
 Density matrix breaks symmetry, PCut= 1.00D-07
 Density matrix has no symmetry -- integrals replicated.
 Rare condition: small coef for last iteration:  0.000D+00
 Density matrix breaks symmetry, PCut= 1.00D-07
 Density matrix has no symmetry -- integrals replicated.
 Density matrix breaks symmetry, PCut= 1.00D-07
 Density matrix has no symmetry -- integrals replicated.
 Rare condition: small coef for last iteration:  0.000D+00
 Density matrix breaks symmetry, PCut= 1.00D-07
 Density matrix has no symmetry -- integrals replicated.
 Density matrix breaks symmetry, PCut= 1.00D-07
 Density matrix has no symmetry -- integrals replicated.
 Rare condition: small coef for last iteration:  0.000D+00
 Density matrix breaks symmetry, PCut= 1.00D-07
 Density matrix has no symmetry -- integrals replicated.
 Density matrix breaks symmetry, PCut= 1.00D-07
 Density matrix has no symmetry -- integrals replicated.
 Density matrix breaks symmetry, PCut= 1.00D-07
 Density matrix has no symmetry -- integrals replicated.
 Density matrix breaks symmetry, PCut= 1.00D-07
 Density matrix has no symmetry -- integrals replicated.
 Density matrix breaks symmetry, PCut= 1.00D-07
 Density matrix has no symmetry -- integrals replicated.
 Density matrix breaks symmetry, PCut= 1.00D-07
 Density matrix has no symmetry -- integrals replicated.
 Rare condition: small coef for last iteration:  0.000D+00
 Density matrix breaks symmetry, PCut= 1.00D-07
 Density matrix has no symmetry -- integrals replicated.
 Density matrix breaks symmetry, PCut= 1.00D-07
 Density matrix has no symmetry -- integrals replicated.
 Density matrix breaks symmetry, PCut= 1.00D-07
 Density matrix has no symmetry -- integrals replicated.
 Rare condition: small coef for last iteration:  0.000D+00
 Density matrix breaks symmetry, PCut= 1.00D-07
 Density matrix has no symmetry -- integrals replicated.
 Density matrix breaks symmetry, PCut= 1.00D-07
 Density matrix has no symmetry -- integrals replicated.
 Density matrix breaks symmetry, PCut= 1.00D-07
 Density matrix has no symmetry -- integrals replicated.
 Rare condition: small coef for last iteration:  0.000D+00
 Density matrix breaks symmetry, PCut= 1.00D-07
 Density matrix has no symmetry -- integrals replicated.
 Density matrix breaks symmetry, PCut= 1.00D-07
 Density matrix has no symmetry -- integrals replicated.
 Density matrix breaks symmetry, PCut= 1.00D-07
 Density matrix has no symmetry -- integrals replicated.
 Density matrix breaks symmetry, PCut= 1.00D-07
 Density matrix has no symmetry -- integrals replicated.
 Density matrix breaks symmetry, PCut= 1.00D-07
 Density matrix has no symmetry -- integrals replicated.
 Density matrix breaks symmetry, PCut= 1.00D-07
 Density matrix has no symmetry -- integrals replicated.
 Density matrix breaks symmetry, PCut= 1.00D-07
 Density matrix has no symmetry -- integrals replicated.
 Density matrix breaks symmetry, PCut= 1.00D-07
 Density matrix has no symmetry -- integrals replicated.
 Density matrix breaks symmetry, PCut= 1.00D-07
 Density matrix has no symmetry -- integrals replicated.
 Density matrix breaks symmetry, PCut= 1.00D-07
 Density matrix has no symmetry -- integrals replicated.
 Density matrix breaks symmetry, PCut= 1.00D-07
 Density matrix has no symmetry -- integrals replicated.
 Density matrix breaks symmetry, PCut= 1.00D-07
 Density matrix has no symmetry -- integrals replicated.
 Density matrix breaks symmetry, PCut= 1.00D-07
 Density matrix has no symmetry -- integrals replicated.
 Density matrix breaks symmetry, PCut= 1.00D-07
 Density matrix has no symmetry -- integrals replicated.
 Density matrix breaks symmetry, PCut= 1.00D-07
 Density matrix has no symmetry -- integrals replicated.
 Density matrix breaks symmetry, PCut= 1.00D-07
 Density matrix has no symmetry -- integrals replicated.
 Density matrix breaks symmetry, PCut= 1.00D-07
 Density matrix has no symmetry -- integrals replicated.
 Density matrix breaks symmetry, PCut= 1.00D-07
 Density matrix has no symmetry -- integrals replicated.
 Density matrix breaks symmetry, PCut= 1.00D-07
 Density matrix has no symmetry -- integrals replicated.
 Density matrix breaks symmetry, PCut= 1.00D-07
 Density matrix has no symmetry -- integrals replicated.
 Density matrix breaks symmetry, PCut= 1.00D-07
 Density matrix has no symmetry -- integrals replicated.
 SCF Done:  E(UHF) =  -4.85996165607     A.U. after   62 cycles
            NFock= 62  Conv=0.74D-08     -V/T= 1.8766
 <Sx>= 0.0000 <Sy>= 0.0000 <Sz>= 0.0000 <S**2>= 1.3126 S= 0.7501
 <L.S>= 0.000000000000E+00
 Annihilation of the first spin contaminant:
 S**2 before annihilation     1.3126,   after     2.3770
 Range of M.O.s used for correlation:     1    10
 NBasis=    10 NAE=     5 NBE=     5 NFC=     0 NFV=     0
 NROrb=     10 NOA=     5 NOB=     5 NVA=     5 NVB=     5
 Semi-Direct transformation.
 ModeAB=           2 MOrb=             5 LenV=     134109867
 LASXX=         1030 LTotXX=        1030 LenRXX=        1030
 LTotAB=        1825 MaxLAS=        2750 LenRXY=        2750
 NonZer=        2750 LenScr=      655360 LnRSAI=           0
 LnScr1=           0 LExtra=           0 Total=       659140
 MaxDsk=          -1 SrtSym=           F ITran=            3
 JobTyp=1 Pass  1:  I=   1 to   5.
 (rs|ai) integrals will be sorted in core.
 ModeAB=           2 MOrb=             5 LenV=     134109867
 LASXX=         1030 LTotXX=        1030 LenRXX=        2750
 LTotAB=         225 MaxLAS=        2750 LenRXY=         225
 NonZer=        2750 LenScr=      655360 LnRSAI=           0
 LnScr1=           0 LExtra=           0 Total=       658335
 MaxDsk=          -1 SrtSym=           F ITran=            3
 JobTyp=2 Pass  1:  I=   1 to   5.
 (rs|ai) integrals will be sorted in core.
 SymMOI:  orbitals are not symmetric.
 Spin components of T(2) and E(2):
     alpha-alpha T2 =       0.7737080407D-03 E2=     -0.1335725893D-02
     alpha-beta  T2 =       0.2887572632D-01 E2=     -0.4880758140D-01
     beta-beta   T2 =       0.8277437203D-03 E2=     -0.1397465045D-02
 ANorm=    0.1015124218D+01
 E2 =    -0.5154077234D-01 EUMP2 =    -0.49115024284034D+01
 (S**2,0)=  0.13126D+01           (S**2,1)=  0.12313D+01
 E(PUHF)=      -0.49472866744D+01        E(PMP2)=      -0.49977546724D+01
 Second order stability test of a single determinant UHF wave function:
 Stabil:  MDV=134217728
 ***********************************************************************
 Matrix         Lowest Root    Major Pairs
 ***********************************************************************


 Internal UHF    -0.0012563    5A=6A 5B=6B 4B=6B 4A=6A 2B=6B 3A=6A 5A=9A 2A=6A 5B
 =9B 1B=10B 1A=10A 4A=9A 5A=7A 3A=10A 3A=7A 3A=8A 3B=8B 4B=9B
 RUHF --> CUHF (A)0.0708883    Stable
 RUHF --> CUHF (B)0.0793126    Stable


 RUHF --> GHF    -0.0568258    5A=6B 5B=6A 4B=6A 5A=8B 4A=6B 4A=8B 5B=8A 4B=8A 3A
 =7B 3B=7A 3A=6B 1A=10B 1B=10A 2B=9A 2A=9B 5B=7A 3B=6A
 Not stable.
 ***********************************************************************

 **********************************************************************

            Population analysis using the SCF density.

 **********************************************************************

 Orbital symmetries:
 Alpha Orbitals:
       Occupied  (BG) (BG) (BG) (BG) (BG)
       Virtual   (BG) (BG) (BG) (BG) (BG)
 Beta  Orbitals:
       Occupied  (BG) (BG) (BG) (BG) (BG)
       Virtual   (BG) (BG) (BG) (BG) (BG)
 Unable to determine electronic state:  partially filled degenerate orbitals.
 Alpha  occ. eigenvalues --   -0.81074  -0.72588  -0.58604  -0.41050  -0.27638
 Alpha virt. eigenvalues --    0.08181   0.21165   0.24864   0.39876   0.58797
  Beta  occ. eigenvalues --   -0.81244  -0.72456  -0.58697  -0.40432  -0.28245
  Beta virt. eigenvalues --    0.08312   0.21287   0.25351   0.39167   0.59124
          Condensed to atoms (all electrons):
               1          2          3          4          5          6
     1  H    1.267750  -0.205469   0.067519  -0.042673   0.007349   0.002133
     2  H   -0.205469   1.217387   0.329510  -0.100652  -0.194673   0.015629
     3  H    0.067519   0.329510   0.587361  -0.040581  -0.074380  -0.007971
     4  H   -0.042673  -0.100652  -0.040581   0.860885   0.530552  -0.194822
     5  H    0.007349  -0.194673  -0.074380   0.530552   1.156204  -0.180064
     6  H    0.002133   0.015629  -0.007971  -0.194822  -0.180064   1.180292
     7  H    0.000742   0.012478  -0.006103  -0.102750  -0.199541   0.467040
     8  H   -0.000002   0.000451   0.001571  -0.006372  -0.009858  -0.052595
     9  H   -0.000122  -0.000557   0.000517   0.009915   0.017416  -0.192178
    10  H    0.000009  -0.000134  -0.000037   0.001502   0.001866   0.007812
               7          8          9         10
     1  H    0.000742  -0.000002  -0.000122   0.000009
     2  H    0.012478   0.000451  -0.000557  -0.000134
     3  H   -0.006103   0.001571   0.000517  -0.000037
     4  H   -0.102750  -0.006372   0.009915   0.001502
     5  H   -0.199541  -0.009858   0.017416   0.001866
     6  H    0.467040  -0.052595  -0.192178   0.007812
     7  H    0.932622  -0.052654  -0.068024  -0.049918
     8  H   -0.052654   0.599516   0.307482   0.077538
     9  H   -0.068024   0.307482   1.179881  -0.194255
    10  H   -0.049918   0.077538  -0.194255   1.252813
          Atomic-Atomic Spin Densities.
               1          2          3          4          5          6
     1  H    1.114216  -0.302656  -0.062059  -0.002863   0.033944  -0.002486
     2  H   -0.302656   0.854502  -0.038114   0.057757  -0.115577   0.003535
     3  H   -0.062059  -0.038114  -0.354193   0.090997   0.057885  -0.004470
     4  H   -0.002863   0.057757   0.090997  -0.338107  -0.078109   0.086254
     5  H    0.033944  -0.115577   0.057885  -0.078109   0.429705   0.038369
     6  H   -0.002486   0.003535  -0.004470   0.086254   0.038369  -0.666081
     7  H   -0.000506   0.008965  -0.009015  -0.017595  -0.096268   0.101745
     8  H   -0.000104  -0.000495  -0.000090   0.012037   0.007733  -0.070614
     9  H    0.000114   0.000070   0.000215  -0.005639  -0.010004   0.130497
    10  H    0.000002  -0.000127   0.000106   0.000245   0.002443  -0.030429
               7          8          9         10
     1  H   -0.000506  -0.000104   0.000114   0.000002
     2  H    0.008965  -0.000495   0.000070  -0.000127
     3  H   -0.009015  -0.000090   0.000215   0.000106
     4  H   -0.017595   0.012037  -0.005639   0.000245
     5  H   -0.096268   0.007733  -0.010004   0.002443
     6  H    0.101745  -0.070614   0.130497  -0.030429
     7  H    0.548205  -0.110930  -0.094197   0.003991
     8  H   -0.110930   0.369449   0.056287   0.060562
     9  H   -0.094197   0.056287  -0.846054   0.288093
    10  H    0.003991   0.060562   0.288093  -1.090641
 Mulliken charges and spin densities:
               1          2
     1  H   -0.097237   0.777603
     2  H   -0.073970   0.467860
     3  H    0.142594  -0.318738
     4  H    0.084997  -0.195023
     5  H   -0.054872   0.270120
     6  H   -0.045276  -0.413680
     7  H    0.066109   0.334396
     8  H    0.134923   0.323834
     9  H   -0.060075  -0.480619
    10  H   -0.097194  -0.765754
 Sum of Mulliken charges =   0.00000   0.00000
 Mulliken charges and spin densities with hydrogens summed into heavy atoms:
               1          2
 Electronic spatial extent (au):  <R**2>=            180.3393
 Charge=              0.0000 electrons
 Dipole moment (field-independent basis, Debye):
    X=             -0.0055    Y=             -0.0287    Z=             -0.0000  Tot=              0.0292
 Quadrupole moment (field-independent basis, Debye-Ang):
   XX=            -16.6832   YY=            -21.0834   ZZ=            -12.6467
   XY=             -6.5310   XZ=             -0.0000   YZ=             -0.0000
 Traceless Quadrupole moment (field-independent basis, Debye-Ang):
   XX=              0.1213   YY=             -4.2790   ZZ=              4.1577
   XY=             -6.5310   XZ=             -0.0000   YZ=             -0.0000
 Octapole moment (field-independent basis, Debye-Ang**2):
  XXX=             -0.2438  YYY=             -0.1499  ZZZ=             -0.0000  XYY=             -0.4073
  XXY=             -0.4177  XXZ=             -0.0000  XZZ=              0.0141  YZZ=              0.0114
  YYZ=             -0.0000  XYZ=             -0.0000
 Hexadecapole moment (field-independent basis, Debye-Ang**3):
 XXXX=           -151.3640 YYYY=           -311.4232 ZZZZ=            -15.1049 XXXY=            -94.7698
 XXXZ=             -0.0000 YYYX=           -126.9932 YYYZ=             -0.0000 ZZZX=             -0.0000
 ZZZY=             -0.0000 XXYY=            -93.4679 XXZZ=            -25.3578 YYZZ=            -40.1585
 XXYZ=             -0.0000 YYXZ=             -0.0000 ZZXY=            -24.5781
 N-N= 1.223829602293D+01 E-N=-3.412008376758D+01  KE= 5.543846472977D+00
 Symmetry AG   KE= 2.438840322401D+00
 Symmetry BG   KE= 0.000000000000D+00
 Symmetry AU   KE= 0.000000000000D+00
 Symmetry BU   KE= 3.105006150576D+00
                          Isotropic Fermi Contact Couplings
        Atom                 a.u.       MegaHertz       Gauss      10(-4) cm-1
     1  H(1)               0.30929     691.24506     246.65342     230.57453
     2  H(1)               0.22458     501.92387     179.09891     167.42378
     3  H(1)              -0.10496    -234.58612     -83.70616     -78.24951
     4  H(1)              -0.09228    -206.24577     -73.59362     -68.79618
     5  H(1)               0.11354     253.76611      90.55005      84.64726
     6  H(1)              -0.17584    -393.00020    -140.23224    -131.09076
     7  H(1)               0.15135     338.26682     120.70201     112.83367
     8  H(1)               0.10917     243.98789      87.06094      81.38560
     9  H(1)              -0.22347    -499.44590    -178.21471    -166.59722
    10  H(1)              -0.30339    -678.06756    -241.95136    -226.17899
 --------------------------------------------------------
       Center         ----  Spin Dipole Couplings  ----
                      3XX-RR        3YY-RR        3ZZ-RR
 --------------------------------------------------------
     1   Atom       -0.011704      0.000701      0.011003
     2   Atom       -0.061343      0.044611      0.016732
     3   Atom        0.092151     -0.005266     -0.086886
     4   Atom        0.068338     -0.028605     -0.039733
     5   Atom       -0.010237     -0.017630      0.027867
     6   Atom        0.042339      0.004243     -0.046582
     7   Atom       -0.085937      0.024886      0.061051
     8   Atom       -0.100322      0.011554      0.088768
     9   Atom        0.060833     -0.040426     -0.020407
    10   Atom        0.011578     -0.000658     -0.010920
 --------------------------------------------------------
                        XY            XZ            YZ
 --------------------------------------------------------
     1   Atom       -0.030051     -0.000000     -0.000000
     2   Atom        0.026861     -0.000000      0.000000
     3   Atom        0.000518      0.000000      0.000000
     4   Atom        0.004108      0.000000     -0.000000
     5   Atom        0.044622     -0.000000      0.000000
     6   Atom       -0.050203     -0.000000      0.000000
     7   Atom        0.002200      0.000000      0.000000
     8   Atom       -0.011387      0.000000      0.000000
     9   Atom       -0.025013     -0.000000      0.000000
    10   Atom        0.030847     -0.000000     -0.000000
 --------------------------------------------------------


 ---------------------------------------------------------------------------------
              Anisotropic Spin Dipole Couplings in Principal Axis System
 ---------------------------------------------------------------------------------

       Atom             a.u.   MegaHertz   Gauss  10(-4) cm-1        Axes

              Baa    -0.0362   -19.307    -6.889    -6.440  0.7753  0.6316  0.0000
     1 H(1)   Bbb     0.0110     5.871     2.095     1.958  0.0000  0.0000  1.0000
              Bcc     0.0252    13.436     4.794     4.482 -0.6316  0.7753 -0.0000
 
              Baa    -0.0678   -36.156   -12.901   -12.060  0.9726 -0.2325  0.0000
     2 H(1)   Bbb     0.0167     8.928     3.186     2.978  0.0000  0.0000  1.0000
              Bcc     0.0510    27.228     9.716     9.082  0.2325  0.9726  0.0000
 
              Baa    -0.0869   -46.358   -16.542   -15.463  0.0000  0.0000  1.0000
     3 H(1)   Bbb    -0.0053    -2.811    -1.003    -0.938 -0.0053  1.0000 -0.0000
              Bcc     0.0922    49.169    17.545    16.401  1.0000  0.0053  0.0000
 
              Baa    -0.0397   -21.200    -7.565    -7.071  0.0000  0.0000  1.0000
     4 H(1)   Bbb    -0.0288   -15.355    -5.479    -5.122 -0.0423  0.9991  0.0000
              Bcc     0.0685    36.555    13.044    12.193  0.9991  0.0423  0.0000
 
              Baa    -0.0587   -31.324   -11.177   -10.449 -0.6773  0.7357  0.0000
     5 H(1)   Bbb     0.0279    14.869     5.305     4.960  0.0000  0.0000  1.0000
              Bcc     0.0308    16.456     5.872     5.489  0.7357  0.6773  0.0000
 
              Baa    -0.0466   -24.854    -8.869    -8.290  0.0000  0.0000  1.0000
     6 H(1)   Bbb    -0.0304   -16.222    -5.788    -5.411  0.5680  0.8230  0.0000
              Bcc     0.0770    41.076    14.657    13.701  0.8230 -0.5680  0.0000
 
              Baa    -0.0860   -45.875   -16.369   -15.302  0.9998 -0.0198  0.0000
     7 H(1)   Bbb     0.0249    13.301     4.746     4.437  0.0198  0.9998 -0.0000
              Bcc     0.0611    32.574    11.623    10.865  0.0000  0.0000  1.0000
 
              Baa    -0.1015   -54.139   -19.318   -18.059  0.9950  0.1002  0.0000
     8 H(1)   Bbb     0.0127     6.777     2.418     2.261 -0.1002  0.9950  0.0000
              Bcc     0.0888    47.362    16.900    15.798  0.0000  0.0000  1.0000
 
              Baa    -0.0463   -24.686    -8.809    -8.234  0.2274  0.9738  0.0000
     9 H(1)   Bbb    -0.0204   -10.888    -3.885    -3.632  0.0000  0.0000  1.0000
              Bcc     0.0667    35.574    12.694    11.866  0.9738 -0.2274  0.0000
 
              Baa    -0.0260   -13.866    -4.948    -4.625 -0.6346  0.7728 -0.0000
    10 H(1)   Bbb    -0.0109    -5.827    -2.079    -1.944  0.0000  0.0000  1.0000
              Bcc     0.0369    19.693     7.027     6.569  0.7728  0.6346  0.0000
 

 ---------------------------------------------------------------------------------


 Test job not archived.
 1\1\GINC-SULU\Stability\UHF\Gen\H10\LCJ1\28-Feb-2017\0\\#uhf/gen scf(t
 ight,novaracc,noincfock,fulldiag) stable(cuhf) guess=read geom=nocrowd
  test\\hf stability analysis of h10 triangular lattice, y= 1.250990226
 5939778\\0,1\H\H,1,1.3334062713\H,1,1.3334062713,2,40.5\H,2,1.33340627
 13,1,139.5,3,0.,0\H,3,1.3334062713,1,180.,2,0.,0\H,4,1.3334062713,2,18
 0.,1,0.,0\H,5,1.3334062713,3,180.,2,0.,0\H,6,1.3334062713,4,180.,1,0.,
 0\H,7,1.3334062713,5,180.,2,0.,0\H,8,1.3334062713,6,180.,1,0.,0\\Versi
 on=ES64L-G09RevE.01\HF=-4.8599617\MP2=-4.9115024\PUHF=-4.9472867\PMP2-
 0=-4.9977547\S2=1.312636\S2-1=1.231277\S2A=2.377014\RMSD=7.430e-09\Dip
 ole=0.002156,0.,0.0112935\Quadrupole=0.0901653,3.0911548,-3.1813201,0.
 ,-4.8556083,0.\PG=C02H [SGH(H10)]\\@


 QUHEN THE CAUSS IS TAKEN AWAY THE EFFECT WANISHETH.
 -- PROVERBS AND REASONS OF THE YEAR 1585
           AS REPRINTED IN PAISLEY MAGAZINE 1828.
 Job cpu time:       0 days  0 hours  0 minutes  1.3 seconds.
 File lengths (MBytes):  RWF=     94 Int=      0 D2E=      0 Chk=      2 Scr=      2
 Normal termination of Gaussian 09 at Tue Feb 28 18:19:39 2017.
