 Entering Gaussian System, Link 0=g09
 AtFile(1): H.gbs
            H     0
            S   10   1.00
               1000.000000000000            0.000068713567
                316.227766000000            0.000169141320
                100.000000000000            0.000823394812
                 31.622776600000            0.003425569236
                 10.000000000000            0.013951996000
                  3.162277660000            0.056909313560
                  1.000000000000            0.198286399900
                  0.316227766000            0.496922426700
                  0.100000000000            0.369846276400
                  0.031622776600            0.003752720039
            ****
 Initial command:
 /projects/guscus/apps/gau/g09-e1/g09/l1.exe "/users/lcj1/gaussian/h10/2rows_uhf/singlet/staboptguess/Gau-14231.inp" -scrdir="/users/lcj1/gaussian/h10/2rows_uhf/singlet/staboptguess/"
 Entering Link 1 = /projects/guscus/apps/gau/g09-e1/g09/l1.exe PID=     14232.
  
 Copyright (c) 1988,1990,1992,1993,1995,1998,2003,2009,2015,
            Gaussian, Inc.  All Rights Reserved.
  
 This is part of the Gaussian(R) 09 program.  It is based on
 the Gaussian(R) 03 system (copyright 2003, Gaussian, Inc.),
 the Gaussian(R) 98 system (copyright 1998, Gaussian, Inc.),
 the Gaussian(R) 94 system (copyright 1995, Gaussian, Inc.),
 the Gaussian 92(TM) system (copyright 1992, Gaussian, Inc.),
 the Gaussian 90(TM) system (copyright 1990, Gaussian, Inc.),
 the Gaussian 88(TM) system (copyright 1988, Gaussian, Inc.),
 the Gaussian 86(TM) system (copyright 1986, Carnegie Mellon
 University), and the Gaussian 82(TM) system (copyright 1983,
 Carnegie Mellon University). Gaussian is a federally registered
 trademark of Gaussian, Inc.
  
 This software contains proprietary and confidential information,
 including trade secrets, belonging to Gaussian, Inc.
  
 This software is provided under written license and may be
 used, copied, transmitted, or stored only in accord with that
 written license.
  
 The following legend is applicable only to US Government
 contracts under FAR:
  
                    RESTRICTED RIGHTS LEGEND
  
 Use, reproduction and disclosure by the US Government is
 subject to restrictions as set forth in subparagraphs (a)
 and (c) of the Commercial Computer Software - Restricted
 Rights clause in FAR 52.227-19.
  
 Gaussian, Inc.
 340 Quinnipiac St., Bldg. 40, Wallingford CT 06492
  
  
 ---------------------------------------------------------------
 Warning -- This program may not be used in any manner that
 competes with the business of Gaussian, Inc. or will provide
 assistance to any competitor of Gaussian, Inc.  The licensee
 of this program is prohibited from giving any competitor of
 Gaussian, Inc. access to this program.  By using this program,
 the user acknowledges that Gaussian, Inc. is engaged in the
 business of creating and licensing software in the field of
 computational chemistry and represents and warrants to the
 licensee that it is not a competitor of Gaussian, Inc. and that
 it will not use this program in any manner prohibited above.
 ---------------------------------------------------------------
  

 Cite this work as:
 Gaussian 09, Revision E.01,
 M. J. Frisch, G. W. Trucks, H. B. Schlegel, G. E. Scuseria, 
 M. A. Robb, J. R. Cheeseman, G. Scalmani, V. Barone, B. Mennucci, 
 G. A. Petersson, H. Nakatsuji, M. Caricato, X. Li, H. P. Hratchian, 
 A. F. Izmaylov, J. Bloino, G. Zheng, J. L. Sonnenberg, M. Hada, 
 M. Ehara, K. Toyota, R. Fukuda, J. Hasegawa, M. Ishida, T. Nakajima, 
 Y. Honda, O. Kitao, H. Nakai, T. Vreven, J. A. Montgomery, Jr., 
 J. E. Peralta, F. Ogliaro, M. Bearpark, J. J. Heyd, E. Brothers, 
 K. N. Kudin, V. N. Staroverov, T. Keith, R. Kobayashi, J. Normand, 
 K. Raghavachari, A. Rendell, J. C. Burant, S. S. Iyengar, J. Tomasi, 
 M. Cossi, N. Rega, J. M. Millam, M. Klene, J. E. Knox, J. B. Cross, 
 V. Bakken, C. Adamo, J. Jaramillo, R. Gomperts, R. E. Stratmann, 
 O. Yazyev, A. J. Austin, R. Cammi, C. Pomelli, J. W. Ochterski, 
 R. L. Martin, K. Morokuma, V. G. Zakrzewski, G. A. Voth, 
 P. Salvador, J. J. Dannenberg, S. Dapprich, A. D. Daniels, 
 O. Farkas, J. B. Foresman, J. V. Ortiz, J. Cioslowski, 
 and D. J. Fox, Gaussian, Inc., Wallingford CT, 2013.
 
 ******************************************
 Gaussian 09:  ES64L-G09RevE.01 30-Nov-2015
                28-Feb-2017 
 ******************************************
 %chk=h10.chk
 ----------------------------------------------------------------------
 #uhf/gen scf(tight,novaracc,noincfock,fulldiag) stable(cuhf) guess=rea
 d geom=nocrowd test
 ----------------------------------------------------------------------
 1/38=1/1;
 2/12=1,17=6,18=5,40=1/2;
 3/5=7,16=1,25=1,30=1,116=2/1,2,3;
 4/5=1/1;
 5/5=100002,16=1,32=2,38=6/2;
 8/6=1,10=90,11=11/1,4;
 9/8=4,13=1/2;
 6/7=2,8=2,9=2,10=2,28=1/1;
 99/5=1,9=1/99;
 ----------------------------------------------------------------------
 hf stability analysis of h10 triangular lattice, y= 1.0258511839050852
 ----------------------------------------------------------------------
 Symbolic Z-matrix:
 Charge =  0 Multiplicity = 1
 H
 H                    1     1.17009 
 H                    1     1.17009  2     57.5 
 H                    2     1.17009  1     122.5    3     0.       0
 H                    3     1.17009  1     180.     2     0.       0
 H                    4     1.17009  2     180.     1     0.       0
 H                    5     1.17009  3     180.     2     0.       0
 H                    6     1.17009  4     180.     1     0.       0
 H                    7     1.17009  5     180.     2     0.       0
 H                    8     1.17009  6     180.     1     0.       0
 
                          Input orientation:                          
 ---------------------------------------------------------------------
 Center     Atomic      Atomic             Coordinates (Angstroms)
 Number     Number       Type             X           Y           Z
 ---------------------------------------------------------------------
      1          1           0        0.000000    0.000000    0.000000
      2          1           0        0.000000    0.000000    1.170092
      3          1           0        0.986846    0.000000    0.628690
      4          1           0        0.986846    0.000000    1.798782
      5          1           0        1.973692    0.000000    1.257380
      6          1           0        1.973692    0.000000    2.427472
      7          1           0        2.960537    0.000000    1.886070
      8          1           0        2.960537    0.000000    3.056163
      9          1           0        3.947383    0.000000    2.514760
     10          1           0        3.947383    0.000000    3.684853
 ---------------------------------------------------------------------
                    Distance matrix (angstroms):
                    1          2          3          4          5
     1  H    0.000000
     2  H    1.170092   0.000000
     3  H    1.170092   1.125602   0.000000
     4  H    2.051702   1.170092   1.170092   0.000000
     5  H    2.340184   1.975621   1.170092   1.125602   0.000000
     6  H    3.128591   2.340184   2.051702   1.170092   1.170092
     7  H    3.510277   3.045883   2.340184   1.975621   1.170092
     8  H    4.254987   3.510277   3.128591   2.340184   2.051702
     9  H    4.680369   4.170128   3.510277   3.045883   2.340184
    10  H    5.399997   4.680369   4.254987   3.510277   3.128591
                    6          7          8          9         10
     6  H    0.000000
     7  H    1.125602   0.000000
     8  H    1.170092   1.170092   0.000000
     9  H    1.975621   1.170092   1.125602   0.000000
    10  H    2.340184   2.051702   1.170092   1.170092   0.000000
 Stoichiometry    H10
 Framework group  C2H[SGH(H10)]
 Deg. of freedom     9
 Full point group                 C2H     NOp   4
 Largest Abelian subgroup         C2H     NOp   4
 Largest concise Abelian subgroup C2      NOp   2
                         Standard orientation:                         
 ---------------------------------------------------------------------
 Center     Atomic      Atomic             Coordinates (Angstroms)
 Number     Number       Type             X           Y           Z
 ---------------------------------------------------------------------
      1          1           0        1.973692    1.842426    0.000000
      2          1           0        1.973692    0.672334    0.000000
      3          1           0        0.986846    1.213736    0.000000
      4          1           0        0.986846    0.043644    0.000000
      5          1           0        0.000000    0.585046    0.000000
      6          1           0       -0.000000   -0.585046   -0.000000
      7          1           0       -0.986846   -0.043644    0.000000
      8          1           0       -0.986846   -1.213736   -0.000000
      9          1           0       -1.973692   -0.672334    0.000000
     10          1           0       -1.973692   -1.842426   -0.000000
 ---------------------------------------------------------------------
 Rotational constants (GHZ):    214.0927808     17.6178663     16.2783110
 General basis read from cards:  (5D, 7F)
 There are     5 symmetry adapted cartesian basis functions of AG  symmetry.
 There are     0 symmetry adapted cartesian basis functions of BG  symmetry.
 There are     0 symmetry adapted cartesian basis functions of AU  symmetry.
 There are     5 symmetry adapted cartesian basis functions of BU  symmetry.
 There are     5 symmetry adapted basis functions of AG  symmetry.
 There are     0 symmetry adapted basis functions of BG  symmetry.
 There are     0 symmetry adapted basis functions of AU  symmetry.
 There are     5 symmetry adapted basis functions of BU  symmetry.
    10 basis functions,   100 primitive gaussians,    10 cartesian basis functions
     5 alpha electrons        5 beta electrons
       nuclear repulsion energy        13.1094508256 Hartrees.
 NAtoms=   10 NActive=   10 NUniq=    5 SFac= 4.00D+00 NAtFMM=   60 NAOKFM=F Big=F
 Integral buffers will be    131072 words long.
 Regular integral format.
 Two-electron integral symmetry is turned on.
 One-electron integrals computed using PRISM.
 NBasis=    10 RedAO= T EigKep=  1.96D-01  NBF=     5     0     0     5
 NBsUse=    10 1.00D-06 EigRej= -1.00D+00 NBFU=     5     0     0     5
 Initial guess from the checkpoint file:  "h10.chk"
 B after Tr=    -0.000000   -0.000000   -0.000000
         Rot=    0.774586    0.000000   -0.000000   -0.632469 Ang= -78.47 deg.
 Initial guess orbital symmetries:
 Alpha Orbitals:
       Occupied  (BG) (BG) (BG) (BG) (BG)
       Virtual   (BG) (BG) (BG) (BG) (BG)
 Beta  Orbitals:
       Occupied  (BG) (BG) (BG) (BG) (BG)
       Virtual   (BG) (BG) (BG) (BG) (BG)
 Initial guess <Sx>= 0.0000 <Sy>= 0.0000 <Sz>= 0.0000 <S**2>= 1.7024 S= 0.8973
 Keep R1 and R2 ints in memory in symmetry-blocked form, NReq=878991.
 Requested convergence on RMS density matrix=1.00D-08 within 128 cycles.
 Requested convergence on MAX density matrix=1.00D-06.
 Requested convergence on             energy=1.00D-06.
 No special actions if energy rises.
 An orbital has undefined symmetry, so N**3 symmetry is turned off.
 Density matrix breaks symmetry, PCut= 1.00D-04
 Density matrix has no symmetry -- integrals replicated.
 Density matrix breaks symmetry, PCut= 1.00D-07
 Density matrix has no symmetry -- integrals replicated.
 Density matrix breaks symmetry, PCut= 1.00D-07
 Density matrix has no symmetry -- integrals replicated.
 Density matrix breaks symmetry, PCut= 1.00D-07
 Density matrix has no symmetry -- integrals replicated.
 Density matrix breaks symmetry, PCut= 1.00D-07
 Density matrix has no symmetry -- integrals replicated.
 Density matrix breaks symmetry, PCut= 1.00D-07
 Density matrix has no symmetry -- integrals replicated.
 Density matrix breaks symmetry, PCut= 1.00D-07
 Density matrix has no symmetry -- integrals replicated.
 Density matrix breaks symmetry, PCut= 1.00D-07
 Density matrix has no symmetry -- integrals replicated.
 Density matrix breaks symmetry, PCut= 1.00D-07
 Density matrix has no symmetry -- integrals replicated.
 Rare condition: small coef for last iteration:  0.000D+00
 Density matrix breaks symmetry, PCut= 1.00D-07
 Density matrix has no symmetry -- integrals replicated.
 Density matrix breaks symmetry, PCut= 1.00D-07
 Density matrix has no symmetry -- integrals replicated.
 Density matrix breaks symmetry, PCut= 1.00D-07
 Density matrix has no symmetry -- integrals replicated.
 Density matrix breaks symmetry, PCut= 1.00D-07
 Density matrix has no symmetry -- integrals replicated.
 Density matrix breaks symmetry, PCut= 1.00D-07
 Density matrix has no symmetry -- integrals replicated.
 Density matrix breaks symmetry, PCut= 1.00D-07
 Density matrix has no symmetry -- integrals replicated.
 Density matrix breaks symmetry, PCut= 1.00D-07
 Density matrix has no symmetry -- integrals replicated.
 Density matrix breaks symmetry, PCut= 1.00D-07
 Density matrix has no symmetry -- integrals replicated.
 Density matrix breaks symmetry, PCut= 1.00D-07
 Density matrix has no symmetry -- integrals replicated.
 Rare condition: small coef for last iteration:  0.000D+00
 Density matrix breaks symmetry, PCut= 1.00D-07
 Density matrix has no symmetry -- integrals replicated.
 Density matrix breaks symmetry, PCut= 1.00D-07
 Density matrix has no symmetry -- integrals replicated.
 Density matrix breaks symmetry, PCut= 1.00D-07
 Density matrix has no symmetry -- integrals replicated.
 Density matrix breaks symmetry, PCut= 1.00D-07
 Density matrix has no symmetry -- integrals replicated.
 Density matrix breaks symmetry, PCut= 1.00D-07
 Density matrix has no symmetry -- integrals replicated.
 Density matrix breaks symmetry, PCut= 1.00D-07
 Density matrix has no symmetry -- integrals replicated.
 Density matrix breaks symmetry, PCut= 1.00D-07
 Density matrix has no symmetry -- integrals replicated.
 Density matrix breaks symmetry, PCut= 1.00D-07
 Density matrix has no symmetry -- integrals replicated.
 Density matrix breaks symmetry, PCut= 1.00D-07
 Density matrix has no symmetry -- integrals replicated.
 Density matrix breaks symmetry, PCut= 1.00D-07
 Density matrix has no symmetry -- integrals replicated.
 Density matrix breaks symmetry, PCut= 1.00D-07
 Density matrix has no symmetry -- integrals replicated.
 Density matrix breaks symmetry, PCut= 1.00D-07
 Density matrix has no symmetry -- integrals replicated.
 Density matrix breaks symmetry, PCut= 1.00D-07
 Density matrix has no symmetry -- integrals replicated.
 SCF Done:  E(UHF) =  -4.84001716417     A.U. after   33 cycles
            NFock= 33  Conv=0.25D-08     -V/T= 1.9314
 <Sx>= 0.0000 <Sy>= 0.0000 <Sz>= 0.0000 <S**2>= 1.2516 S= 0.7254
 <L.S>= 0.000000000000E+00
 Annihilation of the first spin contaminant:
 S**2 before annihilation     1.2516,   after     1.9176
 Range of M.O.s used for correlation:     1    10
 NBasis=    10 NAE=     5 NBE=     5 NFC=     0 NFV=     0
 NROrb=     10 NOA=     5 NOB=     5 NVA=     5 NVB=     5
 Semi-Direct transformation.
 ModeAB=           2 MOrb=             5 LenV=     134107697
 LASXX=         1030 LTotXX=        1030 LenRXX=        1030
 LTotAB=        1825 MaxLAS=        2750 LenRXY=        2750
 NonZer=        2750 LenScr=      655360 LnRSAI=           0
 LnScr1=           0 LExtra=           0 Total=       659140
 MaxDsk=          -1 SrtSym=           F ITran=            3
 JobTyp=1 Pass  1:  I=   1 to   5.
 (rs|ai) integrals will be sorted in core.
 ModeAB=           2 MOrb=             5 LenV=     134107697
 LASXX=         1030 LTotXX=        1030 LenRXX=        2750
 LTotAB=         225 MaxLAS=        2750 LenRXY=         225
 NonZer=        2750 LenScr=      655360 LnRSAI=           0
 LnScr1=           0 LExtra=           0 Total=       658335
 MaxDsk=          -1 SrtSym=           F ITran=            3
 JobTyp=2 Pass  1:  I=   1 to   5.
 (rs|ai) integrals will be sorted in core.
 SymMOI:  orbitals are not symmetric.
 Spin components of T(2) and E(2):
     alpha-alpha T2 =       0.5086292775D-02 E2=     -0.6748006963D-02
     alpha-beta  T2 =       0.4145248519D-01 E2=     -0.6086861381D-01
     beta-beta   T2 =       0.3891629328D-02 E2=     -0.5284554748D-02
 ANorm=    0.1024905072D+01
 E2 =    -0.7290117552D-01 EUMP2 =    -0.49129183396883D+01
 (S**2,0)=  0.12516D+01           (S**2,1)=  0.12129D+01
 E(PUHF)=      -0.48971361090D+01        E(PMP2)=      -0.49696259684D+01
 Second order stability test of a single determinant UHF wave function:
 Stabil:  MDV=134217728
 ***********************************************************************
 Matrix         Lowest Root    Major Pairs
 ***********************************************************************

 Internal UHF    -0.0564795    5A=6A 4B=6B 4A=8A 3A=7A 5B=6B 3A=6A 3B=8B 2B=7B
 RUHF --> CUHF (A)-0.0042156    5A=6A
 RUHF --> CUHF (B)0.1134435    Stable

 RUHF --> GHF    -0.0359344    5B=6A 5A=6B 4A=8B 4B=7A 4B=6A 3A=6B 3B=8A 3A=7B 5A
 =7B 5B=9A
 Not stable.
 ***********************************************************************

 **********************************************************************

            Population analysis using the SCF density.

 **********************************************************************

 Orbital symmetries:
 Alpha Orbitals:
       Occupied  (AG) (BU) (AG) (BU) (AG)
       Virtual   (BU) (BU) (AG) (BU) (AG)
 Beta  Orbitals:
       Occupied  (AG) (BU) (AG) (BU) (BU)
       Virtual   (AG) (AG) (BU) (BU) (AG)
 The electronic state is 1-BU.
 Alpha  occ. eigenvalues --   -0.83860  -0.75348  -0.52119  -0.38787  -0.28706
 Alpha virt. eigenvalues --   -0.02082   0.20405   0.24820   0.55643   0.57108
  Beta  occ. eigenvalues --   -0.84902  -0.71324  -0.57521  -0.39264  -0.33124
  Beta virt. eigenvalues --    0.04614   0.21790   0.28435   0.53602   0.55860
          Condensed to atoms (all electrons):
               1          2          3          4          5          6
     1  H    0.838275   0.042532   0.201621  -0.100592  -0.035515  -0.002191
     2  H    0.042532   0.993906  -0.194890   0.253470  -0.119155   0.002930
     3  H    0.201621  -0.194890   1.039201  -0.180728   0.268844  -0.091253
     4  H   -0.100592   0.253470  -0.180728   0.987125  -0.056951   0.212513
     5  H   -0.035515  -0.119155   0.268844  -0.056951   1.046253  -0.181069
     6  H   -0.002191   0.002930  -0.091253   0.212513  -0.181069   1.046253
     7  H    0.002827  -0.006157  -0.013988  -0.092289   0.212513  -0.056951
     8  H    0.002090  -0.001665  -0.000827  -0.013988  -0.091253   0.268844
     9  H   -0.000144   0.002351  -0.001665  -0.006157   0.002930  -0.119155
    10  H   -0.000113  -0.000144   0.002090   0.002827  -0.002191  -0.035515
               7          8          9         10
     1  H    0.002827   0.002090  -0.000144  -0.000113
     2  H   -0.006157  -0.001665   0.002351  -0.000144
     3  H   -0.013988  -0.000827  -0.001665   0.002090
     4  H   -0.092289  -0.013988  -0.006157   0.002827
     5  H    0.212513  -0.091253   0.002930  -0.002191
     6  H   -0.056951   0.268844  -0.119155  -0.035515
     7  H    0.987125  -0.180728   0.253470  -0.100592
     8  H   -0.180728   1.039201  -0.194890   0.201621
     9  H    0.253470  -0.194890   0.993906   0.042532
    10  H   -0.100592   0.201621   0.042532   0.838275
          Atomic-Atomic Spin Densities.
               1          2          3          4          5          6
     1  H   -0.502679  -0.185875   0.168200   0.022906   0.044052  -0.008146
     2  H   -0.185875   0.750506  -0.212187   0.196351  -0.042846  -0.022247
     3  H    0.168200  -0.212187   0.593387  -0.214331  -0.027495   0.025956
     4  H    0.022906   0.196351  -0.214331  -0.238868  -0.033567  -0.024171
     5  H    0.044052  -0.042846  -0.027495  -0.033567  -0.337218   0.279667
     6  H   -0.008146  -0.022247   0.025956  -0.024171   0.279667  -0.337218
     7  H   -0.007691   0.003988  -0.011906   0.108264  -0.024171  -0.033567
     8  H   -0.000115  -0.005363   0.013292  -0.011906   0.025956  -0.027495
     9  H   -0.000197   0.002703  -0.005363   0.003988  -0.022247  -0.042846
    10  H    0.000317  -0.000197  -0.000115  -0.007691  -0.008146   0.044052
               7          8          9         10
     1  H   -0.007691  -0.000115  -0.000197   0.000317
     2  H    0.003988  -0.005363   0.002703  -0.000197
     3  H   -0.011906   0.013292  -0.005363  -0.000115
     4  H    0.108264  -0.011906   0.003988  -0.007691
     5  H   -0.024171   0.025956  -0.022247  -0.008146
     6  H   -0.033567  -0.027495  -0.042846   0.044052
     7  H   -0.238868  -0.214331   0.196351   0.022906
     8  H   -0.214331   0.593387  -0.212187   0.168200
     9  H    0.196351  -0.212187   0.750506  -0.185875
    10  H    0.022906   0.168200  -0.185875  -0.502679
 Mulliken charges and spin densities:
               1          2
     1  H    0.051211  -0.469229
     2  H    0.026823   0.484832
     3  H   -0.028402   0.329438
     4  H   -0.005227  -0.199025
     5  H   -0.044404  -0.146015
     6  H   -0.044404  -0.146015
     7  H   -0.005227  -0.199025
     8  H   -0.028402   0.329438
     9  H    0.026823   0.484832
    10  H    0.051211  -0.469229
 Sum of Mulliken charges =   0.00000   0.00000
 Mulliken charges and spin densities with hydrogens summed into heavy atoms:
               1          2
 Electronic spatial extent (au):  <R**2>=            139.1251
 Charge=              0.0000 electrons
 Dipole moment (field-independent basis, Debye):
    X=             -0.0000    Y=              0.0000    Z=              0.0000  Tot=              0.0000
 Quadrupole moment (field-independent basis, Debye-Ang):
   XX=            -11.7684   YY=            -14.4402   ZZ=            -12.9562
   XY=              2.6998   XZ=              0.0000   YZ=             -0.0000
 Traceless Quadrupole moment (field-independent basis, Debye-Ang):
   XX=              1.2866   YY=             -1.3853   ZZ=              0.0987
   XY=              2.6998   XZ=              0.0000   YZ=             -0.0000
 Octapole moment (field-independent basis, Debye-Ang**2):
  XXX=             -0.0000  YYY=              0.0000  ZZZ=              0.0000  XYY=              0.0000
  XXY=             -0.0000  XXZ=             -0.0000  XZZ=              0.0000  YZZ=             -0.0000
  YYZ=              0.0000  XYZ=              0.0000
 Hexadecapole moment (field-independent basis, Debye-Ang**3):
 XXXX=           -165.7632 YYYY=           -112.0660 ZZZZ=            -15.6824 XXXY=            -37.2002
 XXXZ=             -0.0000 YYYX=            -44.1703 YYYZ=             -0.0000 ZZZX=             -0.0000
 ZZZY=             -0.0000 XXYY=            -39.8146 XXZZ=            -30.9076 YYZZ=            -21.0405
 XXYZ=             -0.0000 YYXZ=             -0.0000 ZZXY=            -15.7004
 N-N= 1.310945082556D+01 E-N=-3.544563499141D+01  KE= 5.196248214703D+00
 Symmetry AG   KE= 2.351874190224D+00
 Symmetry BG   KE= 0.000000000000D+00
 Symmetry AU   KE= 0.000000000000D+00
 Symmetry BU   KE= 2.844374024479D+00
                          Isotropic Fermi Contact Couplings
        Atom                 a.u.       MegaHertz       Gauss      10(-4) cm-1
     1  H(1)              -0.15392    -343.99115    -122.74459    -114.74310
     2  H(1)               0.20302     453.74454     161.90733     151.35289
     3  H(1)               0.14903     333.06522     118.84595     111.09860
     4  H(1)              -0.07516    -167.98342     -59.94066     -56.03324
     5  H(1)              -0.08168    -182.55989     -65.14190     -60.89542
     6  H(1)              -0.08168    -182.55989     -65.14190     -60.89542
     7  H(1)              -0.07516    -167.98342     -59.94066     -56.03324
     8  H(1)               0.14903     333.06522     118.84595     111.09860
     9  H(1)               0.20302     453.74454     161.90733     151.35289
    10  H(1)              -0.15392    -343.99115    -122.74459    -114.74310
 --------------------------------------------------------
       Center         ----  Spin Dipole Couplings  ----
                      3XX-RR        3YY-RR        3ZZ-RR
 --------------------------------------------------------
     1   Atom        0.024350      0.022159     -0.046509
     2   Atom        0.019523     -0.055161      0.035638
     3   Atom       -0.003607     -0.032093      0.035699
     4   Atom        0.052572     -0.024904     -0.027668
     5   Atom       -0.027979      0.026001      0.001977
     6   Atom       -0.027979      0.026001      0.001977
     7   Atom        0.052572     -0.024904     -0.027668
     8   Atom       -0.003607     -0.032093      0.035699
     9   Atom        0.019523     -0.055161      0.035638
    10   Atom        0.024350      0.022159     -0.046509
 --------------------------------------------------------
                        XY            XZ            YZ
 --------------------------------------------------------
     1   Atom        0.026839     -0.000000     -0.000000
     2   Atom       -0.039209     -0.000000     -0.000000
     3   Atom       -0.089192     -0.000000     -0.000000
     4   Atom        0.048766     -0.000000     -0.000000
     5   Atom        0.031571      0.000000     -0.000000
     6   Atom        0.031571      0.000000      0.000000
     7   Atom        0.048766      0.000000      0.000000
     8   Atom       -0.089192     -0.000000     -0.000000
     9   Atom       -0.039209      0.000000     -0.000000
    10   Atom        0.026839      0.000000     -0.000000
 --------------------------------------------------------


 ---------------------------------------------------------------------------------
              Anisotropic Spin Dipole Couplings in Principal Axis System
 ---------------------------------------------------------------------------------

       Atom             a.u.   MegaHertz   Gauss  10(-4) cm-1        Axes

              Baa    -0.0465   -24.815    -8.855    -8.277  0.0000  0.0000  1.0000
     1 H(1)   Bbb    -0.0036    -1.925    -0.687    -0.642 -0.6925  0.7214 -0.0000
              Bcc     0.0501    26.740     9.541     8.919  0.7214  0.6925  0.0000
 
              Baa    -0.0720   -38.397   -13.701   -12.808  0.3939  0.9191  0.0000
     2 H(1)   Bbb     0.0356    19.015     6.785     6.343  0.0000  0.0000  1.0000
              Bcc     0.0363    19.383     6.916     6.465  0.9191 -0.3939  0.0000
 
              Baa    -0.1082   -57.715   -20.594   -19.252  0.6490  0.7608  0.0000
     3 H(1)   Bbb     0.0357    19.048     6.797     6.354  0.0000  0.0000  1.0000
              Bcc     0.0725    38.668    13.798    12.898  0.7608 -0.6490  0.0000
 
              Baa    -0.0484   -25.848    -9.223    -8.622 -0.4347  0.9006 -0.0000
     4 H(1)   Bbb    -0.0277   -14.762    -5.268    -4.924  0.0000  0.0000  1.0000
              Bcc     0.0761    40.610    14.491    13.546  0.9006  0.4347  0.0000
 
              Baa    -0.0425   -22.689    -8.096    -7.568  0.9082 -0.4184  0.0000
     5 H(1)   Bbb     0.0020     1.055     0.376     0.352  0.0000  0.0000  1.0000
              Bcc     0.0405    21.634     7.719     7.216  0.4184  0.9082  0.0000
 
              Baa    -0.0425   -22.689    -8.096    -7.568  0.9082 -0.4184  0.0000
     6 H(1)   Bbb     0.0020     1.055     0.376     0.352  0.0000  0.0000  1.0000
              Bcc     0.0405    21.634     7.719     7.216  0.4184  0.9082 -0.0000
 
              Baa    -0.0484   -25.848    -9.223    -8.622 -0.4347  0.9006 -0.0000
     7 H(1)   Bbb    -0.0277   -14.762    -5.268    -4.924  0.0000  0.0000  1.0000
              Bcc     0.0761    40.610    14.491    13.546  0.9006  0.4347  0.0000
 
              Baa    -0.1082   -57.715   -20.594   -19.252  0.6490  0.7608  0.0000
     8 H(1)   Bbb     0.0357    19.048     6.797     6.354  0.0000  0.0000  1.0000
              Bcc     0.0725    38.668    13.798    12.898  0.7608 -0.6490  0.0000
 
              Baa    -0.0720   -38.397   -13.701   -12.808  0.3939  0.9191  0.0000
     9 H(1)   Bbb     0.0356    19.015     6.785     6.343  0.0000  0.0000  1.0000
              Bcc     0.0363    19.383     6.916     6.465  0.9191 -0.3939  0.0000
 
              Baa    -0.0465   -24.815    -8.855    -8.277  0.0000  0.0000  1.0000
    10 H(1)   Bbb    -0.0036    -1.925    -0.687    -0.642 -0.6925  0.7214 -0.0000
              Bcc     0.0501    26.740     9.541     8.919  0.7214  0.6925  0.0000
 

 ---------------------------------------------------------------------------------


 Test job not archived.
 1\1\GINC-SULU\Stability\UHF\Gen\H10\LCJ1\28-Feb-2017\0\\#uhf/gen scf(t
 ight,novaracc,noincfock,fulldiag) stable(cuhf) guess=read geom=nocrowd
  test\\hf stability analysis of h10 triangular lattice, y= 1.025851183
 9050852\\0,1\H\H,1,1.1700922328\H,1,1.1700922328,2,57.5\H,2,1.17009223
 28,1,122.5,3,0.,0\H,3,1.1700922328,1,180.,2,0.,0\H,4,1.1700922328,2,18
 0.,1,0.,0\H,5,1.1700922328,3,180.,2,0.,0\H,6,1.1700922328,4,180.,1,0.,
 0\H,7,1.1700922328,5,180.,2,0.,0\H,8,1.1700922328,6,180.,1,0.,0\\Versi
 on=ES64L-G09RevE.01\State=1-BU\HF=-4.8400172\MP2=-4.9129183\PUHF=-4.89
 71361\PMP2-0=-4.969626\S2=1.251618\S2-1=1.212896\S2A=1.917603\RMSD=2.4
 89e-09\Dipole=0.,0.,0.\Quadrupole=0.9565378,0.0733887,-1.0299265,0.,2.
 0072348,0.\PG=C02H [SGH(H10)]\\@


 A COMPUTER IS LIKE A HORSE, IT WILL SENSE WEAKNESS.
     -- GREG WETTSTEIN
 Job cpu time:       0 days  0 hours  0 minutes  1.3 seconds.
 File lengths (MBytes):  RWF=     94 Int=      0 D2E=      0 Chk=      2 Scr=      2
 Normal termination of Gaussian 09 at Tue Feb 28 18:18:00 2017.
