 Entering Gaussian System, Link 0=g09
 AtFile(1): H.gbs
            H     0
            S   10   1.00
               1000.000000000000            0.000068713567
                316.227766000000            0.000169141320
                100.000000000000            0.000823394812
                 31.622776600000            0.003425569236
                 10.000000000000            0.013951996000
                  3.162277660000            0.056909313560
                  1.000000000000            0.198286399900
                  0.316227766000            0.496922426700
                  0.100000000000            0.369846276400
                  0.031622776600            0.003752720039
            ****
 Initial command:
 /projects/guscus/apps/gau/g09-e1/g09/l1.exe "/users/lcj1/gaussian/h10/2rows_uhf/singlet/staboptguess/Gau-8490.inp" -scrdir="/users/lcj1/gaussian/h10/2rows_uhf/singlet/staboptguess/"
 Entering Link 1 = /projects/guscus/apps/gau/g09-e1/g09/l1.exe PID=      8491.
  
 Copyright (c) 1988,1990,1992,1993,1995,1998,2003,2009,2015,
            Gaussian, Inc.  All Rights Reserved.
  
 This is part of the Gaussian(R) 09 program.  It is based on
 the Gaussian(R) 03 system (copyright 2003, Gaussian, Inc.),
 the Gaussian(R) 98 system (copyright 1998, Gaussian, Inc.),
 the Gaussian(R) 94 system (copyright 1995, Gaussian, Inc.),
 the Gaussian 92(TM) system (copyright 1992, Gaussian, Inc.),
 the Gaussian 90(TM) system (copyright 1990, Gaussian, Inc.),
 the Gaussian 88(TM) system (copyright 1988, Gaussian, Inc.),
 the Gaussian 86(TM) system (copyright 1986, Carnegie Mellon
 University), and the Gaussian 82(TM) system (copyright 1983,
 Carnegie Mellon University). Gaussian is a federally registered
 trademark of Gaussian, Inc.
  
 This software contains proprietary and confidential information,
 including trade secrets, belonging to Gaussian, Inc.
  
 This software is provided under written license and may be
 used, copied, transmitted, or stored only in accord with that
 written license.
  
 The following legend is applicable only to US Government
 contracts under FAR:
  
                    RESTRICTED RIGHTS LEGEND
  
 Use, reproduction and disclosure by the US Government is
 subject to restrictions as set forth in subparagraphs (a)
 and (c) of the Commercial Computer Software - Restricted
 Rights clause in FAR 52.227-19.
  
 Gaussian, Inc.
 340 Quinnipiac St., Bldg. 40, Wallingford CT 06492
  
  
 ---------------------------------------------------------------
 Warning -- This program may not be used in any manner that
 competes with the business of Gaussian, Inc. or will provide
 assistance to any competitor of Gaussian, Inc.  The licensee
 of this program is prohibited from giving any competitor of
 Gaussian, Inc. access to this program.  By using this program,
 the user acknowledges that Gaussian, Inc. is engaged in the
 business of creating and licensing software in the field of
 computational chemistry and represents and warrants to the
 licensee that it is not a competitor of Gaussian, Inc. and that
 it will not use this program in any manner prohibited above.
 ---------------------------------------------------------------
  

 Cite this work as:
 Gaussian 09, Revision E.01,
 M. J. Frisch, G. W. Trucks, H. B. Schlegel, G. E. Scuseria, 
 M. A. Robb, J. R. Cheeseman, G. Scalmani, V. Barone, B. Mennucci, 
 G. A. Petersson, H. Nakatsuji, M. Caricato, X. Li, H. P. Hratchian, 
 A. F. Izmaylov, J. Bloino, G. Zheng, J. L. Sonnenberg, M. Hada, 
 M. Ehara, K. Toyota, R. Fukuda, J. Hasegawa, M. Ishida, T. Nakajima, 
 Y. Honda, O. Kitao, H. Nakai, T. Vreven, J. A. Montgomery, Jr., 
 J. E. Peralta, F. Ogliaro, M. Bearpark, J. J. Heyd, E. Brothers, 
 K. N. Kudin, V. N. Staroverov, T. Keith, R. Kobayashi, J. Normand, 
 K. Raghavachari, A. Rendell, J. C. Burant, S. S. Iyengar, J. Tomasi, 
 M. Cossi, N. Rega, J. M. Millam, M. Klene, J. E. Knox, J. B. Cross, 
 V. Bakken, C. Adamo, J. Jaramillo, R. Gomperts, R. E. Stratmann, 
 O. Yazyev, A. J. Austin, R. Cammi, C. Pomelli, J. W. Ochterski, 
 R. L. Martin, K. Morokuma, V. G. Zakrzewski, G. A. Voth, 
 P. Salvador, J. J. Dannenberg, S. Dapprich, A. D. Daniels, 
 O. Farkas, J. B. Foresman, J. V. Ortiz, J. Cioslowski, 
 and D. J. Fox, Gaussian, Inc., Wallingford CT, 2013.
 
 ******************************************
 Gaussian 09:  ES64L-G09RevE.01 30-Nov-2015
                28-Feb-2017 
 ******************************************
 %chk=h10.chk
 ----------------------------------------------------------------------
 #uhf/gen scf(tight,novaracc,noincfock,fulldiag) stable(cuhf) guess=rea
 d geom=nocrowd test
 ----------------------------------------------------------------------
 1/38=1/1;
 2/12=1,17=6,18=5,40=1/2;
 3/5=7,16=1,25=1,30=1,116=2/1,2,3;
 4/5=1/1;
 5/5=100002,16=1,32=2,38=6/2;
 8/6=1,10=90,11=11/1,4;
 9/8=4,13=1/2;
 6/7=2,8=2,9=2,10=2,28=1/1;
 99/5=1,9=1/99;
 ----------------------------------------------------------------------
 hf stability analysis of h10 triangular lattice, y= 0.6506387228320011
 9
 ----------------------------------------------------------------------
 Symbolic Z-matrix:
 Charge =  0 Multiplicity = 1
 H
 H                    1     1.10034 
 H                    1     1.10034  2     107.5 
 H                    2     1.10034  1     72.5     3     0.       0
 H                    3     1.10034  1     180.     2     0.       0
 H                    4     1.10034  2     180.     1     0.       0
 H                    5     1.10034  3     180.     2     0.       0
 H                    6     1.10034  4     180.     1     0.       0
 H                    7     1.10034  5     180.     2     0.       0
 H                    8     1.10034  6     180.     1     0.       0
 
                          Input orientation:                          
 ---------------------------------------------------------------------
 Center     Atomic      Atomic             Coordinates (Angstroms)
 Number     Number       Type             X           Y           Z
 ---------------------------------------------------------------------
      1          1           0        0.000000    0.000000    0.000000
      2          1           0        0.000000    0.000000    1.100335
      3          1           0        1.049408    0.000000   -0.330877
      4          1           0        1.049408    0.000000    0.769458
      5          1           0        2.098816    0.000000   -0.661754
      6          1           0        2.098816    0.000000    0.438581
      7          1           0        3.148224    0.000000   -0.992631
      8          1           0        3.148224    0.000000    0.107704
      9          1           0        4.197633    0.000000   -1.323508
     10          1           0        4.197633    0.000000   -0.223173
 ---------------------------------------------------------------------
                    Distance matrix (angstroms):
                    1          2          3          4          5
     1  H    0.000000
     2  H    1.100335   0.000000
     3  H    1.100335   1.774718   0.000000
     4  H    1.301277   1.100335   1.100335   0.000000
     5  H    2.200670   2.740436   1.100335   1.774718   0.000000
     6  H    2.144151   2.200670   1.301277   1.100335   1.100335
     7  H    3.301005   3.780453   2.200670   2.740436   1.100335
     8  H    3.150066   3.301005   2.144151   2.200670   1.301277
     9  H    4.401340   4.847178   3.301005   3.780453   2.200670
    10  H    4.203561   4.401340   3.150066   3.301005   2.144151
                    6          7          8          9         10
     6  H    0.000000
     7  H    1.774718   0.000000
     8  H    1.100335   1.100335   0.000000
     9  H    2.740436   1.100335   1.774718   0.000000
    10  H    2.200670   1.301277   1.100335   1.100335   0.000000
 Stoichiometry    H10
 Framework group  C2H[SGH(H10)]
 Deg. of freedom     9
 Full point group                 C2H     NOp   4
 Largest Abelian subgroup         C2H     NOp   4
 Largest concise Abelian subgroup C2      NOp   2
                         Standard orientation:                         
 ---------------------------------------------------------------------
 Center     Atomic      Atomic             Coordinates (Angstroms)
 Number     Number       Type             X           Y           Z
 ---------------------------------------------------------------------
      1          1           0        2.098816   -0.111587    0.000000
      2          1           0        2.098816   -1.211922    0.000000
      3          1           0        1.049408    0.219290    0.000000
      4          1           0        1.049408   -0.881045    0.000000
      5          1           0       -0.000000    0.550168    0.000000
      6          1           0       -0.000000   -0.550168    0.000000
      7          1           0       -1.049408    0.881045    0.000000
      8          1           0       -1.049408   -0.219290    0.000000
      9          1           0       -2.098816    1.211922    0.000000
     10          1           0       -2.098816    0.111587    0.000000
 ---------------------------------------------------------------------
 Rotational constants (GHZ):    184.4581716     20.4483126     18.4077061
 General basis read from cards:  (5D, 7F)
 There are     5 symmetry adapted cartesian basis functions of AG  symmetry.
 There are     0 symmetry adapted cartesian basis functions of BG  symmetry.
 There are     0 symmetry adapted cartesian basis functions of AU  symmetry.
 There are     5 symmetry adapted cartesian basis functions of BU  symmetry.
 There are     5 symmetry adapted basis functions of AG  symmetry.
 There are     0 symmetry adapted basis functions of BG  symmetry.
 There are     0 symmetry adapted basis functions of AU  symmetry.
 There are     5 symmetry adapted basis functions of BU  symmetry.
    10 basis functions,   100 primitive gaussians,    10 cartesian basis functions
     5 alpha electrons        5 beta electrons
       nuclear repulsion energy        13.5665063935 Hartrees.
 NAtoms=   10 NActive=   10 NUniq=    5 SFac= 4.00D+00 NAtFMM=   60 NAOKFM=F Big=F
 Integral buffers will be    131072 words long.
 Regular integral format.
 Two-electron integral symmetry is turned on.
 One-electron integrals computed using PRISM.
 NBasis=    10 RedAO= T EigKep=  1.44D-01  NBF=     5     0     0     5
 NBsUse=    10 1.00D-06 EigRej= -1.00D+00 NBFU=     5     0     0     5
 Initial guess from the checkpoint file:  "h10.chk"
 B after Tr=    -0.000000    0.000000   -0.000000
         Rot=    0.961907   -0.000000    0.000000   -0.273377 Ang= -31.73 deg.
 Initial guess orbital symmetries:
 Alpha Orbitals:
       Occupied  (BG) (BG) (BG) (BG) (BG)
       Virtual   (BG) (BG) (BG) (BG) (BG)
 Beta  Orbitals:
       Occupied  (BG) (BG) (BG) (BG) (BG)
       Virtual   (BG) (BG) (BG) (BG) (BG)
 Initial guess <Sx>= 0.0000 <Sy>= 0.0000 <Sz>= 0.0000 <S**2>= 1.4081 S= 0.7877
 Keep R1 and R2 ints in memory in symmetry-blocked form, NReq=879439.
 Requested convergence on RMS density matrix=1.00D-08 within 128 cycles.
 Requested convergence on MAX density matrix=1.00D-06.
 Requested convergence on             energy=1.00D-06.
 No special actions if energy rises.
 An orbital has undefined symmetry, so N**3 symmetry is turned off.
 Density matrix breaks symmetry, PCut= 1.00D-04
 Density matrix has no symmetry -- integrals replicated.
 Density matrix breaks symmetry, PCut= 1.00D-07
 Density matrix has no symmetry -- integrals replicated.
 Density matrix breaks symmetry, PCut= 1.00D-07
 Density matrix has no symmetry -- integrals replicated.
 Density matrix breaks symmetry, PCut= 1.00D-07
 Density matrix has no symmetry -- integrals replicated.
 Density matrix breaks symmetry, PCut= 1.00D-07
 Density matrix has no symmetry -- integrals replicated.
 Density matrix breaks symmetry, PCut= 1.00D-07
 Density matrix has no symmetry -- integrals replicated.
 Density matrix breaks symmetry, PCut= 1.00D-07
 Density matrix has no symmetry -- integrals replicated.
 Density matrix breaks symmetry, PCut= 1.00D-07
 Density matrix has no symmetry -- integrals replicated.
 Rare condition: small coef for last iteration:  0.000D+00
 Density matrix breaks symmetry, PCut= 1.00D-07
 Density matrix has no symmetry -- integrals replicated.
 Rare condition: small coef for last iteration:  0.000D+00
 Density matrix breaks symmetry, PCut= 1.00D-07
 Density matrix has no symmetry -- integrals replicated.
 Density matrix breaks symmetry, PCut= 1.00D-07
 Density matrix has no symmetry -- integrals replicated.
 Density matrix breaks symmetry, PCut= 1.00D-07
 Density matrix has no symmetry -- integrals replicated.
 Rare condition: small coef for last iteration:  0.000D+00
 Density matrix breaks symmetry, PCut= 1.00D-07
 Density matrix has no symmetry -- integrals replicated.
 Density matrix breaks symmetry, PCut= 1.00D-07
 Density matrix has no symmetry -- integrals replicated.
 Density matrix breaks symmetry, PCut= 1.00D-07
 Density matrix has no symmetry -- integrals replicated.
 Density matrix breaks symmetry, PCut= 1.00D-07
 Density matrix has no symmetry -- integrals replicated.
 Density matrix breaks symmetry, PCut= 1.00D-07
 Density matrix has no symmetry -- integrals replicated.
 Rare condition: small coef for last iteration:  0.000D+00
 Density matrix breaks symmetry, PCut= 1.00D-07
 Density matrix has no symmetry -- integrals replicated.
 Rare condition: small coef for last iteration:  0.000D+00
 Density matrix breaks symmetry, PCut= 1.00D-07
 Density matrix has no symmetry -- integrals replicated.
 Density matrix breaks symmetry, PCut= 1.00D-07
 Density matrix has no symmetry -- integrals replicated.
 Density matrix breaks symmetry, PCut= 1.00D-07
 Density matrix has no symmetry -- integrals replicated.
 Density matrix breaks symmetry, PCut= 1.00D-07
 Density matrix has no symmetry -- integrals replicated.
 Rare condition: small coef for last iteration:  0.000D+00
 Density matrix breaks symmetry, PCut= 1.00D-07
 Density matrix has no symmetry -- integrals replicated.
 Rare condition: small coef for last iteration:  0.000D+00
 Density matrix breaks symmetry, PCut= 1.00D-07
 Density matrix has no symmetry -- integrals replicated.
 Density matrix breaks symmetry, PCut= 1.00D-07
 Density matrix has no symmetry -- integrals replicated.
 Density matrix breaks symmetry, PCut= 1.00D-07
 Density matrix has no symmetry -- integrals replicated.
 Density matrix breaks symmetry, PCut= 1.00D-07
 Density matrix has no symmetry -- integrals replicated.
 Density matrix breaks symmetry, PCut= 1.00D-07
 Density matrix has no symmetry -- integrals replicated.
 Density matrix breaks symmetry, PCut= 1.00D-07
 Density matrix has no symmetry -- integrals replicated.
 Density matrix breaks symmetry, PCut= 1.00D-07
 Density matrix has no symmetry -- integrals replicated.
 Density matrix breaks symmetry, PCut= 1.00D-07
 Density matrix has no symmetry -- integrals replicated.
 Density matrix breaks symmetry, PCut= 1.00D-07
 Density matrix has no symmetry -- integrals replicated.
 Density matrix breaks symmetry, PCut= 1.00D-07
 Density matrix has no symmetry -- integrals replicated.
 Density matrix breaks symmetry, PCut= 1.00D-07
 Density matrix has no symmetry -- integrals replicated.
 Density matrix breaks symmetry, PCut= 1.00D-07
 Density matrix has no symmetry -- integrals replicated.
 Density matrix breaks symmetry, PCut= 1.00D-07
 Density matrix has no symmetry -- integrals replicated.
 Density matrix breaks symmetry, PCut= 1.00D-07
 Density matrix has no symmetry -- integrals replicated.
 Density matrix breaks symmetry, PCut= 1.00D-07
 Density matrix has no symmetry -- integrals replicated.
 Density matrix breaks symmetry, PCut= 1.00D-07
 Density matrix has no symmetry -- integrals replicated.
 Density matrix breaks symmetry, PCut= 1.00D-07
 Density matrix has no symmetry -- integrals replicated.
 Density matrix breaks symmetry, PCut= 1.00D-07
 Density matrix has no symmetry -- integrals replicated.
 Density matrix breaks symmetry, PCut= 1.00D-07
 Density matrix has no symmetry -- integrals replicated.
 Density matrix breaks symmetry, PCut= 1.00D-07
 Density matrix has no symmetry -- integrals replicated.
 SCF Done:  E(UHF) =  -4.83487508455     A.U. after   42 cycles
            NFock= 42  Conv=0.82D-08     -V/T= 1.9315
 <Sx>= 0.0000 <Sy>= 0.0000 <Sz>= 0.0000 <S**2>= 0.3619 S= 0.2823
 <L.S>= 0.000000000000E+00
 Annihilation of the first spin contaminant:
 S**2 before annihilation     0.3619,   after     0.0399
 Range of M.O.s used for correlation:     1    10
 NBasis=    10 NAE=     5 NBE=     5 NFC=     0 NFV=     0
 NROrb=     10 NOA=     5 NOB=     5 NVA=     5 NVB=     5
 Semi-Direct transformation.
 ModeAB=           2 MOrb=             5 LenV=     134107319
 LASXX=         1030 LTotXX=        1030 LenRXX=        1030
 LTotAB=        1825 MaxLAS=        2750 LenRXY=        2750
 NonZer=        2750 LenScr=      655360 LnRSAI=           0
 LnScr1=           0 LExtra=           0 Total=       659140
 MaxDsk=          -1 SrtSym=           F ITran=            3
 JobTyp=1 Pass  1:  I=   1 to   5.
 (rs|ai) integrals will be sorted in core.
 ModeAB=           2 MOrb=             5 LenV=     134107319
 LASXX=         1030 LTotXX=        1030 LenRXX=        2750
 LTotAB=         225 MaxLAS=        2750 LenRXY=         225
 NonZer=        2750 LenScr=      655360 LnRSAI=           0
 LnScr1=           0 LExtra=           0 Total=       658335
 MaxDsk=          -1 SrtSym=           F ITran=            3
 JobTyp=2 Pass  1:  I=   1 to   5.
 (rs|ai) integrals will be sorted in core.
 SymMOI:  orbitals are not symmetric.
 Spin components of T(2) and E(2):
     alpha-alpha T2 =       0.4789414982D-02 E2=     -0.6476511274D-02
     alpha-beta  T2 =       0.5092096391D-01 E2=     -0.7411369451D-01
     beta-beta   T2 =       0.4094290474D-02 E2=     -0.5675748957D-02
 ANorm=    0.1029468149D+01
 E2 =    -0.8626595474D-01 EUMP2 =    -0.49211410392966D+01
 (S**2,0)=  0.36192D+00           (S**2,1)=  0.31668D+00
 E(PUHF)=      -0.48506859185D+01        E(PMP2)=      -0.49360151905D+01
 Second order stability test of a single determinant UHF wave function:
 Stabil:  MDV=134217728
 ***********************************************************************
 Matrix         Lowest Root    Major Pairs
 ***********************************************************************
 Internal UHF    -0.0782549    5A=6A 5B=6B
 RUHF --> CUHF (A)-0.0494519    5A=6A
 RUHF --> CUHF (B)-0.0205316    5B=6B

 RUHF --> GHF    -0.0839009    5B=6A 5A=6B 4B=6A 4B=7A 4B=8A 3A=8B 5B=8A
 Not stable.
 ***********************************************************************

 **********************************************************************

            Population analysis using the SCF density.

 **********************************************************************

 Orbital symmetries:
 Alpha Orbitals:
       Occupied  (BG) (BG) (BG) (BG) (BG)
       Virtual   (BG) (BG) (BG) (BG) (BG)
 Beta  Orbitals:
       Occupied  (BG) (BG) (BG) (BG) (BG)
       Virtual   (BG) (BG) (BG) (BG) (BG)
 Unable to determine electronic state:  partially filled degenerate orbitals.
 Alpha  occ. eigenvalues --   -0.86748  -0.74185  -0.53904  -0.43953  -0.26989
 Alpha virt. eigenvalues --   -0.04121   0.20266   0.31411   0.51875   0.77504
  Beta  occ. eigenvalues --   -0.87532  -0.73648  -0.54510  -0.43678  -0.27797
  Beta virt. eigenvalues --   -0.02043   0.18761   0.29989   0.54526   0.76766
          Condensed to atoms (all electrons):
               1          2          3          4          5          6
     1  H    1.155957   0.225251   0.213185  -0.314248  -0.001941  -0.137375
     2  H    0.225251   0.533266  -0.051025   0.121975  -0.029719  -0.023760
     3  H    0.213185  -0.051025   0.740971  -0.159698   0.265644  -0.109466
     4  H   -0.314248   0.121975  -0.159698   1.311676  -0.115601   0.427902
     5  H   -0.001941  -0.029719   0.265644  -0.115601   0.930700  -0.005028
     6  H   -0.137375  -0.023760  -0.109466   0.427902  -0.005028   0.877244
     7  H   -0.001343  -0.000495   0.012876  -0.003716   0.123246  -0.066245
     8  H    0.020803   0.005168  -0.049368  -0.099487  -0.056717   0.029691
     9  H   -0.002663   0.000037  -0.000967   0.011091  -0.030648  -0.003350
    10  H    0.002836   0.001246  -0.008704  -0.007484  -0.066528  -0.024116
               7          8          9         10
     1  H   -0.001343   0.020803  -0.002663   0.002836
     2  H   -0.000495   0.005168   0.000037   0.001246
     3  H    0.012876  -0.049368  -0.000967  -0.008704
     4  H   -0.003716  -0.099487   0.011091  -0.007484
     5  H    0.123246  -0.056717  -0.030648  -0.066528
     6  H   -0.066245   0.029691  -0.003350  -0.024116
     7  H    0.606091  -0.201452   0.356913   0.000976
     8  H   -0.201452   1.523017  -0.278225   0.368768
     9  H    0.356913  -0.278225   1.203611  -0.061335
    10  H    0.000976   0.368768  -0.061335   0.563658
          Atomic-Atomic Spin Densities.
               1          2          3          4          5          6
     1  H   -0.076709  -0.046669   0.060020  -0.014945  -0.015243  -0.002703
     2  H   -0.046669   0.273701  -0.076544   0.119087  -0.011866   0.013863
     3  H    0.060020  -0.076544   0.536646  -0.127122   0.073476  -0.053836
     4  H   -0.014945   0.119087  -0.127122  -0.102437   0.062389  -0.020803
     5  H   -0.015243  -0.011866   0.073476   0.062389  -0.452782   0.080424
     6  H   -0.002703   0.013863  -0.053836  -0.020803   0.080424   0.006451
     7  H   -0.000823   0.000012  -0.005122   0.006117  -0.110037   0.023194
     8  H    0.003105   0.002684  -0.021266  -0.003748  -0.001533  -0.021858
     9  H    0.000025   0.000032   0.000959  -0.001526   0.024524  -0.001883
    10  H    0.000192   0.000069   0.001069  -0.002843   0.038052  -0.016542
               7          8          9         10
     1  H   -0.000823   0.003105   0.000025   0.000192
     2  H    0.000012   0.002684   0.000032   0.000069
     3  H   -0.005122  -0.021266   0.000959   0.001069
     4  H    0.006117  -0.003748  -0.001526  -0.002843
     5  H   -0.110037  -0.001533   0.024524   0.038052
     6  H    0.023194  -0.021858  -0.001883  -0.016542
     7  H   -0.122912   0.073629  -0.005128   0.065040
     8  H    0.073629   0.165321  -0.015407  -0.073328
     9  H   -0.005128  -0.015407   0.001946   0.011850
    10  H    0.065040  -0.073328   0.011850  -0.247294
 Mulliken charges and spin densities:
               1          2
     1  H   -0.160463  -0.093750
     2  H    0.218055   0.274368
     3  H    0.146552   0.388280
     4  H   -0.172410  -0.085832
     5  H   -0.013408  -0.312598
     6  H    0.034503   0.006307
     7  H    0.173149  -0.076031
     8  H   -0.262198   0.107599
     9  H   -0.194463   0.015393
    10  H    0.230683  -0.223736
 Sum of Mulliken charges =   0.00000  -0.00000
 Mulliken charges and spin densities with hydrogens summed into heavy atoms:
               1          2
 Electronic spatial extent (au):  <R**2>=            128.2570
 Charge=              0.0000 electrons
 Dipole moment (field-independent basis, Debye):
    X=              0.5340    Y=             -0.4254    Z=              0.0000  Tot=              0.6827
 Quadrupole moment (field-independent basis, Debye-Ang):
   XX=            -13.0537   YY=            -15.7188   ZZ=            -12.8906
   XY=             -0.8685   XZ=              0.0000   YZ=              0.0000
 Traceless Quadrupole moment (field-independent basis, Debye-Ang):
   XX=              0.8340   YY=             -1.8311   ZZ=              0.9970
   XY=             -0.8685   XZ=              0.0000   YZ=              0.0000
 Octapole moment (field-independent basis, Debye-Ang**2):
  XXX=             -2.7291  YYY=             -4.6432  ZZZ=              0.0000  XYY=              7.4169
  XXY=             -9.8063  XXZ=              0.0000  XZZ=              0.0634  YZZ=             -0.1898
  YYZ=              0.0000  XYZ=              0.0000
 Hexadecapole moment (field-independent basis, Debye-Ang**3):
 XXXX=           -189.3512 YYYY=            -66.5884 ZZZZ=            -15.5246 XXXY=             23.9549
 XXXZ=              0.0000 YYYX=             29.6895 YYYZ=              0.0000 ZZZX=              0.0000
 ZZZY=              0.0000 XXYY=            -44.9921 XXZZ=            -34.5874 YYZZ=            -13.2083
 XXYZ=              0.0000 YYXZ=              0.0000 ZZXY=              8.9838
 N-N= 1.356650639346D+01 E-N=-3.626390678157D+01  KE= 5.190571031193D+00
 Symmetry AG   KE= 2.623321448879D+00
 Symmetry BG   KE= 0.000000000000D+00
 Symmetry AU   KE= 0.000000000000D+00
 Symmetry BU   KE= 2.567249582314D+00
                          Isotropic Fermi Contact Couplings
        Atom                 a.u.       MegaHertz       Gauss      10(-4) cm-1
     1  H(1)              -0.02369     -52.94731     -18.89292     -17.66132
     2  H(1)               0.08865     198.13466      70.69937      66.09061
     3  H(1)               0.15347     342.99363     122.38865     114.41036
     4  H(1)              -0.03205     -71.63689     -25.56182     -23.89549
     5  H(1)              -0.12724    -284.36368    -101.46803     -94.85351
     6  H(1)               0.00224       4.99876       1.78368       1.66741
     7  H(1)              -0.03531     -78.91677     -28.15946     -26.32380
     8  H(1)               0.04563     101.98629      36.39124      34.01897
     9  H(1)               0.00129       2.88735       1.03028       0.96311
    10  H(1)              -0.07621    -170.31396     -60.77226     -56.81062
 --------------------------------------------------------
       Center         ----  Spin Dipole Couplings  ----
                      3XX-RR        3YY-RR        3ZZ-RR
 --------------------------------------------------------
     1   Atom        0.014762      0.022728     -0.037491
     2   Atom        0.007949     -0.013817      0.005868
     3   Atom       -0.020065     -0.013776      0.033841
     4   Atom        0.008887      0.026750     -0.035637
     5   Atom        0.045048     -0.014603     -0.030445
     6   Atom        0.025304     -0.029910      0.004606
     7   Atom       -0.066089      0.045323      0.020765
     8   Atom       -0.036830      0.003488      0.033342
     9   Atom       -0.001086     -0.017847      0.018933
    10   Atom        0.007590     -0.002500     -0.005090
 --------------------------------------------------------
                        XY            XZ            YZ
 --------------------------------------------------------
     1   Atom       -0.037322      0.000000      0.000000
     2   Atom       -0.001138      0.000000      0.000000
     3   Atom        0.019184      0.000000      0.000000
     4   Atom       -0.027056      0.000000      0.000000
     5   Atom        0.002405      0.000000      0.000000
     6   Atom        0.028699      0.000000      0.000000
     7   Atom        0.002560      0.000000      0.000000
     8   Atom       -0.014016      0.000000      0.000000
     9   Atom       -0.003843      0.000000      0.000000
    10   Atom       -0.004007      0.000000      0.000000
 --------------------------------------------------------


 ---------------------------------------------------------------------------------
              Anisotropic Spin Dipole Couplings in Principal Axis System
 ---------------------------------------------------------------------------------

       Atom             a.u.   MegaHertz   Gauss  10(-4) cm-1        Axes

              Baa    -0.0375   -20.003    -7.138    -6.672  0.0000  0.0000  1.0000
     1 H(1)   Bbb    -0.0188   -10.025    -3.577    -3.344  0.7437  0.6685  0.0000
              Bcc     0.0563    30.028    10.715    10.016 -0.6685  0.7437  0.0000
 
              Baa    -0.0139    -7.404    -2.642    -2.470  0.0521  0.9986  0.0000
     2 H(1)   Bbb     0.0059     3.131     1.117     1.044  0.0000  0.0000  1.0000
              Bcc     0.0080     4.273     1.525     1.425  0.9986 -0.0521  0.0000
 
              Baa    -0.0364   -19.400    -6.923    -6.471  0.7622 -0.6474  0.0000
     3 H(1)   Bbb     0.0025     1.344     0.480     0.448  0.6474  0.7622  0.0000
              Bcc     0.0338    18.056     6.443     6.023  0.0000  0.0000  1.0000
 
              Baa    -0.0356   -19.014    -6.785    -6.343  0.0000  0.0000  1.0000
     4 H(1)   Bbb    -0.0107    -5.695    -2.032    -1.900  0.8104  0.5859  0.0000
              Bcc     0.0463    24.709     8.817     8.242 -0.5859  0.8104  0.0000
 
              Baa    -0.0304   -16.244    -5.796    -5.418  0.0000  0.0000  1.0000
     5 H(1)   Bbb    -0.0147    -7.843    -2.799    -2.616 -0.0402  0.9992  0.0000
              Bcc     0.0451    24.087     8.595     8.035  0.9992  0.0402  0.0000
 
              Baa    -0.0421   -22.476    -8.020    -7.497 -0.3916  0.9201  0.0000
     6 H(1)   Bbb     0.0046     2.458     0.877     0.820  0.0000  0.0000  1.0000
              Bcc     0.0375    20.018     7.143     6.677  0.9201  0.3916  0.0000
 
              Baa    -0.0661   -35.293   -12.593   -11.772  0.9997 -0.0230  0.0000
     7 H(1)   Bbb     0.0208    11.079     3.953     3.696  0.0000  0.0000  1.0000
              Bcc     0.0454    24.214     8.640     8.077  0.0230  0.9997  0.0000
 
              Baa    -0.0412   -21.995    -7.848    -7.337  0.9542  0.2991  0.0000
     8 H(1)   Bbb     0.0079     4.205     1.501     1.403 -0.2991  0.9542  0.0000
              Bcc     0.0333    17.790     6.348     5.934  0.0000  0.0000  1.0000
 
              Baa    -0.0187    -9.970    -3.558    -3.326  0.2133  0.9770  0.0000
     9 H(1)   Bbb    -0.0002    -0.132    -0.047    -0.044  0.9770 -0.2133  0.0000
              Bcc     0.0189    10.101     3.604     3.369  0.0000  0.0000  1.0000
 
              Baa    -0.0051    -2.716    -0.969    -0.906  0.0000  0.0000  1.0000
    10 H(1)   Bbb    -0.0039    -2.080    -0.742    -0.694  0.3293  0.9442  0.0000
              Bcc     0.0090     4.795     1.711     1.600  0.9442 -0.3293  0.0000
 

 ---------------------------------------------------------------------------------


 Test job not archived.
 1\1\GINC-SULU\Stability\UHF\Gen\H10\LCJ1\28-Feb-2017\0\\#uhf/gen scf(t
 ight,novaracc,noincfock,fulldiag) stable(cuhf) guess=read geom=nocrowd
  test\\hf stability analysis of h10 triangular lattice, y= 0.650638722
 83200119\\0,1\H\H,1,1.1003350089\H,1,1.1003350089,2,107.5\H,2,1.100335
 0089,1,72.5,3,0.,0\H,3,1.1003350089,1,180.,2,0.,0\H,4,1.1003350089,2,1
 80.,1,0.,0\H,5,1.1003350089,3,180.,2,0.,0\H,6,1.1003350089,4,180.,1,0.
 ,0\H,7,1.1003350089,5,180.,2,0.,0\H,8,1.1003350089,6,180.,1,0.,0\\Vers
 ion=ES64L-G09RevE.01\HF=-4.8348751\MP2=-4.921141\PUHF=-4.8506859\PMP2-
 0=-4.9360152\S2=0.361919\S2-1=0.31668\S2A=0.039858\RMSD=8.203e-09\Dipo
 le=-0.2100836,0.,0.1673635\Quadrupole=0.6200616,0.7412822,-1.3613438,0
 .,-0.6457047,0.\PG=C02H [SGH(H10)]\\@


 IF IT HAPPENS, IT MUST BE POSSIBLE.

 -- THE UNNAMED LAW FROM PAUL DICKSON'S 
    "THE OFFICIAL RULES"
 Job cpu time:       0 days  0 hours  0 minutes  1.3 seconds.
 File lengths (MBytes):  RWF=     94 Int=      0 D2E=      0 Chk=      2 Scr=      2
 Normal termination of Gaussian 09 at Tue Feb 28 18:13:10 2017.
