 Entering Gaussian System, Link 0=g09
 AtFile(1): H.gbs
            H     0
            S   10   1.00
               1000.000000000000            0.000068713567
                316.227766000000            0.000169141320
                100.000000000000            0.000823394812
                 31.622776600000            0.003425569236
                 10.000000000000            0.013951996000
                  3.162277660000            0.056909313560
                  1.000000000000            0.198286399900
                  0.316227766000            0.496922426700
                  0.100000000000            0.369846276400
                  0.031622776600            0.003752720039
            ****
 Initial command:
 /projects/guscus/apps/gau/g09-e1/g09/l1.exe "/users/lcj1/gaussian/h10/2rows_uhf/singlet/staboptguess/Gau-15475.inp" -scrdir="/users/lcj1/gaussian/h10/2rows_uhf/singlet/staboptguess/"
 Entering Link 1 = /projects/guscus/apps/gau/g09-e1/g09/l1.exe PID=     15476.
  
 Copyright (c) 1988,1990,1992,1993,1995,1998,2003,2009,2015,
            Gaussian, Inc.  All Rights Reserved.
  
 This is part of the Gaussian(R) 09 program.  It is based on
 the Gaussian(R) 03 system (copyright 2003, Gaussian, Inc.),
 the Gaussian(R) 98 system (copyright 1998, Gaussian, Inc.),
 the Gaussian(R) 94 system (copyright 1995, Gaussian, Inc.),
 the Gaussian 92(TM) system (copyright 1992, Gaussian, Inc.),
 the Gaussian 90(TM) system (copyright 1990, Gaussian, Inc.),
 the Gaussian 88(TM) system (copyright 1988, Gaussian, Inc.),
 the Gaussian 86(TM) system (copyright 1986, Carnegie Mellon
 University), and the Gaussian 82(TM) system (copyright 1983,
 Carnegie Mellon University). Gaussian is a federally registered
 trademark of Gaussian, Inc.
  
 This software contains proprietary and confidential information,
 including trade secrets, belonging to Gaussian, Inc.
  
 This software is provided under written license and may be
 used, copied, transmitted, or stored only in accord with that
 written license.
  
 The following legend is applicable only to US Government
 contracts under FAR:
  
                    RESTRICTED RIGHTS LEGEND
  
 Use, reproduction and disclosure by the US Government is
 subject to restrictions as set forth in subparagraphs (a)
 and (c) of the Commercial Computer Software - Restricted
 Rights clause in FAR 52.227-19.
  
 Gaussian, Inc.
 340 Quinnipiac St., Bldg. 40, Wallingford CT 06492
  
  
 ---------------------------------------------------------------
 Warning -- This program may not be used in any manner that
 competes with the business of Gaussian, Inc. or will provide
 assistance to any competitor of Gaussian, Inc.  The licensee
 of this program is prohibited from giving any competitor of
 Gaussian, Inc. access to this program.  By using this program,
 the user acknowledges that Gaussian, Inc. is engaged in the
 business of creating and licensing software in the field of
 computational chemistry and represents and warrants to the
 licensee that it is not a competitor of Gaussian, Inc. and that
 it will not use this program in any manner prohibited above.
 ---------------------------------------------------------------
  

 Cite this work as:
 Gaussian 09, Revision E.01,
 M. J. Frisch, G. W. Trucks, H. B. Schlegel, G. E. Scuseria, 
 M. A. Robb, J. R. Cheeseman, G. Scalmani, V. Barone, B. Mennucci, 
 G. A. Petersson, H. Nakatsuji, M. Caricato, X. Li, H. P. Hratchian, 
 A. F. Izmaylov, J. Bloino, G. Zheng, J. L. Sonnenberg, M. Hada, 
 M. Ehara, K. Toyota, R. Fukuda, J. Hasegawa, M. Ishida, T. Nakajima, 
 Y. Honda, O. Kitao, H. Nakai, T. Vreven, J. A. Montgomery, Jr., 
 J. E. Peralta, F. Ogliaro, M. Bearpark, J. J. Heyd, E. Brothers, 
 K. N. Kudin, V. N. Staroverov, T. Keith, R. Kobayashi, J. Normand, 
 K. Raghavachari, A. Rendell, J. C. Burant, S. S. Iyengar, J. Tomasi, 
 M. Cossi, N. Rega, J. M. Millam, M. Klene, J. E. Knox, J. B. Cross, 
 V. Bakken, C. Adamo, J. Jaramillo, R. Gomperts, R. E. Stratmann, 
 O. Yazyev, A. J. Austin, R. Cammi, C. Pomelli, J. W. Ochterski, 
 R. L. Martin, K. Morokuma, V. G. Zakrzewski, G. A. Voth, 
 P. Salvador, J. J. Dannenberg, S. Dapprich, A. D. Daniels, 
 O. Farkas, J. B. Foresman, J. V. Ortiz, J. Cioslowski, 
 and D. J. Fox, Gaussian, Inc., Wallingford CT, 2013.
 
 ******************************************
 Gaussian 09:  ES64L-G09RevE.01 30-Nov-2015
                28-Feb-2017 
 ******************************************
 %chk=h10.chk
 ----------------------------------------------------------------------
 #uhf/gen scf(tight,novaracc,noincfock,fulldiag) stable(cuhf) guess=rea
 d geom=nocrowd test
 ----------------------------------------------------------------------
 1/38=1/1;
 2/12=1,17=6,18=5,40=1/2;
 3/5=7,16=1,25=1,30=1,116=2/1,2,3;
 4/5=1/1;
 5/5=100002,16=1,32=2,38=6/2;
 8/6=1,10=90,11=11/1,4;
 9/8=4,13=1/2;
 6/7=2,8=2,9=2,10=2,28=1/1;
 99/5=1,9=1/99;
 ----------------------------------------------------------------------
 hf stability analysis of h10 triangular lattice, y= 1.1592321887657087
 ----------------------------------------------------------------------
 Symbolic Z-matrix:
 Charge =  0 Multiplicity = 1
 H
 H                    1     1.26169 
 H                    1     1.26169  2     46.5 
 H                    2     1.26169  1     133.5    3     0.       0
 H                    3     1.26169  1     180.     2     0.       0
 H                    4     1.26169  2     180.     1     0.       0
 H                    5     1.26169  3     180.     2     0.       0
 H                    6     1.26169  4     180.     1     0.       0
 H                    7     1.26169  5     180.     2     0.       0
 H                    8     1.26169  6     180.     1     0.       0
 
                          Input orientation:                          
 ---------------------------------------------------------------------
 Center     Atomic      Atomic             Coordinates (Angstroms)
 Number     Number       Type             X           Y           Z
 ---------------------------------------------------------------------
      1          1           0        0.000000    0.000000    0.000000
      2          1           0        0.000000    0.000000    1.261693
      3          1           0        0.915200    0.000000    0.868492
      4          1           0        0.915200    0.000000    2.130185
      5          1           0        1.830399    0.000000    1.736984
      6          1           0        1.830399    0.000000    2.998677
      7          1           0        2.745599    0.000000    2.605476
      8          1           0        2.745599    0.000000    3.867169
      9          1           0        3.660798    0.000000    3.473968
     10          1           0        3.660798    0.000000    4.735661
 ---------------------------------------------------------------------
                    Distance matrix (angstroms):
                    1          2          3          4          5
     1  H    0.000000
     2  H    1.261693   0.000000
     3  H    1.261693   0.996091   0.000000
     4  H    2.318464   1.261693   1.261693   0.000000
     5  H    2.523385   1.891101   1.261693   0.996091   0.000000
     6  H    3.513178   2.523385   2.318464   1.261693   1.261693
     7  H    3.785078   3.056806   2.523385   1.891101   1.261693
     8  H    4.742711   3.785078   3.513178   2.523385   2.318464
     9  H    5.046771   4.277336   3.785078   3.056806   2.523385
    10  H    5.985643   5.046771   4.742711   3.785078   3.513178
                    6          7          8          9         10
     6  H    0.000000
     7  H    0.996091   0.000000
     8  H    1.261693   1.261693   0.000000
     9  H    1.891101   1.261693   0.996091   0.000000
    10  H    2.523385   2.318464   1.261693   1.261693   0.000000
 Stoichiometry    H10
 Framework group  C2H[SGH(H10)]
 Deg. of freedom     9
 Full point group                 C2H     NOp   4
 Largest Abelian subgroup         C2H     NOp   4
 Largest concise Abelian subgroup C2      NOp   2
                         Standard orientation:                         
 ---------------------------------------------------------------------
 Center     Atomic      Atomic             Coordinates (Angstroms)
 Number     Number       Type             X           Y           Z
 ---------------------------------------------------------------------
      1          1           0        1.830399    2.367830    0.000000
      2          1           0        1.830399    1.106138    0.000000
      3          1           0        0.915200    1.499338    0.000000
      4          1           0        0.915200    0.237646    0.000000
      5          1           0        0.000000    0.630846    0.000000
      6          1           0       -0.000000   -0.630846    0.000000
      7          1           0       -0.915200   -0.237646    0.000000
      8          1           0       -0.915200   -1.499338    0.000000
      9          1           0       -1.830399   -1.106138    0.000000
     10          1           0       -1.830399   -2.367830    0.000000
 ---------------------------------------------------------------------
 Rotational constants (GHZ):    254.5943707     14.8151657     14.0004613
 General basis read from cards:  (5D, 7F)
 There are     5 symmetry adapted cartesian basis functions of AG  symmetry.
 There are     0 symmetry adapted cartesian basis functions of BG  symmetry.
 There are     0 symmetry adapted cartesian basis functions of AU  symmetry.
 There are     5 symmetry adapted cartesian basis functions of BU  symmetry.
 There are     5 symmetry adapted basis functions of AG  symmetry.
 There are     0 symmetry adapted basis functions of BG  symmetry.
 There are     0 symmetry adapted basis functions of AU  symmetry.
 There are     5 symmetry adapted basis functions of BU  symmetry.
    10 basis functions,   100 primitive gaussians,    10 cartesian basis functions
     5 alpha electrons        5 beta electrons
       nuclear repulsion energy        12.5904845506 Hartrees.
 NAtoms=   10 NActive=   10 NUniq=    5 SFac= 4.00D+00 NAtFMM=   60 NAOKFM=F Big=F
 Integral buffers will be    131072 words long.
 Regular integral format.
 Two-electron integral symmetry is turned on.
 One-electron integrals computed using PRISM.
 NBasis=    10 RedAO= T EigKep=  1.90D-01  NBF=     5     0     0     5
 NBsUse=    10 1.00D-06 EigRej= -1.00D+00 NBFU=     5     0     0     5
 Initial guess from the checkpoint file:  "h10.chk"
 B after Tr=    -0.000000   -0.000000    0.000000
         Rot=    0.711292    0.000000    0.000000   -0.702897 Ang= -89.32 deg.
 Initial guess orbital symmetries:
 Alpha Orbitals:
       Occupied  (BG) (BG) (BG) (BG) (BG)
       Virtual   (BG) (BG) (BG) (BG) (BG)
 Beta  Orbitals:
       Occupied  (BG) (BG) (BG) (BG) (BG)
       Virtual   (BG) (BG) (BG) (BG) (BG)
 Initial guess <Sx>= 0.0000 <Sy>= 0.0000 <Sz>= 0.0000 <S**2>= 1.7002 S= 0.8965
 Keep R1 and R2 ints in memory in symmetry-blocked form, NReq=878179.
 Requested convergence on RMS density matrix=1.00D-08 within 128 cycles.
 Requested convergence on MAX density matrix=1.00D-06.
 Requested convergence on             energy=1.00D-06.
 No special actions if energy rises.
 An orbital has undefined symmetry, so N**3 symmetry is turned off.
 Density matrix breaks symmetry, PCut= 1.00D-04
 Density matrix has no symmetry -- integrals replicated.
 Density matrix breaks symmetry, PCut= 1.00D-07
 Density matrix has no symmetry -- integrals replicated.
 Density matrix breaks symmetry, PCut= 1.00D-07
 Density matrix has no symmetry -- integrals replicated.
 Density matrix breaks symmetry, PCut= 1.00D-07
 Density matrix has no symmetry -- integrals replicated.
 Density matrix breaks symmetry, PCut= 1.00D-07
 Density matrix has no symmetry -- integrals replicated.
 Density matrix breaks symmetry, PCut= 1.00D-07
 Density matrix has no symmetry -- integrals replicated.
 Density matrix breaks symmetry, PCut= 1.00D-07
 Density matrix has no symmetry -- integrals replicated.
 Density matrix breaks symmetry, PCut= 1.00D-07
 Density matrix has no symmetry -- integrals replicated.
 Density matrix breaks symmetry, PCut= 1.00D-07
 Density matrix has no symmetry -- integrals replicated.
 Rare condition: small coef for last iteration:  0.000D+00
 Density matrix breaks symmetry, PCut= 1.00D-07
 Density matrix has no symmetry -- integrals replicated.
 Rare condition: small coef for last iteration:  0.000D+00
 Density matrix breaks symmetry, PCut= 1.00D-07
 Density matrix has no symmetry -- integrals replicated.
 Density matrix breaks symmetry, PCut= 1.00D-07
 Density matrix has no symmetry -- integrals replicated.
 Density matrix breaks symmetry, PCut= 1.00D-07
 Density matrix has no symmetry -- integrals replicated.
 Rare condition: small coef for last iteration:  0.000D+00
 Density matrix breaks symmetry, PCut= 1.00D-07
 Density matrix has no symmetry -- integrals replicated.
 Density matrix breaks symmetry, PCut= 1.00D-07
 Density matrix has no symmetry -- integrals replicated.
 Density matrix breaks symmetry, PCut= 1.00D-07
 Density matrix has no symmetry -- integrals replicated.
 Density matrix breaks symmetry, PCut= 1.00D-07
 Density matrix has no symmetry -- integrals replicated.
 Density matrix breaks symmetry, PCut= 1.00D-07
 Density matrix has no symmetry -- integrals replicated.
 Density matrix breaks symmetry, PCut= 1.00D-07
 Density matrix has no symmetry -- integrals replicated.
 Rare condition: small coef for last iteration:  0.000D+00
 Density matrix breaks symmetry, PCut= 1.00D-07
 Density matrix has no symmetry -- integrals replicated.
 Rare condition: small coef for last iteration:  0.000D+00
 Density matrix breaks symmetry, PCut= 1.00D-07
 Density matrix has no symmetry -- integrals replicated.
 Rare condition: small coef for last iteration:  0.000D+00
 Density matrix breaks symmetry, PCut= 1.00D-07
 Density matrix has no symmetry -- integrals replicated.
 Rare condition: small coef for last iteration:  0.000D+00
 Density matrix breaks symmetry, PCut= 1.00D-07
 Density matrix has no symmetry -- integrals replicated.
 Density matrix breaks symmetry, PCut= 1.00D-07
 Density matrix has no symmetry -- integrals replicated.
 Density matrix breaks symmetry, PCut= 1.00D-07
 Density matrix has no symmetry -- integrals replicated.
 Density matrix breaks symmetry, PCut= 1.00D-07
 Density matrix has no symmetry -- integrals replicated.
 Density matrix breaks symmetry, PCut= 1.00D-07
 Density matrix has no symmetry -- integrals replicated.
 Density matrix breaks symmetry, PCut= 1.00D-07
 Density matrix has no symmetry -- integrals replicated.
 Density matrix breaks symmetry, PCut= 1.00D-07
 Density matrix has no symmetry -- integrals replicated.
 Density matrix breaks symmetry, PCut= 1.00D-07
 Density matrix has no symmetry -- integrals replicated.
 Density matrix breaks symmetry, PCut= 1.00D-07
 Density matrix has no symmetry -- integrals replicated.
 Density matrix breaks symmetry, PCut= 1.00D-07
 Density matrix has no symmetry -- integrals replicated.
 Density matrix breaks symmetry, PCut= 1.00D-07
 Density matrix has no symmetry -- integrals replicated.
 Density matrix breaks symmetry, PCut= 1.00D-07
 Density matrix has no symmetry -- integrals replicated.
 Density matrix breaks symmetry, PCut= 1.00D-07
 Density matrix has no symmetry -- integrals replicated.
 Density matrix breaks symmetry, PCut= 1.00D-07
 Density matrix has no symmetry -- integrals replicated.
 Density matrix breaks symmetry, PCut= 1.00D-07
 Density matrix has no symmetry -- integrals replicated.
 Density matrix breaks symmetry, PCut= 1.00D-07
 Density matrix has no symmetry -- integrals replicated.
 SCF Done:  E(UHF) =  -4.78755653791     A.U. after   37 cycles
            NFock= 37  Conv=0.60D-08     -V/T= 1.8764
 <Sx>= 0.0000 <Sy>= 0.0000 <Sz>= 0.0000 <S**2>= 1.4565 S= 0.8063
 <L.S>= 0.000000000000E+00
 Annihilation of the first spin contaminant:
 S**2 before annihilation     1.4565,   after     3.0118
 Range of M.O.s used for correlation:     1    10
 NBasis=    10 NAE=     5 NBE=     5 NFC=     0 NFV=     0
 NROrb=     10 NOA=     5 NOB=     5 NVA=     5 NVB=     5
 Semi-Direct transformation.
 ModeAB=           2 MOrb=             5 LenV=     134108873
 LASXX=         1030 LTotXX=        1030 LenRXX=        1030
 LTotAB=        1825 MaxLAS=        2750 LenRXY=        2750
 NonZer=        2750 LenScr=      655360 LnRSAI=           0
 LnScr1=           0 LExtra=           0 Total=       659140
 MaxDsk=          -1 SrtSym=           F ITran=            3
 JobTyp=1 Pass  1:  I=   1 to   5.
 (rs|ai) integrals will be sorted in core.
 ModeAB=           2 MOrb=             5 LenV=     134108873
 LASXX=         1030 LTotXX=        1030 LenRXX=        2750
 LTotAB=         225 MaxLAS=        2750 LenRXY=         225
 NonZer=        2750 LenScr=      655360 LnRSAI=           0
 LnScr1=           0 LExtra=           0 Total=       658335
 MaxDsk=          -1 SrtSym=           F ITran=            3
 JobTyp=2 Pass  1:  I=   1 to   5.
 (rs|ai) integrals will be sorted in core.
 SymMOI:  orbitals are not symmetric.
 Spin components of T(2) and E(2):
     alpha-alpha T2 =       0.1154453933D-02 E2=     -0.1854131401D-02
     alpha-beta  T2 =       0.3562167303D-01 E2=     -0.5239412350D-01
     beta-beta   T2 =       0.2546092978D-02 E2=     -0.3418336812D-02
 ANorm=    0.1019471540D+01
 E2 =    -0.5766659171D-01 EUMP2 =    -0.48452231296228D+01
 (S**2,0)=  0.14565D+01           (S**2,1)=  0.13909D+01
 E(PUHF)=      -0.48905735172D+01        E(PMP2)=      -0.49475871670D+01
 Second order stability test of a single determinant UHF wave function:
 Stabil:  MDV=134217728
 ***********************************************************************
 Matrix         Lowest Root    Major Pairs
 ***********************************************************************
 Internal UHF    -0.0554896    5A=6A
 RUHF --> CUHF (A)-0.0196757    5A=6A
 RUHF --> CUHF (B)0.1328212    Stable

 RUHF --> GHF    -0.0985228    5A=6B 4B=6A 5A=8B 4A=8B 5B=8A 5B=6A 5B=7A 3B=7A 3A
 =7B
 Not stable.
 ***********************************************************************

 **********************************************************************

            Population analysis using the SCF density.

 **********************************************************************

 Orbital symmetries:
 Alpha Orbitals:
       Occupied  (BG) (BG) (BG) (BG) (BG)
       Virtual   (BG) (BG) (BG) (BG) (BG)
 Beta  Orbitals:
       Occupied  (BG) (BG) (BG) (BG) (BG)
       Virtual   (BG) (BG) (BG) (BG) (BG)
 Unable to determine electronic state:  partially filled degenerate orbitals.
 Alpha  occ. eigenvalues --   -0.82455  -0.73774  -0.58077  -0.41278  -0.22091
 Alpha virt. eigenvalues --    0.03959   0.16099   0.23949   0.43369   0.56154
  Beta  occ. eigenvalues --   -0.84516  -0.73552  -0.57482  -0.36559  -0.30817
  Beta virt. eigenvalues --    0.07173   0.18129   0.30478   0.35016   0.58858
          Condensed to atoms (all electrons):
               1          2          3          4          5          6
     1  H    1.378278  -0.255161  -0.020790  -0.011519  -0.008189   0.007757
     2  H   -0.255161   1.253697   0.406434  -0.166805  -0.157712  -0.020145
     3  H   -0.020790   0.406434   0.582314  -0.034287  -0.058673  -0.046126
     4  H   -0.011519  -0.166805  -0.034287   0.906259   0.275027   0.115703
     5  H   -0.008189  -0.157712  -0.058673   0.275027   1.170889  -0.147230
     6  H    0.007757  -0.020145  -0.046126   0.115703  -0.147230   1.165675
     7  H   -0.002620   0.017652   0.009298  -0.171986  -0.016197   0.001887
     8  H    0.000323   0.001321  -0.000145   0.005522  -0.050977   0.094511
     9  H   -0.000204   0.000991   0.003309  -0.014471   0.004898  -0.143398
    10  H   -0.000003  -0.000455  -0.000297   0.007543   0.004205  -0.004845
               7          8          9         10
     1  H   -0.002620   0.000323  -0.000204  -0.000003
     2  H    0.017652   0.001321   0.000991  -0.000455
     3  H    0.009298  -0.000145   0.003309  -0.000297
     4  H   -0.171986   0.005522  -0.014471   0.007543
     5  H   -0.016197  -0.050977   0.004898   0.004205
     6  H    0.001887   0.094511  -0.143398  -0.004845
     7  H    1.336378  -0.102904   0.156854  -0.116217
     8  H   -0.102904   0.618660   0.159139   0.150408
     9  H    0.156854   0.159139   0.859695  -0.098067
    10  H   -0.116217   0.150408  -0.098067   1.181431
          Atomic-Atomic Spin Densities.
               1          2          3          4          5          6
     1  H    1.258448  -0.379089  -0.104405  -0.000538   0.036512   0.004318
     2  H   -0.379089   0.657313   0.104459  -0.134477   0.022787  -0.045500
     3  H   -0.104405   0.104459  -0.135358  -0.036983  -0.038900   0.011324
     4  H   -0.000538  -0.134477  -0.036983   0.637952   0.062588   0.003817
     5  H    0.036512   0.022787  -0.038900   0.062588  -0.824212   0.286856
     6  H    0.004318  -0.045500   0.011324   0.003817   0.286856  -0.849219
     7  H   -0.003267   0.019813   0.007945  -0.108317  -0.048444   0.098044
     8  H   -0.000081  -0.002566   0.000019   0.012067   0.033055  -0.142917
     9  H   -0.000268   0.001249  -0.001380   0.008299  -0.025058   0.106395
    10  H    0.000063  -0.000120   0.000050  -0.000303  -0.003582  -0.000176
               7          8          9         10
     1  H   -0.003267  -0.000081  -0.000268   0.000063
     2  H    0.019813  -0.002566   0.001249  -0.000120
     3  H    0.007945   0.000019  -0.001380   0.000050
     4  H   -0.108317   0.012067   0.008299  -0.000303
     5  H   -0.048444   0.033055  -0.025058  -0.003582
     6  H    0.098044  -0.142917   0.106395  -0.000176
     7  H    0.770076  -0.115916  -0.177849   0.010561
     8  H   -0.115916   0.232029   0.109813   0.070856
     9  H   -0.177849   0.109813  -0.577131   0.181977
    10  H    0.010561   0.070856   0.181977  -0.815362
 Mulliken charges and spin densities:
               1          2
     1  H   -0.087872   0.811693
     2  H   -0.079817   0.243869
     3  H    0.158963  -0.193228
     4  H    0.089014   0.444105
     5  H   -0.016041  -0.498397
     6  H   -0.023791  -0.527057
     7  H   -0.112147   0.452646
     8  H    0.124142   0.196360
     9  H    0.071254  -0.373953
    10  H   -0.123704  -0.556037
 Sum of Mulliken charges =   0.00000   0.00000
 Mulliken charges and spin densities with hydrogens summed into heavy atoms:
               1          2
 Electronic spatial extent (au):  <R**2>=            163.7416
 Charge=              0.0000 electrons
 Dipole moment (field-independent basis, Debye):
    X=              0.0242    Y=              0.1088    Z=             -0.0000  Tot=              0.1114
 Quadrupole moment (field-independent basis, Debye-Ang):
   XX=            -16.6961   YY=            -18.7574   ZZ=            -12.7479
   XY=             -4.2676   XZ=             -0.0000   YZ=              0.0000
 Traceless Quadrupole moment (field-independent basis, Debye-Ang):
   XX=             -0.6290   YY=             -2.6903   ZZ=              3.3192
   XY=             -4.2676   XZ=             -0.0000   YZ=              0.0000
 Octapole moment (field-independent basis, Debye-Ang**2):
  XXX=             -2.5562  YYY=              1.3112  ZZZ=             -0.0000  XYY=             -1.6126
  XXY=             -2.8430  XXZ=             -0.0000  XZZ=              0.2074  YZZ=              0.2620
  YYZ=             -0.0000  XYZ=             -0.0000
 Hexadecapole moment (field-independent basis, Debye-Ang**3):
 XXXX=           -164.5368 YYYY=           -231.5342 ZZZZ=            -15.2968 XXXY=            -84.2638
 XXXZ=              0.0000 YYYX=           -105.6846 YYYZ=              0.0000 ZZZX=              0.0000
 ZZZY=              0.0000 XXYY=            -82.6799 XXZZ=            -27.9025 YYZZ=            -31.9166
 XXYZ=              0.0000 YYXZ=              0.0000 ZZXY=            -21.8734
 N-N= 1.259048455059D+01 E-N=-3.461276561302D+01  KE= 5.462689737098D+00
 Symmetry AG   KE= 2.411121733874D+00
 Symmetry BG   KE= 0.000000000000D+00
 Symmetry AU   KE= 0.000000000000D+00
 Symmetry BU   KE= 3.051568003224D+00
                          Isotropic Fermi Contact Couplings
        Atom                 a.u.       MegaHertz       Gauss      10(-4) cm-1
     1  H(1)               0.33906     757.77515     270.39301     252.76658
     2  H(1)               0.16210     362.29174     129.27470     120.84752
     3  H(1)              -0.04517    -100.94946     -36.02128     -33.67311
     4  H(1)               0.18018     402.69767     143.69254     134.32548
     5  H(1)              -0.21933    -490.19842    -174.91498    -163.51259
     6  H(1)              -0.22572    -504.47225    -180.00824    -168.27383
     7  H(1)               0.20759     463.94208     165.54606     154.75442
     8  H(1)               0.06774     151.40517      54.02513      50.50333
     9  H(1)              -0.15552    -347.57941    -124.02497    -115.94001
    10  H(1)              -0.22421    -501.10503    -178.80673    -167.15065
 --------------------------------------------------------
       Center         ----  Spin Dipole Couplings  ----
                      3XX-RR        3YY-RR        3ZZ-RR
 --------------------------------------------------------
     1   Atom       -0.012826     -0.002311      0.015137
     2   Atom       -0.041392      0.061611     -0.020219
     3   Atom        0.005962      0.047392     -0.053354
     4   Atom       -0.035958     -0.016069      0.052026
     5   Atom        0.104829     -0.049877     -0.054952
     6   Atom        0.094258     -0.040699     -0.053559
     7   Atom       -0.073101     -0.022580      0.095680
     8   Atom       -0.089757      0.019541      0.070216
     9   Atom        0.040660     -0.030877     -0.009783
    10   Atom        0.013781     -0.006485     -0.007296
 --------------------------------------------------------
                        XY            XZ            YZ
 --------------------------------------------------------
     1   Atom       -0.020621     -0.000000      0.000000
     2   Atom        0.028202      0.000000     -0.000000
     3   Atom       -0.037862     -0.000000      0.000000
     4   Atom        0.048489      0.000000     -0.000000
     5   Atom       -0.013311     -0.000000      0.000000
     6   Atom       -0.017382     -0.000000     -0.000000
     7   Atom       -0.023487     -0.000000     -0.000000
     8   Atom       -0.044930      0.000000      0.000000
     9   Atom       -0.015731      0.000000      0.000000
    10   Atom        0.026944     -0.000000     -0.000000
 --------------------------------------------------------


 ---------------------------------------------------------------------------------
              Anisotropic Spin Dipole Couplings in Principal Axis System
 ---------------------------------------------------------------------------------

       Atom             a.u.   MegaHertz   Gauss  10(-4) cm-1        Axes

              Baa    -0.0288   -15.392    -5.492    -5.134  0.7896  0.6136  0.0000
     1 H(1)   Bbb     0.0137     7.316     2.611     2.440 -0.6136  0.7896 -0.0000
              Bcc     0.0151     8.077     2.882     2.694  0.0000  0.0000  1.0000
 
              Baa    -0.0486   -25.935    -9.254    -8.651  0.9688 -0.2479  0.0000
     2 H(1)   Bbb    -0.0202   -10.788    -3.849    -3.598  0.0000  0.0000  1.0000
              Bcc     0.0688    36.723    13.104    12.250  0.2479  0.9688  0.0000
 
              Baa    -0.0534   -28.467   -10.158    -9.496  0.0000  0.0000  1.0000
     3 H(1)   Bbb    -0.0165    -8.794    -3.138    -2.933  0.8602  0.5099  0.0000
              Bcc     0.0698    37.261    13.296    12.429 -0.5099  0.8602  0.0000
 
              Baa    -0.0755   -40.289   -14.376   -13.439  0.7749 -0.6321  0.0000
     4 H(1)   Bbb     0.0235    12.530     4.471     4.180  0.6321  0.7749  0.0000
              Bcc     0.0520    27.759     9.905     9.259  0.0000  0.0000  1.0000
 
              Baa    -0.0550   -29.320   -10.462    -9.780  0.0000  0.0000  1.0000
     5 H(1)   Bbb    -0.0510   -27.219    -9.712    -9.079  0.0851  0.9964  0.0000
              Bcc     0.1060    56.538    20.174    18.859  0.9964 -0.0851  0.0000
 
              Baa    -0.0536   -28.576   -10.197    -9.532  0.0000  0.0000  1.0000
     6 H(1)   Bbb    -0.0429   -22.890    -8.168    -7.635  0.1257  0.9921 -0.0000
              Bcc     0.0965    51.467    18.365    17.168  0.9921 -0.1257  0.0000
 
              Baa    -0.0823   -43.929   -15.675   -14.653  0.9307  0.3658  0.0000
     7 H(1)   Bbb    -0.0133    -7.122    -2.541    -2.376 -0.3658  0.9307 -0.0000
              Bcc     0.0957    51.051    18.216    17.029  0.0000  0.0000  1.0000
 
              Baa    -0.1059   -56.480   -20.153   -18.840  0.9414  0.3373  0.0000
     8 H(1)   Bbb     0.0356    19.016     6.785     6.343 -0.3373  0.9414 -0.0000
              Bcc     0.0702    37.464    13.368    12.497  0.0000  0.0000  1.0000
 
              Baa    -0.0342   -18.239    -6.508    -6.084  0.2057  0.9786 -0.0000
     9 H(1)   Bbb    -0.0098    -5.220    -1.863    -1.741  0.0000  0.0000  1.0000
              Bcc     0.0440    23.458     8.371     7.825  0.9786 -0.2057  0.0000
 
              Baa    -0.0251   -13.412    -4.786    -4.474 -0.5692  0.8222 -0.0000
    10 H(1)   Bbb    -0.0073    -3.893    -1.389    -1.299  0.0000  0.0000  1.0000
              Bcc     0.0324    17.305     6.175     5.772  0.8222  0.5692  0.0000
 

 ---------------------------------------------------------------------------------


 Test job not archived.
 1\1\GINC-SULU\Stability\UHF\Gen\H10\LCJ1\28-Feb-2017\0\\#uhf/gen scf(t
 ight,novaracc,noincfock,fulldiag) stable(cuhf) guess=read geom=nocrowd
  test\\hf stability analysis of h10 triangular lattice, y= 1.159232188
 7657087\\0,1\H\H,1,1.2616927108\H,1,1.2616927108,2,46.5\H,2,1.26169271
 08,1,133.5,3,0.,0\H,3,1.2616927108,1,180.,2,0.,0\H,4,1.2616927108,2,18
 0.,1,0.,0\H,5,1.2616927108,3,180.,2,0.,0\H,6,1.2616927108,4,180.,1,0.,
 0\H,7,1.2616927108,5,180.,2,0.,0\H,8,1.2616927108,6,180.,1,0.,0\\Versi
 on=ES64L-G09RevE.01\HF=-4.7875565\MP2=-4.8452231\PUHF=-4.8905735\PMP2-
 0=-4.9475872\S2=1.456539\S2-1=1.390934\S2A=3.011838\RMSD=5.971e-09\Dip
 ole=-0.0095197,0.,-0.0427862\Quadrupole=-0.4676189,2.4677697,-2.000150
 8,0.,-3.1728562,0.\PG=C02H [SGH(H10)]\\@


 GOORD'S AXIOM:  A MEETING IS AN EVENT AT WHICH
 THE MINUTES ARE KEPT AND THE HOURS ARE LOST.
 Job cpu time:       0 days  0 hours  0 minutes  1.3 seconds.
 File lengths (MBytes):  RWF=     94 Int=      0 D2E=      0 Chk=      2 Scr=      2
 Normal termination of Gaussian 09 at Tue Feb 28 18:19:03 2017.
