 Entering Gaussian System, Link 0=g09
 AtFile(1): H.gbs
            H     0
            S   10   1.00
               1000.000000000000            0.000068713567
                316.227766000000            0.000169141320
                100.000000000000            0.000823394812
                 31.622776600000            0.003425569236
                 10.000000000000            0.013951996000
                  3.162277660000            0.056909313560
                  1.000000000000            0.198286399900
                  0.316227766000            0.496922426700
                  0.100000000000            0.369846276400
                  0.031622776600            0.003752720039
            ****
 Initial command:
 /projects/guscus/apps/gau/g09-e1/g09/l1.exe "/users/lcj1/gaussian/h10/2rows_uhf/singlet/staboptguess/Gau-3671.inp" -scrdir="/users/lcj1/gaussian/h10/2rows_uhf/singlet/staboptguess/"
 Entering Link 1 = /projects/guscus/apps/gau/g09-e1/g09/l1.exe PID=      3672.
  
 Copyright (c) 1988,1990,1992,1993,1995,1998,2003,2009,2015,
            Gaussian, Inc.  All Rights Reserved.
  
 This is part of the Gaussian(R) 09 program.  It is based on
 the Gaussian(R) 03 system (copyright 2003, Gaussian, Inc.),
 the Gaussian(R) 98 system (copyright 1998, Gaussian, Inc.),
 the Gaussian(R) 94 system (copyright 1995, Gaussian, Inc.),
 the Gaussian 92(TM) system (copyright 1992, Gaussian, Inc.),
 the Gaussian 90(TM) system (copyright 1990, Gaussian, Inc.),
 the Gaussian 88(TM) system (copyright 1988, Gaussian, Inc.),
 the Gaussian 86(TM) system (copyright 1986, Carnegie Mellon
 University), and the Gaussian 82(TM) system (copyright 1983,
 Carnegie Mellon University). Gaussian is a federally registered
 trademark of Gaussian, Inc.
  
 This software contains proprietary and confidential information,
 including trade secrets, belonging to Gaussian, Inc.
  
 This software is provided under written license and may be
 used, copied, transmitted, or stored only in accord with that
 written license.
  
 The following legend is applicable only to US Government
 contracts under FAR:
  
                    RESTRICTED RIGHTS LEGEND
  
 Use, reproduction and disclosure by the US Government is
 subject to restrictions as set forth in subparagraphs (a)
 and (c) of the Commercial Computer Software - Restricted
 Rights clause in FAR 52.227-19.
  
 Gaussian, Inc.
 340 Quinnipiac St., Bldg. 40, Wallingford CT 06492
  
  
 ---------------------------------------------------------------
 Warning -- This program may not be used in any manner that
 competes with the business of Gaussian, Inc. or will provide
 assistance to any competitor of Gaussian, Inc.  The licensee
 of this program is prohibited from giving any competitor of
 Gaussian, Inc. access to this program.  By using this program,
 the user acknowledges that Gaussian, Inc. is engaged in the
 business of creating and licensing software in the field of
 computational chemistry and represents and warrants to the
 licensee that it is not a competitor of Gaussian, Inc. and that
 it will not use this program in any manner prohibited above.
 ---------------------------------------------------------------
  

 Cite this work as:
 Gaussian 09, Revision E.01,
 M. J. Frisch, G. W. Trucks, H. B. Schlegel, G. E. Scuseria, 
 M. A. Robb, J. R. Cheeseman, G. Scalmani, V. Barone, B. Mennucci, 
 G. A. Petersson, H. Nakatsuji, M. Caricato, X. Li, H. P. Hratchian, 
 A. F. Izmaylov, J. Bloino, G. Zheng, J. L. Sonnenberg, M. Hada, 
 M. Ehara, K. Toyota, R. Fukuda, J. Hasegawa, M. Ishida, T. Nakajima, 
 Y. Honda, O. Kitao, H. Nakai, T. Vreven, J. A. Montgomery, Jr., 
 J. E. Peralta, F. Ogliaro, M. Bearpark, J. J. Heyd, E. Brothers, 
 K. N. Kudin, V. N. Staroverov, T. Keith, R. Kobayashi, J. Normand, 
 K. Raghavachari, A. Rendell, J. C. Burant, S. S. Iyengar, J. Tomasi, 
 M. Cossi, N. Rega, J. M. Millam, M. Klene, J. E. Knox, J. B. Cross, 
 V. Bakken, C. Adamo, J. Jaramillo, R. Gomperts, R. E. Stratmann, 
 O. Yazyev, A. J. Austin, R. Cammi, C. Pomelli, J. W. Ochterski, 
 R. L. Martin, K. Morokuma, V. G. Zakrzewski, G. A. Voth, 
 P. Salvador, J. J. Dannenberg, S. Dapprich, A. D. Daniels, 
 O. Farkas, J. B. Foresman, J. V. Ortiz, J. Cioslowski, 
 and D. J. Fox, Gaussian, Inc., Wallingford CT, 2013.
 
 ******************************************
 Gaussian 09:  ES64L-G09RevE.01 30-Nov-2015
                28-Feb-2017 
 ******************************************
 %chk=h10.chk
 ----------------------------------------------------------------------
 #uhf/gen scf(tight,novaracc,noincfock,fulldiag) stable(cuhf) guess=rea
 d geom=nocrowd test
 ----------------------------------------------------------------------
 1/38=1/1;
 2/12=1,17=6,18=5,40=1/2;
 3/5=7,16=1,25=1,30=1,116=2/1,2,3;
 4/5=1/1;
 5/5=100002,16=1,32=2,38=6/2;
 8/6=1,10=90,11=11/1,4;
 9/8=4,13=1/2;
 6/7=2,8=2,9=2,10=2,28=1/1;
 99/5=1,9=1/99;
 ----------------------------------------------------------------------
 hf stability analysis of h10 triangular lattice, y= 0.4521619835073459
 3
 ----------------------------------------------------------------------
 Symbolic Z-matrix:
 Charge =  0 Multiplicity = 1
 H
 H                    1     1.35456 
 H                    1     1.35456  2     141. 
 H                    2     1.35456  1     39.      3     0.       0
 H                    3     1.35456  1     180.     2     0.       0
 H                    4     1.35456  2     180.     1     0.       0
 H                    5     1.35456  3     180.     2     0.       0
 H                    6     1.35456  4     180.     1     0.       0
 H                    7     1.35456  5     180.     2     0.       0
 H                    8     1.35456  6     180.     1     0.       0
 
                          Input orientation:                          
 ---------------------------------------------------------------------
 Center     Atomic      Atomic             Coordinates (Angstroms)
 Number     Number       Type             X           Y           Z
 ---------------------------------------------------------------------
      1          1           0        0.000000    0.000000    0.000000
      2          1           0        0.000000    0.000000    1.354562
      3          1           0        0.852453    0.000000   -1.052692
      4          1           0        0.852453    0.000000    0.301870
      5          1           0        1.704907    0.000000   -2.105384
      6          1           0        1.704907    0.000000   -0.750823
      7          1           0        2.557360    0.000000   -3.158076
      8          1           0        2.557360    0.000000   -1.803515
      9          1           0        3.409813    0.000000   -4.210768
     10          1           0        3.409813    0.000000   -2.856207
 ---------------------------------------------------------------------
                    Distance matrix (angstroms):
                    1          2          3          4          5
     1  H    0.000000
     2  H    1.354562   0.000000
     3  H    1.354562   2.553732   0.000000
     4  H    0.904324   1.354562   1.354562   0.000000
     5  H    2.709123   3.857192   1.354562   2.553732   0.000000
     6  H    1.862912   2.709123   0.904324   1.354562   1.354562
     7  H    4.063685   5.186906   2.709123   3.857192   1.354562
     8  H    3.129338   4.063685   1.862912   2.709123   0.904324
     9  H    5.418247   6.526846   4.063685   5.186906   2.709123
    10  H    4.448004   5.418247   3.129338   4.063685   1.862912
                    6          7          8          9         10
     6  H    0.000000
     7  H    2.553732   0.000000
     8  H    1.354562   1.354562   0.000000
     9  H    3.857192   1.354562   2.553732   0.000000
    10  H    2.709123   0.904324   1.354562   1.354562   0.000000
 Stoichiometry    H10
 Framework group  C2H[SGH(H10)]
 Deg. of freedom     9
 Full point group                 C2H     NOp   4
 Largest Abelian subgroup         C2H     NOp   4
 Largest concise Abelian subgroup C2      NOp   2
                         Standard orientation:                         
 ---------------------------------------------------------------------
 Center     Atomic      Atomic             Coordinates (Angstroms)
 Number     Number       Type             X           Y           Z
 ---------------------------------------------------------------------
      1          1           0        1.704907   -1.428103    0.000000
      2          1           0        1.704907   -2.782665    0.000000
      3          1           0        0.852453   -0.375411    0.000000
      4          1           0        0.852453   -1.729973    0.000000
      5          1           0       -0.000000    0.677281   -0.000000
      6          1           0       -0.000000   -0.677281   -0.000000
      7          1           0       -0.852453    1.729973    0.000000
      8          1           0       -0.852453    0.375411    0.000000
      9          1           0       -1.704907    2.782665    0.000000
     10          1           0       -1.704907    1.428103    0.000000
 ---------------------------------------------------------------------
 Rotational constants (GHZ):    297.8669915     12.6628950     12.1465231
 General basis read from cards:  (5D, 7F)
 There are     5 symmetry adapted cartesian basis functions of AG  symmetry.
 There are     0 symmetry adapted cartesian basis functions of BG  symmetry.
 There are     0 symmetry adapted cartesian basis functions of AU  symmetry.
 There are     5 symmetry adapted cartesian basis functions of BU  symmetry.
 There are     5 symmetry adapted basis functions of AG  symmetry.
 There are     0 symmetry adapted basis functions of BG  symmetry.
 There are     0 symmetry adapted basis functions of AU  symmetry.
 There are     5 symmetry adapted basis functions of BU  symmetry.
    10 basis functions,   100 primitive gaussians,    10 cartesian basis functions
     5 alpha electrons        5 beta electrons
       nuclear repulsion energy        12.1423953597 Hartrees.
 NAtoms=   10 NActive=   10 NUniq=    5 SFac= 4.00D+00 NAtFMM=   60 NAOKFM=F Big=F
 Integral buffers will be    131072 words long.
 Regular integral format.
 Two-electron integral symmetry is turned on.
 One-electron integrals computed using PRISM.
 NBasis=    10 RedAO= T EigKep=  1.85D-01  NBF=     5     0     0     5
 NBsUse=    10 1.00D-06 EigRej= -1.00D+00 NBFU=     5     0     0     5
 Initial guess from the checkpoint file:  "h10.chk"
 B after Tr=    -0.000000    0.000000   -0.000000
         Rot=    0.999880    0.000000    0.000000   -0.015514 Ang=  -1.78 deg.
 Initial guess orbital symmetries:
 Alpha Orbitals:
       Occupied  (BG) (BG) (BG) (BG) (BG)
       Virtual   (BG) (BG) (BG) (BG) (BG)
 Beta  Orbitals:
       Occupied  (BG) (BG) (BG) (BG) (BG)
       Virtual   (BG) (BG) (BG) (BG) (BG)
 Initial guess <Sx>= 0.0000 <Sy>= 0.0000 <Sz>= 0.0000 <S**2>= 1.2065 S= 0.7069
 Keep R1 and R2 ints in memory in symmetry-blocked form, NReq=876919.
 Requested convergence on RMS density matrix=1.00D-08 within 128 cycles.
 Requested convergence on MAX density matrix=1.00D-06.
 Requested convergence on             energy=1.00D-06.
 No special actions if energy rises.
 An orbital has undefined symmetry, so N**3 symmetry is turned off.
 Density matrix breaks symmetry, PCut= 1.00D-04
 Density matrix has no symmetry -- integrals replicated.
 Density matrix breaks symmetry, PCut= 1.00D-07
 Density matrix has no symmetry -- integrals replicated.
 Density matrix breaks symmetry, PCut= 1.00D-07
 Density matrix has no symmetry -- integrals replicated.
 Density matrix breaks symmetry, PCut= 1.00D-07
 Density matrix has no symmetry -- integrals replicated.
 Density matrix breaks symmetry, PCut= 1.00D-07
 Density matrix has no symmetry -- integrals replicated.
 Density matrix breaks symmetry, PCut= 1.00D-07
 Density matrix has no symmetry -- integrals replicated.
 Density matrix breaks symmetry, PCut= 1.00D-07
 Density matrix has no symmetry -- integrals replicated.
 Density matrix breaks symmetry, PCut= 1.00D-07
 Density matrix has no symmetry -- integrals replicated.
 Density matrix breaks symmetry, PCut= 1.00D-07
 Density matrix has no symmetry -- integrals replicated.
 Density matrix breaks symmetry, PCut= 1.00D-07
 Density matrix has no symmetry -- integrals replicated.
 Density matrix breaks symmetry, PCut= 1.00D-07
 Density matrix has no symmetry -- integrals replicated.
 Rare condition: small coef for last iteration:  0.000D+00
 Density matrix breaks symmetry, PCut= 1.00D-07
 Density matrix has no symmetry -- integrals replicated.
 Density matrix breaks symmetry, PCut= 1.00D-07
 Density matrix has no symmetry -- integrals replicated.
 Density matrix breaks symmetry, PCut= 1.00D-07
 Density matrix has no symmetry -- integrals replicated.
 Density matrix breaks symmetry, PCut= 1.00D-07
 Density matrix has no symmetry -- integrals replicated.
 Density matrix breaks symmetry, PCut= 1.00D-07
 Density matrix has no symmetry -- integrals replicated.
 Rare condition: small coef for last iteration:  0.000D+00
 Density matrix breaks symmetry, PCut= 1.00D-07
 Density matrix has no symmetry -- integrals replicated.
 Density matrix breaks symmetry, PCut= 1.00D-07
 Density matrix has no symmetry -- integrals replicated.
 Rare condition: small coef for last iteration:  0.000D+00
 Density matrix breaks symmetry, PCut= 1.00D-07
 Density matrix has no symmetry -- integrals replicated.
 Density matrix breaks symmetry, PCut= 1.00D-07
 Density matrix has no symmetry -- integrals replicated.
 Density matrix breaks symmetry, PCut= 1.00D-07
 Density matrix has no symmetry -- integrals replicated.
 Density matrix breaks symmetry, PCut= 1.00D-07
 Density matrix has no symmetry -- integrals replicated.
 Density matrix breaks symmetry, PCut= 1.00D-07
 Density matrix has no symmetry -- integrals replicated.
 Density matrix breaks symmetry, PCut= 1.00D-07
 Density matrix has no symmetry -- integrals replicated.
 Density matrix breaks symmetry, PCut= 1.00D-07
 Density matrix has no symmetry -- integrals replicated.
 Density matrix breaks symmetry, PCut= 1.00D-07
 Density matrix has no symmetry -- integrals replicated.
 Density matrix breaks symmetry, PCut= 1.00D-07
 Density matrix has no symmetry -- integrals replicated.
 Density matrix breaks symmetry, PCut= 1.00D-07
 Density matrix has no symmetry -- integrals replicated.
 Density matrix breaks symmetry, PCut= 1.00D-07
 Density matrix has no symmetry -- integrals replicated.
 Density matrix breaks symmetry, PCut= 1.00D-07
 Density matrix has no symmetry -- integrals replicated.
 Density matrix breaks symmetry, PCut= 1.00D-07
 Density matrix has no symmetry -- integrals replicated.
 Density matrix breaks symmetry, PCut= 1.00D-07
 Density matrix has no symmetry -- integrals replicated.
 SCF Done:  E(UHF) =  -4.89331145202     A.U. after   31 cycles
            NFock= 31  Conv=0.40D-08     -V/T= 1.8743
 <Sx>= 0.0000 <Sy>= 0.0000 <Sz>= 0.0000 <S**2>= 1.5931 S= 0.8576
 <L.S>= 0.000000000000E+00
 Annihilation of the first spin contaminant:
 S**2 before annihilation     1.5931,   after     3.6472
 Range of M.O.s used for correlation:     1    10
 NBasis=    10 NAE=     5 NBE=     5 NFC=     0 NFV=     0
 NROrb=     10 NOA=     5 NOB=     5 NVA=     5 NVB=     5
 Semi-Direct transformation.
 ModeAB=           2 MOrb=             5 LenV=     134109867
 LASXX=         1030 LTotXX=        1030 LenRXX=        1030
 LTotAB=        1825 MaxLAS=        2750 LenRXY=        2750
 NonZer=        2750 LenScr=      655360 LnRSAI=           0
 LnScr1=           0 LExtra=           0 Total=       659140
 MaxDsk=          -1 SrtSym=           F ITran=            3
 JobTyp=1 Pass  1:  I=   1 to   5.
 (rs|ai) integrals will be sorted in core.
 ModeAB=           2 MOrb=             5 LenV=     134109867
 LASXX=         1030 LTotXX=        1030 LenRXX=        2750
 LTotAB=         225 MaxLAS=        2750 LenRXY=         225
 NonZer=        2750 LenScr=      655360 LnRSAI=           0
 LnScr1=           0 LExtra=           0 Total=       658335
 MaxDsk=          -1 SrtSym=           F ITran=            3
 JobTyp=2 Pass  1:  I=   1 to   5.
 (rs|ai) integrals will be sorted in core.
 SymMOI:  orbitals are not symmetric.
 Spin components of T(2) and E(2):
     alpha-alpha T2 =       0.6701011236D-03 E2=     -0.1209348165D-02
     alpha-beta  T2 =       0.2374715182D-01 E2=     -0.4249110821D-01
     beta-beta   T2 =       0.5633390189D-03 E2=     -0.9887699486D-03
 ANorm=    0.1012413252D+01
 E2 =    -0.4468922632D-01 EUMP2 =    -0.49380006783377D+01
 (S**2,0)=  0.15931D+01           (S**2,1)=  0.15031D+01
 E(PUHF)=      -0.50539145966D+01        E(PMP2)=      -0.50977036120D+01
 Second order stability test of a single determinant UHF wave function:
 Stabil:  MDV=134217728
 ***********************************************************************
 Matrix         Lowest Root    Major Pairs
 ***********************************************************************
 Internal UHF     0.0257282    Stable
 RUHF --> CUHF (A)0.0875775    Stable
 RUHF --> CUHF (B)0.1413471    Stable

 RUHF --> GHF    -0.0379564    5A=6B 5A=8B 4A=8B 5A=7B 3A=8B 4B=6A 4A=7B 5B=6A 5B
 =8A 3B=7A
 Not stable.
 ***********************************************************************

 **********************************************************************

            Population analysis using the SCF density.

 **********************************************************************

 Orbital symmetries:
 Alpha Orbitals:
       Occupied  (BG) (BG) (BG) (BG) (BG)
       Virtual   (BG) (BG) (BG) (BG) (BG)
 Beta  Orbitals:
       Occupied  (BG) (BG) (BG) (BG) (BG)
       Virtual   (BG) (BG) (BG) (BG) (BG)
 Unable to determine electronic state:  partially filled degenerate orbitals.
 Alpha  occ. eigenvalues --   -0.80063  -0.72365  -0.58780  -0.43877  -0.28054
 Alpha virt. eigenvalues --    0.10713   0.20709   0.23971   0.43544   0.59755
  Beta  occ. eigenvalues --   -0.80319  -0.71353  -0.58910  -0.42134  -0.30798
  Beta virt. eigenvalues --    0.11570   0.22408   0.27475   0.38892   0.60598
          Condensed to atoms (all electrons):
               1          2          3          4          5          6
     1  H    0.882312  -0.121834  -0.176781   0.529638   0.006170  -0.128254
     2  H   -0.121834   1.367211   0.010829  -0.175046   0.002811  -0.004393
     3  H   -0.176781   0.010829   1.021517  -0.141107  -0.075610   0.467399
     4  H    0.529638  -0.175046  -0.141107   0.839458  -0.016628  -0.104641
     5  H    0.006170   0.002811  -0.075610  -0.016628   1.153814  -0.174878
     6  H   -0.128254  -0.004393   0.467399  -0.104641  -0.174878   1.031553
     7  H    0.000470   0.000029   0.003374   0.000320  -0.055155  -0.013699
     8  H    0.008661  -0.001072  -0.147403   0.012891   0.339390  -0.097376
     9  H   -0.000052   0.000005   0.002054  -0.000141   0.011531   0.000345
    10  H   -0.000288  -0.000068   0.002693   0.000845  -0.164770   0.013773
               7          8          9         10
     1  H    0.000470   0.008661  -0.000052  -0.000288
     2  H    0.000029  -0.001072   0.000005  -0.000068
     3  H    0.003374  -0.147403   0.002054   0.002693
     4  H    0.000320   0.012891  -0.000141   0.000845
     5  H   -0.055155   0.339390   0.011531  -0.164770
     6  H   -0.013699  -0.097376   0.000345   0.013773
     7  H    0.654433  -0.086901   0.025952   0.371767
     8  H   -0.086901   1.050509  -0.039176  -0.055715
     9  H    0.025952  -0.039176   1.266521  -0.186465
    10  H    0.371767  -0.055715  -0.186465   1.045691
          Atomic-Atomic Spin Densities.
               1          2          3          4          5          6
     1  H   -0.031746  -0.214074  -0.089029   0.156122  -0.017485   0.047877
     2  H   -0.214074   1.309957   0.020650  -0.218697   0.000237   0.018938
     3  H   -0.089029   0.020650   0.735024  -0.139775   0.046920   0.015333
     4  H    0.156122  -0.218697  -0.139775   0.411403  -0.000505  -0.047003
     5  H   -0.017485   0.000237   0.046920  -0.000505  -0.902214   0.207369
     6  H    0.047877   0.018938   0.015333  -0.047003   0.207369  -0.688449
     7  H   -0.000608  -0.000015   0.012757  -0.000576  -0.038766   0.006522
     8  H    0.006658  -0.001467  -0.120437   0.016465   0.036361  -0.002077
     9  H   -0.000034   0.000005   0.000536  -0.000005  -0.020650   0.000353
    10  H    0.000444   0.000016   0.001678  -0.000498   0.127424  -0.018386
               7          8          9         10
     1  H   -0.000608   0.006658  -0.000034   0.000444
     2  H   -0.000015  -0.001467   0.000005   0.000016
     3  H    0.012757  -0.120437   0.000536   0.001678
     4  H   -0.000576   0.016465  -0.000005  -0.000498
     5  H   -0.038766   0.036361  -0.020650   0.127424
     6  H    0.006522  -0.002077   0.000353  -0.018386
     7  H    0.371236  -0.136736   0.091904   0.012062
     8  H   -0.136736   0.829019   0.000981  -0.089354
     9  H    0.091904   0.000981  -1.166531   0.254105
    10  H    0.012062  -0.089354   0.254105  -0.718786
 Mulliken charges and spin densities:
               1          2
     1  H   -0.000040  -0.141875
     2  H   -0.078472   0.915550
     3  H    0.033035   0.483658
     4  H    0.054411   0.176931
     5  H   -0.026673  -0.561309
     6  H    0.010173  -0.459522
     7  H    0.099410   0.317781
     8  H    0.016194   0.539415
     9  H   -0.080574  -0.839335
    10  H   -0.027463  -0.431295
 Sum of Mulliken charges =  -0.00000  -0.00000
 Mulliken charges and spin densities with hydrogens summed into heavy atoms:
               1          2
 Electronic spatial extent (au):  <R**2>=            183.6485
 Charge=             -0.0000 electrons
 Dipole moment (field-independent basis, Debye):
    X=              0.1265    Y=              0.0075    Z=             -0.0000  Tot=              0.1267
 Quadrupole moment (field-independent basis, Debye-Ang):
   XX=            -15.2274   YY=            -20.8831   ZZ=            -12.6083
   XY=              5.6968   XZ=              0.0000   YZ=             -0.0000
 Traceless Quadrupole moment (field-independent basis, Debye-Ang):
   XX=              1.0122   YY=             -4.6435   ZZ=              3.6313
   XY=              5.6968   XZ=              0.0000   YZ=             -0.0000
 Octapole moment (field-independent basis, Debye-Ang**2):
  XXX=              0.6995  YYY=              0.8772  ZZZ=             -0.0000  XYY=             -1.8853
  XXY=              1.0084  XXZ=             -0.0000  XZZ=              0.0851  YZZ=             -0.1383
  YYZ=             -0.0000  XYZ=              0.0000
 Hexadecapole moment (field-independent basis, Debye-Ang**3):
 XXXX=           -138.4339 YYYY=           -330.0546 ZZZZ=            -15.0386 XXXY=             92.2651
 XXXZ=              0.0000 YYYX=            132.0938 YYYZ=             -0.0000 ZZZX=              0.0000
 ZZZY=             -0.0000 XXYY=            -95.3630 XXZZ=            -24.3926 YYZZ=            -41.9170
 XXYZ=             -0.0000 YYXZ=              0.0000 ZZXY=             24.7137
 N-N= 1.214239535967D+01 E-N=-3.400151413440D+01  KE= 5.596635049375D+00
 Symmetry AG   KE= 2.410030592872D+00
 Symmetry BG   KE= 0.000000000000D+00
 Symmetry AU   KE= 0.000000000000D+00
 Symmetry BU   KE= 3.186604456502D+00
                          Isotropic Fermi Contact Couplings
        Atom                 a.u.       MegaHertz       Gauss      10(-4) cm-1
     1  H(1)              -0.01188     -26.54455      -9.47175      -8.85431
     2  H(1)               0.36481     815.32056     290.92664     271.96167
     3  H(1)               0.20240     452.36135     161.41377     150.89151
     4  H(1)               0.11086     247.76074      88.40719      82.64409
     5  H(1)              -0.24182    -540.46349    -192.85081    -180.27922
     6  H(1)              -0.18844    -421.15868    -150.27989    -140.48341
     7  H(1)               0.10681     238.70583      85.17617      79.62369
     8  H(1)               0.22902     511.84310     182.63834     170.73248
     9  H(1)              -0.32780    -732.61292    -261.41450    -244.37337
    10  H(1)              -0.19415    -433.90510    -154.82812    -144.73516
 --------------------------------------------------------
       Center         ----  Spin Dipole Couplings  ----
                      3XX-RR        3YY-RR        3ZZ-RR
 --------------------------------------------------------
     1   Atom        0.016361      0.049026     -0.065387
     2   Atom        0.011091     -0.025248      0.014157
     3   Atom       -0.075517      0.016878      0.058639
     4   Atom       -0.026252      0.040551     -0.014299
     5   Atom        0.106248     -0.030817     -0.075431
     6   Atom        0.109880     -0.036233     -0.073648
     7   Atom       -0.100627      0.013288      0.087339
     8   Atom       -0.094554     -0.001613      0.096167
     9   Atom        0.009424      0.003925     -0.013349
    10   Atom        0.055554     -0.036724     -0.018830
 --------------------------------------------------------
                        XY            XZ            YZ
 --------------------------------------------------------
     1   Atom        0.012591      0.000000     -0.000000
     2   Atom       -0.002418      0.000000      0.000000
     3   Atom       -0.026827     -0.000000     -0.000000
     4   Atom        0.005834     -0.000000      0.000000
     5   Atom        0.019693     -0.000000     -0.000000
     6   Atom        0.000958      0.000000      0.000000
     7   Atom        0.025851      0.000000     -0.000000
     8   Atom       -0.002841      0.000000     -0.000000
     9   Atom       -0.030666     -0.000000      0.000000
    10   Atom        0.019384     -0.000000      0.000000
 --------------------------------------------------------


 ---------------------------------------------------------------------------------
              Anisotropic Spin Dipole Couplings in Principal Axis System
 ---------------------------------------------------------------------------------

       Atom             a.u.   MegaHertz   Gauss  10(-4) cm-1        Axes

              Baa    -0.0654   -34.888   -12.449   -11.637  0.0000  0.0000  1.0000
     1 H(1)   Bbb     0.0121     6.441     2.298     2.148  0.9466 -0.3225  0.0000
              Bcc     0.0533    28.447    10.151     9.489  0.3225  0.9466  0.0000
 
              Baa    -0.0254   -13.557    -4.837    -4.522  0.0661  0.9978  0.0000
     2 H(1)   Bbb     0.0113     6.003     2.142     2.002  0.9978 -0.0661  0.0000
              Bcc     0.0142     7.554     2.695     2.520  0.0000  0.0000  1.0000
 
              Baa    -0.0827   -44.147   -15.753   -14.726  0.9656  0.2600  0.0000
     3 H(1)   Bbb     0.0241    12.860     4.589     4.290 -0.2600  0.9656  0.0000
              Bcc     0.0586    31.287    11.164    10.436  0.0000  0.0000  1.0000
 
              Baa    -0.0268   -14.276    -5.094    -4.762  0.9963 -0.0864  0.0000
     4 H(1)   Bbb    -0.0143    -7.630    -2.722    -2.545  0.0000  0.0000  1.0000
              Bcc     0.0411    21.906     7.817     7.307  0.0864  0.9963  0.0000
 
              Baa    -0.0754   -40.246   -14.361   -13.425  0.0000  0.0000  1.0000
     5 H(1)   Bbb    -0.0336   -17.922    -6.395    -5.978 -0.1395  0.9902 -0.0000
              Bcc     0.1090    58.169    20.756    19.403  0.9902  0.1395  0.0000
 
              Baa    -0.0736   -39.295   -14.021   -13.107  0.0000  0.0000  1.0000
     6 H(1)   Bbb    -0.0362   -19.335    -6.899    -6.450 -0.0066  1.0000 -0.0000
              Bcc     0.1099    58.630    20.921    19.557  1.0000  0.0066  0.0000
 
              Baa    -0.1062   -56.673   -20.223   -18.904  0.9774 -0.2114  0.0000
     7 H(1)   Bbb     0.0189    10.074     3.595     3.360  0.2114  0.9774  0.0000
              Bcc     0.0873    46.600    16.628    15.544  0.0000  0.0000  1.0000
 
              Baa    -0.0946   -50.496   -18.018   -16.844  0.9995  0.0305  0.0000
     8 H(1)   Bbb    -0.0015    -0.814    -0.291    -0.272 -0.0305  0.9995  0.0000
              Bcc     0.0962    51.310    18.309    17.115  0.0000  0.0000  1.0000
 
              Baa    -0.0241   -12.866    -4.591    -4.292  0.6748  0.7380  0.0000
     9 H(1)   Bbb    -0.0133    -7.122    -2.541    -2.376  0.0000  0.0000  1.0000
              Bcc     0.0375    19.988     7.132     6.667  0.7380 -0.6748  0.0000
 
              Baa    -0.0406   -21.679    -7.735    -7.231 -0.1976  0.9803  0.0000
    10 H(1)   Bbb    -0.0188   -10.047    -3.585    -3.351  0.0000  0.0000  1.0000
              Bcc     0.0595    31.725    11.320    10.582  0.9803  0.1976  0.0000
 

 ---------------------------------------------------------------------------------


 Test job not archived.
 1\1\GINC-SULU\Stability\UHF\Gen\H10\LCJ1\28-Feb-2017\0\\#uhf/gen scf(t
 ight,novaracc,noincfock,fulldiag) stable(cuhf) guess=read geom=nocrowd
  test\\hf stability analysis of h10 triangular lattice, y= 0.452161983
 50734593\\0,1\H\H,1,1.3545616542\H,1,1.3545616542,2,141.\H,2,1.3545616
 542,1,39.,3,0.,0\H,3,1.3545616542,1,180.,2,0.,0\H,4,1.3545616542,2,180
 .,1,0.,0\H,5,1.3545616542,3,180.,2,0.,0\H,6,1.3545616542,4,180.,1,0.,0
 \H,7,1.3545616542,5,180.,2,0.,0\H,8,1.3545616542,6,180.,1,0.,0\\Versio
 n=ES64L-G09RevE.01\HF=-4.8933115\MP2=-4.9380007\PUHF=-5.0539146\PMP2-0
 =-5.0977036\S2=1.593149\S2-1=1.503098\S2A=3.647228\RMSD=3.987e-09\Dipo
 le=-0.0497604,0.,-0.0029463\Quadrupole=0.7525401,2.6997598,-3.4522999,
 0.,4.2354582,0.\PG=C02H [SGH(H10)]\\@


 OPTIMIST - A PESSIMIST WHO LACKS EXPERIENCE
 Job cpu time:       0 days  0 hours  0 minutes  1.3 seconds.
 File lengths (MBytes):  RWF=     94 Int=      0 D2E=      0 Chk=      2 Scr=      2
 Normal termination of Gaussian 09 at Tue Feb 28 18:09:47 2017.
