 Entering Gaussian System, Link 0=g09
 AtFile(1): H.gbs
            H     0
            S   10   1.00
               1000.000000000000            0.000068713567
                316.227766000000            0.000169141320
                100.000000000000            0.000823394812
                 31.622776600000            0.003425569236
                 10.000000000000            0.013951996000
                  3.162277660000            0.056909313560
                  1.000000000000            0.198286399900
                  0.316227766000            0.496922426700
                  0.100000000000            0.369846276400
                  0.031622776600            0.003752720039
            ****
 Initial command:
 /projects/guscus/apps/gau/g09-e1/g09/l1.exe "/users/lcj1/gaussian/h10/2rows_uhf/singlet/tripguessmix/guessalways/Gau-7155.inp" -scrdir="/users/lcj1/gaussian/h10/2rows_uhf/singlet/tripguessmix/guessalways/"
 Entering Link 1 = /projects/guscus/apps/gau/g09-e1/g09/l1.exe PID=      7156.
  
 Copyright (c) 1988,1990,1992,1993,1995,1998,2003,2009,2015,
            Gaussian, Inc.  All Rights Reserved.
  
 This is part of the Gaussian(R) 09 program.  It is based on
 the Gaussian(R) 03 system (copyright 2003, Gaussian, Inc.),
 the Gaussian(R) 98 system (copyright 1998, Gaussian, Inc.),
 the Gaussian(R) 94 system (copyright 1995, Gaussian, Inc.),
 the Gaussian 92(TM) system (copyright 1992, Gaussian, Inc.),
 the Gaussian 90(TM) system (copyright 1990, Gaussian, Inc.),
 the Gaussian 88(TM) system (copyright 1988, Gaussian, Inc.),
 the Gaussian 86(TM) system (copyright 1986, Carnegie Mellon
 University), and the Gaussian 82(TM) system (copyright 1983,
 Carnegie Mellon University). Gaussian is a federally registered
 trademark of Gaussian, Inc.
  
 This software contains proprietary and confidential information,
 including trade secrets, belonging to Gaussian, Inc.
  
 This software is provided under written license and may be
 used, copied, transmitted, or stored only in accord with that
 written license.
  
 The following legend is applicable only to US Government
 contracts under FAR:
  
                    RESTRICTED RIGHTS LEGEND
  
 Use, reproduction and disclosure by the US Government is
 subject to restrictions as set forth in subparagraphs (a)
 and (c) of the Commercial Computer Software - Restricted
 Rights clause in FAR 52.227-19.
  
 Gaussian, Inc.
 340 Quinnipiac St., Bldg. 40, Wallingford CT 06492
  
  
 ---------------------------------------------------------------
 Warning -- This program may not be used in any manner that
 competes with the business of Gaussian, Inc. or will provide
 assistance to any competitor of Gaussian, Inc.  The licensee
 of this program is prohibited from giving any competitor of
 Gaussian, Inc. access to this program.  By using this program,
 the user acknowledges that Gaussian, Inc. is engaged in the
 business of creating and licensing software in the field of
 computational chemistry and represents and warrants to the
 licensee that it is not a competitor of Gaussian, Inc. and that
 it will not use this program in any manner prohibited above.
 ---------------------------------------------------------------
  

 Cite this work as:
 Gaussian 09, Revision E.01,
 M. J. Frisch, G. W. Trucks, H. B. Schlegel, G. E. Scuseria, 
 M. A. Robb, J. R. Cheeseman, G. Scalmani, V. Barone, B. Mennucci, 
 G. A. Petersson, H. Nakatsuji, M. Caricato, X. Li, H. P. Hratchian, 
 A. F. Izmaylov, J. Bloino, G. Zheng, J. L. Sonnenberg, M. Hada, 
 M. Ehara, K. Toyota, R. Fukuda, J. Hasegawa, M. Ishida, T. Nakajima, 
 Y. Honda, O. Kitao, H. Nakai, T. Vreven, J. A. Montgomery, Jr., 
 J. E. Peralta, F. Ogliaro, M. Bearpark, J. J. Heyd, E. Brothers, 
 K. N. Kudin, V. N. Staroverov, T. Keith, R. Kobayashi, J. Normand, 
 K. Raghavachari, A. Rendell, J. C. Burant, S. S. Iyengar, J. Tomasi, 
 M. Cossi, N. Rega, J. M. Millam, M. Klene, J. E. Knox, J. B. Cross, 
 V. Bakken, C. Adamo, J. Jaramillo, R. Gomperts, R. E. Stratmann, 
 O. Yazyev, A. J. Austin, R. Cammi, C. Pomelli, J. W. Ochterski, 
 R. L. Martin, K. Morokuma, V. G. Zakrzewski, G. A. Voth, 
 P. Salvador, J. J. Dannenberg, S. Dapprich, A. D. Daniels, 
 O. Farkas, J. B. Foresman, J. V. Ortiz, J. Cioslowski, 
 and D. J. Fox, Gaussian, Inc., Wallingford CT, 2013.
 
 ******************************************
 Gaussian 09:  ES64L-G09RevE.01 30-Nov-2015
                28-Feb-2017 
 ******************************************
 %chk=h10.chk
 ----------------------------------------------------------------------
 #uhf/gen scf(tight,novaracc,noincfock,fulldiag, ) stable(crhf) guess=(
 read,mix) geom=nocrowd test
 ----------------------------------------------------------------------
 1/38=1/1;
 2/12=1,17=6,18=5,40=1/2;
 3/5=7,16=1,25=1,30=1,116=2/1,2,3;
 4/5=1,13=-1/1;
 5/5=100002,16=1,32=2,38=6/2;
 8/6=1,10=90,11=11/1,4;
 9/8=4,13=1/2;
 6/7=2,8=2,9=2,10=2,28=1/1;
 99/5=1,9=1/99;
 ----------------------------------------------------------------------
 hf stability analysis of h10 triangular lattice, y= 0.5188669005588153
 5 alpha= 25.000000000000000
 ----------------------------------------------------------------------
 Symbolic Z-matrix:
 Charge =  0 Multiplicity = 1
 H
 H                    1     1.22774 
 H                    1     1.22774  2     130. 
 H                    2     1.22774  1     50.      3     0.       0
 H                    3     1.22774  1     180.     2     0.       0
 H                    4     1.22774  2     180.     1     0.       0
 H                    5     1.22774  3     180.     2     0.       0
 H                    6     1.22774  4     180.     1     0.       0
 H                    7     1.22774  5     180.     2     0.       0
 H                    8     1.22774  6     180.     1     0.       0
 
                          Input orientation:                          
 ---------------------------------------------------------------------
 Center     Atomic      Atomic             Coordinates (Angstroms)
 Number     Number       Type             X           Y           Z
 ---------------------------------------------------------------------
      1          1           0        0.000000    0.000000    0.000000
      2          1           0        0.000000    0.000000    1.227744
      3          1           0        0.940506    0.000000   -0.789178
      4          1           0        0.940506    0.000000    0.438565
      5          1           0        1.881012    0.000000   -1.578357
      6          1           0        1.881012    0.000000   -0.350613
      7          1           0        2.821519    0.000000   -2.367535
      8          1           0        2.821519    0.000000   -1.139792
      9          1           0        3.762025    0.000000   -3.156714
     10          1           0        3.762025    0.000000   -1.928970
 ---------------------------------------------------------------------
                    Distance matrix (angstroms):
                    1          2          3          4          5
     1  H    0.000000
     2  H    1.227744   0.000000
     3  H    1.227744   2.225427   0.000000
     4  H    1.037734   1.227744   1.227744   0.000000
     5  H    2.455487   3.378225   1.227744   2.225427   0.000000
     6  H    1.913410   2.455487   1.037734   1.227744   1.227744
     7  H    3.683231   4.570229   2.455487   3.378225   1.227744
     8  H    3.043040   3.683231   1.913410   2.455487   1.037734
     9  H    4.910975   5.777222   3.683231   4.570229   2.455487
    10  H    4.227736   4.910975   3.043040   3.683231   1.913410
                    6          7          8          9         10
     6  H    0.000000
     7  H    2.225427   0.000000
     8  H    1.227744   1.227744   0.000000
     9  H    3.378225   1.227744   2.225427   0.000000
    10  H    2.455487   1.037734   1.227744   1.227744   0.000000
 Stoichiometry    H10
 Framework group  C2H[SGH(H10)]
 Deg. of freedom     9
 Full point group                 C2H     NOp   4
 Largest Abelian subgroup         C2H     NOp   4
 Largest concise Abelian subgroup C2      NOp   2
                         Standard orientation:                         
 ---------------------------------------------------------------------
 Center     Atomic      Atomic             Coordinates (Angstroms)
 Number     Number       Type             X           Y           Z
 ---------------------------------------------------------------------
      1          1           0        1.881012   -0.964485    0.000000
      2          1           0        1.881012   -2.192229    0.000000
      3          1           0        0.940506   -0.175307   -0.000000
      4          1           0        0.940506   -1.403050    0.000000
      5          1           0        0.000000    0.613872   -0.000000
      6          1           0       -0.000000   -0.613872   -0.000000
      7          1           0       -0.940506    1.403050   -0.000000
      8          1           0       -0.940506    0.175307   -0.000000
      9          1           0       -1.881012    2.192229   -0.000000
     10          1           0       -1.881012    0.964485   -0.000000
 ---------------------------------------------------------------------
 Rotational constants (GHZ):    239.3474058     15.7589275     14.7854362
 General basis read from cards:  (5D, 7F)
 There are     5 symmetry adapted cartesian basis functions of AG  symmetry.
 There are     0 symmetry adapted cartesian basis functions of BG  symmetry.
 There are     0 symmetry adapted cartesian basis functions of AU  symmetry.
 There are     5 symmetry adapted cartesian basis functions of BU  symmetry.
 There are     5 symmetry adapted basis functions of AG  symmetry.
 There are     0 symmetry adapted basis functions of BG  symmetry.
 There are     0 symmetry adapted basis functions of AU  symmetry.
 There are     5 symmetry adapted basis functions of BU  symmetry.
    10 basis functions,   100 primitive gaussians,    10 cartesian basis functions
     5 alpha electrons        5 beta electrons
       nuclear repulsion energy        12.7730954421 Hartrees.
 NAtoms=   10 NActive=   10 NUniq=    5 SFac= 4.00D+00 NAtFMM=   60 NAOKFM=F Big=F
 Integral buffers will be    131072 words long.
 Regular integral format.
 Two-electron integral symmetry is turned on.
 One-electron integrals computed using PRISM.
 NBasis=    10 RedAO= T EigKep=  1.92D-01  NBF=     5     0     0     5
 NBsUse=    10 1.00D-06 EigRej= -1.00D+00 NBFU=     5     0     0     5
 Initial guess from the checkpoint file:  "h10.chk"
 B after Tr=     0.000000   -0.000000   -0.000000
         Rot=    0.999970    0.000000    0.000000    0.007757 Ang=   0.89 deg.
 Mixing orbitals, IMix= 1 IMixAn=  0 NRI=1 NE=    5 Coef=  7.07106781D-01  7.07106781D-01
 Mixing orbitals, IMix= 1 IMixAn=  0 NRI=1 NE=    5 Coef= -7.07106781D-01  7.07106781D-01
 Initial guess orbital symmetries:
 Alpha Orbitals:
       Occupied  (AG) (BU) (AG) (BU) (?A)
       Virtual   (?A) (AG) (BU) (BU) (AG)
 Beta  Orbitals:
       Occupied  (AG) (BU) (AG) (BU) (?A)
       Virtual   (?A) (AG) (BU) (BU) (AG)
 Initial guess <Sx>= 0.0000 <Sy>= 0.0000 <Sz>= 0.0000 <S**2>= 0.9101 S= 0.5771
 Keep R1 and R2 ints in memory in symmetry-blocked form, NReq=878515.
 Requested convergence on RMS density matrix=1.00D-08 within 128 cycles.
 Requested convergence on MAX density matrix=1.00D-06.
 Requested convergence on             energy=1.00D-06.
 No special actions if energy rises.
 An orbital has undefined symmetry, so N**3 symmetry is turned off.
 Density matrix breaks symmetry, PCut= 1.00D-04
 Density matrix has no symmetry -- integrals replicated.
 Density matrix breaks symmetry, PCut= 1.00D-07
 Density matrix has no symmetry -- integrals replicated.
 Density matrix breaks symmetry, PCut= 1.00D-07
 Density matrix has no symmetry -- integrals replicated.
 Density matrix breaks symmetry, PCut= 1.00D-07
 Density matrix has no symmetry -- integrals replicated.
 Density matrix breaks symmetry, PCut= 1.00D-07
 Density matrix has no symmetry -- integrals replicated.
 Density matrix breaks symmetry, PCut= 1.00D-07
 Density matrix has no symmetry -- integrals replicated.
 Density matrix breaks symmetry, PCut= 1.00D-07
 Density matrix has no symmetry -- integrals replicated.
 Density matrix breaks symmetry, PCut= 1.00D-07
 Density matrix has no symmetry -- integrals replicated.
 Rare condition: small coef for last iteration:  0.000D+00
 Density matrix breaks symmetry, PCut= 1.00D-07
 Density matrix has no symmetry -- integrals replicated.
 Rare condition: small coef for last iteration:  0.000D+00
 Density matrix breaks symmetry, PCut= 1.00D-07
 Density matrix has no symmetry -- integrals replicated.
 Density matrix breaks symmetry, PCut= 1.00D-07
 Density matrix has no symmetry -- integrals replicated.
 Density matrix breaks symmetry, PCut= 1.00D-07
 Density matrix has no symmetry -- integrals replicated.
 Density matrix breaks symmetry, PCut= 1.00D-07
 Density matrix has no symmetry -- integrals replicated.
 Density matrix breaks symmetry, PCut= 1.00D-07
 Density matrix has no symmetry -- integrals replicated.
 Density matrix breaks symmetry, PCut= 1.00D-07
 Density matrix has no symmetry -- integrals replicated.
 Density matrix breaks symmetry, PCut= 1.00D-07
 Density matrix has no symmetry -- integrals replicated.
 Density matrix breaks symmetry, PCut= 1.00D-07
 Density matrix has no symmetry -- integrals replicated.
 Density matrix breaks symmetry, PCut= 1.00D-07
 Density matrix has no symmetry -- integrals replicated.
 Density matrix breaks symmetry, PCut= 1.00D-07
 Density matrix has no symmetry -- integrals replicated.
 Density matrix breaks symmetry, PCut= 1.00D-07
 Density matrix has no symmetry -- integrals replicated.
 Density matrix breaks symmetry, PCut= 1.00D-07
 Density matrix has no symmetry -- integrals replicated.
 Density matrix breaks symmetry, PCut= 1.00D-07
 Density matrix has no symmetry -- integrals replicated.
 Density matrix breaks symmetry, PCut= 1.00D-07
 Density matrix has no symmetry -- integrals replicated.
 Density matrix breaks symmetry, PCut= 1.00D-07
 Density matrix has no symmetry -- integrals replicated.
 Density matrix breaks symmetry, PCut= 1.00D-07
 Density matrix has no symmetry -- integrals replicated.
 Density matrix breaks symmetry, PCut= 1.00D-07
 Density matrix has no symmetry -- integrals replicated.
 Density matrix breaks symmetry, PCut= 1.00D-07
 Density matrix has no symmetry -- integrals replicated.
 Density matrix breaks symmetry, PCut= 1.00D-07
 Density matrix has no symmetry -- integrals replicated.
 Density matrix breaks symmetry, PCut= 1.00D-07
 Density matrix has no symmetry -- integrals replicated.
 Density matrix breaks symmetry, PCut= 1.00D-07
 Density matrix has no symmetry -- integrals replicated.
 SCF Done:  E(UHF) =  -4.84526170328     A.U. after   29 cycles
            NFock= 29  Conv=0.95D-08     -V/T= 1.9579
 <Sx>= 0.0000 <Sy>= 0.0000 <Sz>= 0.0000 <S**2>= 0.5089 S= 0.3711
 <L.S>= 0.000000000000E+00
 Annihilation of the first spin contaminant:
 S**2 before annihilation     0.5089,   after     0.1282
 Range of M.O.s used for correlation:     1    10
 NBasis=    10 NAE=     5 NBE=     5 NFC=     0 NFV=     0
 NROrb=     10 NOA=     5 NOB=     5 NVA=     5 NVB=     5
 Semi-Direct transformation.
 ModeAB=           2 MOrb=             5 LenV=     134108593
 LASXX=         1030 LTotXX=        1030 LenRXX=        1030
 LTotAB=        1825 MaxLAS=        2750 LenRXY=        2750
 NonZer=        2750 LenScr=      655360 LnRSAI=           0
 LnScr1=           0 LExtra=           0 Total=       659140
 MaxDsk=          -1 SrtSym=           F ITran=            3
 JobTyp=1 Pass  1:  I=   1 to   5.
 (rs|ai) integrals will be sorted in core.
 ModeAB=           2 MOrb=             5 LenV=     134108593
 LASXX=         1030 LTotXX=        1030 LenRXX=        2750
 LTotAB=         225 MaxLAS=        2750 LenRXY=         225
 NonZer=        2750 LenScr=      655360 LnRSAI=           0
 LnScr1=           0 LExtra=           0 Total=       658335
 MaxDsk=          -1 SrtSym=           F ITran=            3
 JobTyp=2 Pass  1:  I=   1 to   5.
 (rs|ai) integrals will be sorted in core.
 SymMOI:  orbitals are not symmetric.
 Spin components of T(2) and E(2):
     alpha-alpha T2 =       0.5579273216D-02 E2=     -0.6623973619D-02
     alpha-beta  T2 =       0.6867441695D-01 E2=     -0.8441000689D-01
     beta-beta   T2 =       0.5579273171D-02 E2=     -0.6623973576D-02
 ANorm=    0.1039150116D+01
 E2 =    -0.9765795408D-01 EUMP2 =    -0.49429196573618D+01
 (S**2,0)=  0.50886D+00           (S**2,1)=  0.43139D+00
 E(PUHF)=      -0.48728648280D+01        E(PMP2)=      -0.49686599879D+01
 Second order stability test of a single determinant UHF wave function:
 Stabil:  MDV=134217728
 ***********************************************************************
 Matrix         Lowest Root    Major Pairs
 ***********************************************************************
 Internal UHF    -0.0643812    5B=6B 5A=6A 5A=7A 5B=7B
 RUHF --> CUHF (A)0.0820473    Stable
 RUHF --> CUHF (B)0.0820473    Stable

 RUHF --> GHF    -0.0686801    5A=6B 5B=6A 5B=7A 5A=7B 4B=7A 4A=7B 5A=8B 5B=8A 5A
 =10B 5B=10A
 Not stable.
 ***********************************************************************

 **********************************************************************

            Population analysis using the SCF density.

 **********************************************************************

 Orbital symmetries:
 Alpha Orbitals:
       Occupied  (BG) (BG) (BG) (BG) (BG)
       Virtual   (BG) (BG) (BG) (BG) (BG)
 Beta  Orbitals:
       Occupied  (BG) (BG) (BG) (BG) (BG)
       Virtual   (BG) (BG) (BG) (BG) (BG)
 Unable to determine electronic state:  partially filled degenerate orbitals.
 Alpha  occ. eigenvalues --   -0.81934  -0.73484  -0.56051  -0.34852  -0.27345
 Alpha virt. eigenvalues --    0.04521   0.15149   0.25550   0.43514   0.59247
  Beta  occ. eigenvalues --   -0.81934  -0.73484  -0.56051  -0.34852  -0.27345
  Beta virt. eigenvalues --    0.04521   0.15149   0.25550   0.43514   0.59247
          Condensed to atoms (all electrons):
               1          2          3          4          5          6
     1  H    0.788047   0.145376   0.122389   0.023326   0.029785  -0.161233
     2  H    0.145376   0.961873  -0.099444   0.045548   0.004402  -0.044687
     3  H    0.122389  -0.099444   1.032840  -0.040549   0.188470  -0.008782
     4  H    0.023326   0.045548  -0.040549   0.674281  -0.108488   0.279117
     5  H    0.029785   0.004402   0.188470  -0.108488   1.231116  -0.287335
     6  H   -0.161233  -0.044687  -0.008782   0.279117  -0.287335   1.231116
     7  H    0.007542   0.000769   0.015123  -0.012750   0.279117  -0.108488
     8  H   -0.017299   0.007073  -0.163692   0.015123  -0.008782   0.188470
     9  H   -0.000139  -0.000173   0.007073   0.000769  -0.044687   0.004402
    10  H   -0.000805  -0.000139  -0.017299   0.007542  -0.161233   0.029785
               7          8          9         10
     1  H    0.007542  -0.017299  -0.000139  -0.000805
     2  H    0.000769   0.007073  -0.000173  -0.000139
     3  H    0.015123  -0.163692   0.007073  -0.017299
     4  H   -0.012750   0.015123   0.000769   0.007542
     5  H    0.279117  -0.008782  -0.044687  -0.161233
     6  H   -0.108488   0.188470   0.004402   0.029785
     7  H    0.674281  -0.040549   0.045548   0.023326
     8  H   -0.040549   1.032840  -0.099444   0.122389
     9  H    0.045548  -0.099444   0.961873   0.145376
    10  H    0.023326   0.122389   0.145376   0.788047
          Atomic-Atomic Spin Densities.
               1          2          3          4          5          6
     1  H    0.210505   0.095969  -0.154214   0.029459   0.006769  -0.028743
     2  H    0.095969  -0.637573   0.049115   0.011330  -0.006074  -0.004474
     3  H   -0.154214   0.049115  -0.201908  -0.036320   0.102686   0.130589
     4  H    0.029459   0.011330  -0.036320   0.041990  -0.001046  -0.008028
     5  H    0.006769  -0.006074   0.102686  -0.001046  -0.047508  -0.000000
     6  H   -0.028743  -0.004474   0.130589  -0.008028  -0.000000   0.047508
     7  H    0.000826  -0.000054  -0.006144   0.000000   0.008028   0.001046
     8  H    0.011012  -0.002312  -0.000000   0.006144  -0.130589  -0.102686
     9  H   -0.000495  -0.000000   0.002312   0.000054   0.004474   0.006074
    10  H    0.000000   0.000495  -0.011012  -0.000826   0.028743  -0.006769
               7          8          9         10
     1  H    0.000826   0.011012  -0.000495   0.000000
     2  H   -0.000054  -0.002312  -0.000000   0.000495
     3  H   -0.006144  -0.000000   0.002312  -0.011012
     4  H    0.000000   0.006144   0.000054  -0.000826
     5  H    0.008028  -0.130589   0.004474   0.028743
     6  H    0.001046  -0.102686   0.006074  -0.006769
     7  H   -0.041990   0.036320  -0.011330  -0.029459
     8  H    0.036320   0.201908  -0.049115   0.154214
     9  H   -0.011330  -0.049115   0.637573  -0.095969
    10  H   -0.029459   0.154214  -0.095969  -0.210506
 Mulliken charges and spin densities:
               1          2
     1  H    0.063011   0.171088
     2  H   -0.020597  -0.493578
     3  H   -0.036128  -0.124896
     4  H    0.116080   0.042757
     5  H   -0.122366  -0.034519
     6  H   -0.122366   0.034519
     7  H    0.116080  -0.042757
     8  H   -0.036128   0.124896
     9  H   -0.020597   0.493578
    10  H    0.063011  -0.171088
 Sum of Mulliken charges =  -0.00000  -0.00000
 Mulliken charges and spin densities with hydrogens summed into heavy atoms:
               1          2
 Electronic spatial extent (au):  <R**2>=            150.4664
 Charge=             -0.0000 electrons
 Dipole moment (field-independent basis, Debye):
    X=             -0.0000    Y=              0.0000    Z=              0.0000  Tot=              0.0000
 Quadrupole moment (field-independent basis, Debye-Ang):
   XX=            -12.8541   YY=            -13.5714   ZZ=            -13.0540
   XY=             -1.4906   XZ=              0.0000   YZ=              0.0000
 Traceless Quadrupole moment (field-independent basis, Debye-Ang):
   XX=              0.3057   YY=             -0.4116   ZZ=              0.1058
   XY=             -1.4906   XZ=              0.0000   YZ=              0.0000
 Octapole moment (field-independent basis, Debye-Ang**2):
  XXX=             -0.0000  YYY=              0.0000  ZZZ=             -0.0000  XYY=             -0.0000
  XXY=              0.0000  XXZ=             -0.0000  XZZ=             -0.0000  YZZ=              0.0000
  YYZ=             -0.0000  XYZ=              0.0000
 Hexadecapole moment (field-independent basis, Debye-Ang**3):
 XXXX=           -164.4817 YYYY=           -151.3921 ZZZZ=            -15.8664 XXXY=             64.3534
 XXXZ=             -0.0000 YYYX=             62.6446 YYYZ=              0.0000 ZZZX=             -0.0000
 ZZZY=              0.0000 XXYY=            -56.9153 XXZZ=            -29.2654 YYZZ=            -27.4426
 XXYZ=              0.0000 YYXZ=             -0.0000 ZZXY=             19.5468
 N-N= 1.277309544210D+01 E-N=-3.482145114442D+01  KE= 5.058073207677D+00
 Symmetry AG   KE= 1.682131732021D+00
 Symmetry BG   KE= 0.000000000000D+00
 Symmetry AU   KE= 0.000000000000D+00
 Symmetry BU   KE= 3.375941475656D+00
                          Isotropic Fermi Contact Couplings
        Atom                 a.u.       MegaHertz       Gauss      10(-4) cm-1
     1  H(1)               0.06097     136.27077      48.62480      45.45504
     2  H(1)              -0.18274    -408.42170    -145.73501    -136.23482
     3  H(1)              -0.05233    -116.95193     -41.73135     -39.01096
     4  H(1)               0.01348      30.12725      10.75015      10.04937
     5  H(1)              -0.01765     -39.43996     -14.07316     -13.15575
     6  H(1)               0.01765      39.43996      14.07316      13.15575
     7  H(1)              -0.01348     -30.12725     -10.75015     -10.04937
     8  H(1)               0.05233     116.95193      41.73136      39.01097
     9  H(1)               0.18274     408.42171     145.73502     136.23482
    10  H(1)              -0.06097    -136.27080     -48.62481     -45.45505
 --------------------------------------------------------
       Center         ----  Spin Dipole Couplings  ----
                      3XX-RR        3YY-RR        3ZZ-RR
 --------------------------------------------------------
     1   Atom        0.019394     -0.054340      0.034946
     2   Atom       -0.013160      0.032669     -0.019509
     3   Atom        0.016591     -0.005291     -0.011300
     4   Atom        0.027863     -0.046439      0.018576
     5   Atom        0.007306      0.000150     -0.007456
     6   Atom       -0.007306     -0.000150      0.007456
     7   Atom       -0.027863      0.046439     -0.018576
     8   Atom       -0.016591      0.005291      0.011300
     9   Atom        0.013160     -0.032669      0.019509
    10   Atom       -0.019394      0.054340     -0.034946
 --------------------------------------------------------
                        XY            XZ            YZ
 --------------------------------------------------------
     1   Atom        0.034090     -0.000000      0.000000
     2   Atom       -0.003419     -0.000000     -0.000000
     3   Atom        0.010039     -0.000000      0.000000
     4   Atom        0.033489     -0.000000      0.000000
     5   Atom       -0.012639      0.000000     -0.000000
     6   Atom        0.012639     -0.000000      0.000000
     7   Atom       -0.033489      0.000000     -0.000000
     8   Atom       -0.010039      0.000000      0.000000
     9   Atom        0.003419     -0.000000      0.000000
    10   Atom       -0.034090      0.000000     -0.000000
 --------------------------------------------------------


 ---------------------------------------------------------------------------------
              Anisotropic Spin Dipole Couplings in Principal Axis System
 ---------------------------------------------------------------------------------

       Atom             a.u.   MegaHertz   Gauss  10(-4) cm-1        Axes

              Baa    -0.0677   -36.114   -12.886   -12.046 -0.3645  0.9312  0.0000
     1 H(1)   Bbb     0.0327    17.468     6.233     5.827  0.9312  0.3645  0.0000
              Bcc     0.0349    18.646     6.653     6.220  0.0000  0.0000  1.0000
 
              Baa    -0.0195   -10.409    -3.714    -3.472  0.0000  0.0000  1.0000
     2 H(1)   Bbb    -0.0134    -7.157    -2.554    -2.387  0.9973  0.0740  0.0000
              Bcc     0.0329    17.566     6.268     5.859 -0.0740  0.9973  0.0000
 
              Baa    -0.0113    -6.029    -2.151    -2.011  0.0000  0.0000  1.0000
     3 H(1)   Bbb    -0.0092    -4.908    -1.751    -1.637 -0.3628  0.9319  0.0000
              Bcc     0.0205    10.937     3.903     3.648  0.9319  0.3628  0.0000
 
              Baa    -0.0593   -31.642   -11.291   -10.555 -0.3586  0.9335  0.0000
     4 H(1)   Bbb     0.0186     9.911     3.537     3.306  0.0000  0.0000  1.0000
              Bcc     0.0407    21.731     7.754     7.249  0.9335  0.3586  0.0000
 
              Baa    -0.0094    -5.020    -1.791    -1.674  0.6032  0.7976  0.0000
     5 H(1)   Bbb    -0.0075    -3.978    -1.420    -1.327  0.0000  0.0000  1.0000
              Bcc     0.0169     8.998     3.211     3.001  0.7976 -0.6032  0.0000
 
              Baa    -0.0169    -8.998    -3.211    -3.001  0.7976 -0.6032  0.0000
     6 H(1)   Bbb     0.0075     3.978     1.420     1.327  0.0000  0.0000  1.0000
              Bcc     0.0094     5.020     1.791     1.674  0.6032  0.7976  0.0000
 
              Baa    -0.0407   -21.731    -7.754    -7.249  0.9335  0.3586  0.0000
     7 H(1)   Bbb    -0.0186    -9.911    -3.537    -3.306  0.0000  0.0000  1.0000
              Bcc     0.0593    31.642    11.291    10.555 -0.3586  0.9335  0.0000
 
              Baa    -0.0205   -10.937    -3.903    -3.648  0.9319  0.3628  0.0000
     8 H(1)   Bbb     0.0092     4.908     1.751     1.637 -0.3628  0.9319 -0.0000
              Bcc     0.0113     6.029     2.151     2.011  0.0000  0.0000  1.0000
 
              Baa    -0.0329   -17.566    -6.268    -5.859 -0.0740  0.9973  0.0000
     9 H(1)   Bbb     0.0134     7.157     2.554     2.387  0.9973  0.0740  0.0000
              Bcc     0.0195    10.409     3.714     3.472  0.0000  0.0000  1.0000
 
              Baa    -0.0349   -18.646    -6.653    -6.220  0.0000  0.0000  1.0000
    10 H(1)   Bbb    -0.0327   -17.468    -6.233    -5.827  0.9312  0.3645  0.0000
              Bcc     0.0677    36.114    12.886    12.046 -0.3645  0.9312  0.0000
 

 ---------------------------------------------------------------------------------


 Test job not archived.
 1\1\GINC-SULU\Stability\UHF\Gen\H10\LCJ1\28-Feb-2017\0\\#uhf/gen scf(t
 ight,novaracc,noincfock,fulldiag, ) stable(crhf) guess=(read,mix) geom
 =nocrowd test\\hf stability analysis of h10 triangular lattice, y= 0.5
 1886690055881535 alpha= 25.000000000000000\\0,1\H\H,1,1.2277436496\H,1
 ,1.2277436496,2,130.\H,2,1.2277436496,1,50.,3,0.,0\H,3,1.2277436496,1,
 180.,2,0.,0\H,4,1.2277436496,2,180.,1,0.,0\H,5,1.2277436496,3,180.,2,0
 .,0\H,6,1.2277436496,4,180.,1,0.,0\H,7,1.2277436496,5,180.,2,0.,0\H,8,
 1.2277436496,6,180.,1,0.,0\\Version=ES64L-G09RevE.01\HF=-4.8452617\MP2
 =-4.9429197\PUHF=-4.8728648\PMP2-0=-4.96866\S2=0.508856\S2-1=0.431387\
 S2A=0.128188\RMSD=9.481e-09\Dipole=0.,0.,0.\Quadrupole=0.2273101,0.078
 6747,-0.3059848,0.,-1.1082375,0.\PG=C02H [SGH(H10)]\\@


 IT'S WHAT YOU LEARN AFTER YOU KNOW IT ALL
 THAT COUNTS.
 Job cpu time:       0 days  0 hours  0 minutes  1.3 seconds.
 File lengths (MBytes):  RWF=     94 Int=      0 D2E=      0 Chk=      2 Scr=      2
 Normal termination of Gaussian 09 at Tue Feb 28 16:00:07 2017.
