 Entering Gaussian System, Link 0=g09
 AtFile(1): H.gbs
            H     0
            S   10   1.00
               1000.000000000000            0.000068713567
                316.227766000000            0.000169141320
                100.000000000000            0.000823394812
                 31.622776600000            0.003425569236
                 10.000000000000            0.013951996000
                  3.162277660000            0.056909313560
                  1.000000000000            0.198286399900
                  0.316227766000            0.496922426700
                  0.100000000000            0.369846276400
                  0.031622776600            0.003752720039
            ****
 Initial command:
 /projects/guscus/apps/gau/g09-e1/g09/l1.exe "/users/lcj1/gaussian/h10/2rows_uhf/singlet/stableopt/Gau-27718.inp" -scrdir="/users/lcj1/gaussian/h10/2rows_uhf/singlet/stableopt/"
 Entering Link 1 = /projects/guscus/apps/gau/g09-e1/g09/l1.exe PID=     27719.
  
 Copyright (c) 1988,1990,1992,1993,1995,1998,2003,2009,2015,
            Gaussian, Inc.  All Rights Reserved.
  
 This is part of the Gaussian(R) 09 program.  It is based on
 the Gaussian(R) 03 system (copyright 2003, Gaussian, Inc.),
 the Gaussian(R) 98 system (copyright 1998, Gaussian, Inc.),
 the Gaussian(R) 94 system (copyright 1995, Gaussian, Inc.),
 the Gaussian 92(TM) system (copyright 1992, Gaussian, Inc.),
 the Gaussian 90(TM) system (copyright 1990, Gaussian, Inc.),
 the Gaussian 88(TM) system (copyright 1988, Gaussian, Inc.),
 the Gaussian 86(TM) system (copyright 1986, Carnegie Mellon
 University), and the Gaussian 82(TM) system (copyright 1983,
 Carnegie Mellon University). Gaussian is a federally registered
 trademark of Gaussian, Inc.
  
 This software contains proprietary and confidential information,
 including trade secrets, belonging to Gaussian, Inc.
  
 This software is provided under written license and may be
 used, copied, transmitted, or stored only in accord with that
 written license.
  
 The following legend is applicable only to US Government
 contracts under FAR:
  
                    RESTRICTED RIGHTS LEGEND
  
 Use, reproduction and disclosure by the US Government is
 subject to restrictions as set forth in subparagraphs (a)
 and (c) of the Commercial Computer Software - Restricted
 Rights clause in FAR 52.227-19.
  
 Gaussian, Inc.
 340 Quinnipiac St., Bldg. 40, Wallingford CT 06492
  
  
 ---------------------------------------------------------------
 Warning -- This program may not be used in any manner that
 competes with the business of Gaussian, Inc. or will provide
 assistance to any competitor of Gaussian, Inc.  The licensee
 of this program is prohibited from giving any competitor of
 Gaussian, Inc. access to this program.  By using this program,
 the user acknowledges that Gaussian, Inc. is engaged in the
 business of creating and licensing software in the field of
 computational chemistry and represents and warrants to the
 licensee that it is not a competitor of Gaussian, Inc. and that
 it will not use this program in any manner prohibited above.
 ---------------------------------------------------------------
  

 Cite this work as:
 Gaussian 09, Revision E.01,
 M. J. Frisch, G. W. Trucks, H. B. Schlegel, G. E. Scuseria, 
 M. A. Robb, J. R. Cheeseman, G. Scalmani, V. Barone, B. Mennucci, 
 G. A. Petersson, H. Nakatsuji, M. Caricato, X. Li, H. P. Hratchian, 
 A. F. Izmaylov, J. Bloino, G. Zheng, J. L. Sonnenberg, M. Hada, 
 M. Ehara, K. Toyota, R. Fukuda, J. Hasegawa, M. Ishida, T. Nakajima, 
 Y. Honda, O. Kitao, H. Nakai, T. Vreven, J. A. Montgomery, Jr., 
 J. E. Peralta, F. Ogliaro, M. Bearpark, J. J. Heyd, E. Brothers, 
 K. N. Kudin, V. N. Staroverov, T. Keith, R. Kobayashi, J. Normand, 
 K. Raghavachari, A. Rendell, J. C. Burant, S. S. Iyengar, J. Tomasi, 
 M. Cossi, N. Rega, J. M. Millam, M. Klene, J. E. Knox, J. B. Cross, 
 V. Bakken, C. Adamo, J. Jaramillo, R. Gomperts, R. E. Stratmann, 
 O. Yazyev, A. J. Austin, R. Cammi, C. Pomelli, J. W. Ochterski, 
 R. L. Martin, K. Morokuma, V. G. Zakrzewski, G. A. Voth, 
 P. Salvador, J. J. Dannenberg, S. Dapprich, A. D. Daniels, 
 O. Farkas, J. B. Foresman, J. V. Ortiz, J. Cioslowski, 
 and D. J. Fox, Gaussian, Inc., Wallingford CT, 2013.
 
 ******************************************
 Gaussian 09:  ES64L-G09RevE.01 30-Nov-2015
                28-Feb-2017 
 ******************************************
 %chk=h10.chk
 ----------------------------------------------------------------------
 #rhf/gen scf(symm,tight,novaracc,noincfock,fulldiag) stable=opt guess=
 read geom=nocrowd test
 ----------------------------------------------------------------------
 1/38=1/1;
 2/12=1,17=6,18=5,40=1/2;
 3/5=7,11=2,16=1,25=1,30=1,116=1/1,2,3;
 4/5=1,9=4/1;
 5/5=100002,15=2,16=1,32=2,38=6/2;
 6/7=2,8=2,9=2,10=2,28=1/1;
 8/6=1,10=90,11=11/1;
 9/8=-3,42=1,46=1/14;
 5/5=100002,8=3,16=1,17=40,32=2,38=6/8(-2);
 6/7=2,8=2,9=2,10=2,28=1/1;
 99/5=1,9=1/99;
 ----------------------------------------------------------------------
 hf stability analysis of h10 triangular lattice, y= 0.6506387228320011
 9
 ----------------------------------------------------------------------
 Symbolic Z-matrix:
 Charge =  0 Multiplicity = 1
 H
 H                    1     1.10034 
 H                    1     1.10034  2     107.5 
 H                    2     1.10034  1     72.5     3     0.       0
 H                    3     1.10034  1     180.     2     0.       0
 H                    4     1.10034  2     180.     1     0.       0
 H                    5     1.10034  3     180.     2     0.       0
 H                    6     1.10034  4     180.     1     0.       0
 H                    7     1.10034  5     180.     2     0.       0
 H                    8     1.10034  6     180.     1     0.       0
 
                          Input orientation:                          
 ---------------------------------------------------------------------
 Center     Atomic      Atomic             Coordinates (Angstroms)
 Number     Number       Type             X           Y           Z
 ---------------------------------------------------------------------
      1          1           0        0.000000    0.000000    0.000000
      2          1           0        0.000000    0.000000    1.100335
      3          1           0        1.049408    0.000000   -0.330877
      4          1           0        1.049408    0.000000    0.769458
      5          1           0        2.098816    0.000000   -0.661754
      6          1           0        2.098816    0.000000    0.438581
      7          1           0        3.148224    0.000000   -0.992631
      8          1           0        3.148224    0.000000    0.107704
      9          1           0        4.197633    0.000000   -1.323508
     10          1           0        4.197633    0.000000   -0.223173
 ---------------------------------------------------------------------
                    Distance matrix (angstroms):
                    1          2          3          4          5
     1  H    0.000000
     2  H    1.100335   0.000000
     3  H    1.100335   1.774718   0.000000
     4  H    1.301277   1.100335   1.100335   0.000000
     5  H    2.200670   2.740436   1.100335   1.774718   0.000000
     6  H    2.144151   2.200670   1.301277   1.100335   1.100335
     7  H    3.301005   3.780453   2.200670   2.740436   1.100335
     8  H    3.150066   3.301005   2.144151   2.200670   1.301277
     9  H    4.401340   4.847178   3.301005   3.780453   2.200670
    10  H    4.203561   4.401340   3.150066   3.301005   2.144151
                    6          7          8          9         10
     6  H    0.000000
     7  H    1.774718   0.000000
     8  H    1.100335   1.100335   0.000000
     9  H    2.740436   1.100335   1.774718   0.000000
    10  H    2.200670   1.301277   1.100335   1.100335   0.000000
 Stoichiometry    H10
 Framework group  C2H[SGH(H10)]
 Deg. of freedom     9
 Full point group                 C2H     NOp   4
 Largest Abelian subgroup         C2H     NOp   4
 Largest concise Abelian subgroup C2      NOp   2
                         Standard orientation:                         
 ---------------------------------------------------------------------
 Center     Atomic      Atomic             Coordinates (Angstroms)
 Number     Number       Type             X           Y           Z
 ---------------------------------------------------------------------
      1          1           0        2.098816   -0.111587    0.000000
      2          1           0        2.098816   -1.211922    0.000000
      3          1           0        1.049408    0.219290    0.000000
      4          1           0        1.049408   -0.881045    0.000000
      5          1           0       -0.000000    0.550168    0.000000
      6          1           0       -0.000000   -0.550168    0.000000
      7          1           0       -1.049408    0.881045    0.000000
      8          1           0       -1.049408   -0.219290    0.000000
      9          1           0       -2.098816    1.211922    0.000000
     10          1           0       -2.098816    0.111587    0.000000
 ---------------------------------------------------------------------
 Rotational constants (GHZ):    184.4581716     20.4483126     18.4077061
 General basis read from cards:  (5D, 7F)
 There are     5 symmetry adapted cartesian basis functions of AG  symmetry.
 There are     0 symmetry adapted cartesian basis functions of BG  symmetry.
 There are     0 symmetry adapted cartesian basis functions of AU  symmetry.
 There are     5 symmetry adapted cartesian basis functions of BU  symmetry.
 There are     5 symmetry adapted basis functions of AG  symmetry.
 There are     0 symmetry adapted basis functions of BG  symmetry.
 There are     0 symmetry adapted basis functions of AU  symmetry.
 There are     5 symmetry adapted basis functions of BU  symmetry.
    10 basis functions,   100 primitive gaussians,    10 cartesian basis functions
     5 alpha electrons        5 beta electrons
       nuclear repulsion energy        13.5665063935 Hartrees.
 NAtoms=   10 NActive=   10 NUniq=    5 SFac= 4.00D+00 NAtFMM=   60 NAOKFM=F Big=F
 Integral buffers will be    131072 words long.
 Raffenetti 2 integral format.
 Two-electron integral symmetry is turned on.
 One-electron integrals computed using PRISM.
 NBasis=    10 RedAO= T EigKep=  1.44D-01  NBF=     5     0     0     5
 NBsUse=    10 1.00D-06 EigRej= -1.00D+00 NBFU=     5     0     0     5
 Initial guess from the checkpoint file:  "h10.chk"
 B after Tr=     0.000000    0.000000   -0.000000
         Rot=    0.855120   -0.000000    0.000000    0.518430 Ang=  62.45 deg.
 Initial guess orbital symmetries:
       Occupied  (AG) (BU) (AG) (BU) (BU)
       Virtual   (AG) (BU) (AG) (BU) (AG)
 Keep R1 ints in memory in symmetry-blocked form, NReq=879399.
 Requested convergence on RMS density matrix=1.00D-08 within 128 cycles.
 Requested convergence on MAX density matrix=1.00D-06.
 Requested convergence on             energy=1.00D-06.
 No special actions if energy rises.
 SCF Done:  E(RHF) =  -4.85736601986     A.U. after   12 cycles
            NFock= 12  Conv=0.32D-08     -V/T= 1.9389

 **********************************************************************

            Population analysis using the SCF density.

 **********************************************************************

 Orbital symmetries:
       Occupied  (AG) (BU) (AG) (BU) (BU)
       Virtual   (AG) (BU) (AG) (AG) (BU)
 The electronic state is 1-AG.
 Alpha  occ. eigenvalues --   -0.85815  -0.73907  -0.54666  -0.38711  -0.29457
 Alpha virt. eigenvalues --   -0.02449   0.21881   0.29434   0.53211   0.78260
          Condensed to atoms (all electrons):
               1          2          3          4          5          6
     1  H    0.696387   0.399477  -0.067596  -0.086541   0.020172  -0.097402
     2  H    0.399477   1.013532  -0.190074  -0.092395  -0.011370  -0.058833
     3  H   -0.067596  -0.190074   1.180166   0.161116   0.207251  -0.011579
     4  H   -0.086541  -0.092395   0.161116   0.814860  -0.152311   0.344979
     5  H    0.020172  -0.011370   0.207251  -0.152311   0.938301  -0.173253
     6  H   -0.097402  -0.058833  -0.011579   0.344979  -0.173253   0.938301
     7  H    0.014073   0.005916  -0.025721  -0.054729   0.344979  -0.152311
     8  H    0.001230   0.020623  -0.173454  -0.025721  -0.011579   0.207251
     9  H   -0.000749  -0.001196   0.020623   0.005916  -0.058833  -0.011370
    10  H   -0.001146  -0.000749   0.001230   0.014073  -0.097402   0.020172
               7          8          9         10
     1  H    0.014073   0.001230  -0.000749  -0.001146
     2  H    0.005916   0.020623  -0.001196  -0.000749
     3  H   -0.025721  -0.173454   0.020623   0.001230
     4  H   -0.054729  -0.025721   0.005916   0.014073
     5  H    0.344979  -0.011579  -0.058833  -0.097402
     6  H   -0.152311   0.207251  -0.011370   0.020172
     7  H    0.814860   0.161116  -0.092395  -0.086541
     8  H    0.161116   1.180166  -0.190074  -0.067596
     9  H   -0.092395  -0.190074   1.013532   0.399477
    10  H   -0.086541  -0.067596   0.399477   0.696387
 Mulliken charges:
               1
     1  H    0.122095
     2  H   -0.084932
     3  H   -0.101964
     4  H    0.070755
     5  H   -0.005955
     6  H   -0.005955
     7  H    0.070755
     8  H   -0.101964
     9  H   -0.084932
    10  H    0.122095
 Sum of Mulliken charges =   0.00000
 Mulliken charges with hydrogens summed into heavy atoms:
               1
 Electronic spatial extent (au):  <R**2>=            129.0264
 Charge=              0.0000 electrons
 Dipole moment (field-independent basis, Debye):
    X=             -0.0000    Y=             -0.0000    Z=              0.0000  Tot=              0.0000
 Quadrupole moment (field-independent basis, Debye-Ang):
   XX=            -15.1958   YY=            -14.6342   ZZ=            -12.8680
   XY=              1.8000   XZ=              0.0000   YZ=              0.0000
 Traceless Quadrupole moment (field-independent basis, Debye-Ang):
   XX=             -0.9631   YY=             -0.4015   ZZ=              1.3646
   XY=              1.8000   XZ=              0.0000   YZ=              0.0000
 Octapole moment (field-independent basis, Debye-Ang**2):
  XXX=             -0.0000  YYY=             -0.0000  ZZZ=              0.0000  XYY=              0.0000
  XXY=              0.0000  XXZ=              0.0000  XZZ=             -0.0000  YZZ=             -0.0000
  YYZ=              0.0000  XYZ=              0.0000
 Hexadecapole moment (field-independent basis, Debye-Ang**3):
 XXXX=           -231.7890 YYYY=            -60.8084 ZZZZ=            -15.4672 XXXY=             50.9173
 XXXZ=              0.0000 YYYX=             30.0021 YYYZ=              0.0000 ZZZX=              0.0000
 ZZZY=              0.0000 XXYY=            -49.1772 XXZZ=            -35.4928 YYZZ=            -12.7242
 XXYZ=              0.0000 YYXZ=              0.0000 ZZXY=              9.7609
 N-N= 1.356650639346D+01 E-N=-3.637021854339D+01  KE= 5.173561387692D+00
 Symmetry AG   KE= 1.503516782197D+00
 Symmetry BG   KE= 0.000000000000D+00
 Symmetry AU   KE= 0.000000000000D+00
 Symmetry BU   KE= 3.670044605495D+00
 Range of M.O.s used for correlation:     1    10
 NBasis=    10 NAE=     5 NBE=     5 NFC=     0 NFV=     0
 NROrb=     10 NOA=     5 NOB=     5 NVA=     5 NVB=     5
 Keep R1 and R2 ints in memory in symmetry-blocked form, NReq=802982.
 Orbital symmetries:
       Occupied  (AG) (BU) (AG) (BU) (BU)
       Virtual   (AG) (BU) (AG) (AG) (BU)
    24 initial guesses have been made.
 Convergence on wavefunction:    0.001000000000000
 Iteration     1 Dimension    24 NMult     0 NNew     24
 CISAX will form    24 AO SS matrices at one time.
 New state      1 was old state      2
 Iteration     2 Dimension    46 NMult    24 NNew     22
 Iteration     3 Dimension    48 NMult    46 NNew      2
 ***********************************************************************
 Stability analysis using <AA,BB:AA,BB> singles matrix:
 ***********************************************************************

 Eigenvectors of the stability matrix:
 
 Eigenvector   1:      Triplet-BU   Eigenvalue=-0.1328804  <S**2>=2.000
       3 ->  7         0.16452
       4 ->  8        -0.16243
       5 ->  6         0.65076
 SavETr:  write IOETrn=   770 NScale= 10 NData=  16 NLR=1 NState=    1 LETran=      28.
 The wavefunction has an RHF -> UHF instability.
 Keep R1 and R2 ints in memory in symmetry-blocked form, NReq=860738.
 The two search directions are symmetric.
 Gradient too large for Newton-Raphson -- use scaled steepest descent instead.
     Accept linear search using points  4 and  5.
 Gradient too large for Newton-Raphson -- use scaled steepest descent instead.
 Gradient too large for Newton-Raphson -- use scaled steepest descent instead.
     Accept linear search using points  1 and  2.
     Minimum is close to point  2 DX= -8.99D-02 DF= -1.90D-06 DXR=  5.26D-02 DFR=  6.25D-03 which will be used.
 LinEq1:  Iter=  0 NonCon=     1 RMS=1.58D-03 Max=4.49D-03 NDo=     1
 AX will form     1 AO Fock derivatives at one time.
 LinEq1:  Iter=  1 NonCon=     1 RMS=5.34D-04 Max=1.27D-03 NDo=     1
 LinEq1:  Iter=  2 NonCon=     1 RMS=8.53D-05 Max=1.64D-04 NDo=     1
 LinEq1:  Iter=  3 NonCon=     1 RMS=8.55D-06 Max=2.06D-05 NDo=     1
 LinEq1:  Iter=  4 NonCon=     1 RMS=1.58D-06 Max=3.20D-06 NDo=     1
 LinEq1:  Iter=  5 NonCon=     1 RMS=1.56D-07 Max=4.00D-07 NDo=     1
 LinEq1:  Iter=  6 NonCon=     1 RMS=3.27D-08 Max=6.66D-08 NDo=     1
 LinEq1:  Iter=  7 NonCon=     1 RMS=4.97D-09 Max=1.13D-08 NDo=     1
 LinEq1:  Iter=  8 NonCon=     0 RMS=7.14D-10 Max=2.02D-09 NDo=     1
 Linear equations converged to 1.000D-09 1.000D-08 after     8 iterations.
     Accept linear search using points  1 and  2.
     Minimum is close to point  2 DX= -1.09D-02 DF= -1.77D-08 DXR=  1.10D-02 DFR=  1.23D-04 which will be used.
 LinEq1:  Iter=  0 NonCon=     1 RMS=2.23D-05 Max=7.69D-05 NDo=     1
 LinEq1:  Iter=  1 NonCon=     1 RMS=3.70D-06 Max=8.71D-06 NDo=     1
 LinEq1:  Iter=  2 NonCon=     1 RMS=5.09D-07 Max=1.19D-06 NDo=     1
 LinEq1:  Iter=  3 NonCon=     1 RMS=1.20D-07 Max=4.22D-07 NDo=     1
 LinEq1:  Iter=  4 NonCon=     1 RMS=2.05D-08 Max=4.45D-08 NDo=     1
 LinEq1:  Iter=  5 NonCon=     1 RMS=3.74D-09 Max=9.43D-09 NDo=     1
 LinEq1:  Iter=  6 NonCon=     0 RMS=5.23D-10 Max=1.14D-09 NDo=     1
 Linear equations converged to 9.481D-10 9.481D-09 after     6 iterations.
 LinEq1:  Iter=  0 NonCon=     1 RMS=1.99D-08 Max=5.70D-08 NDo=     1
 LinEq1:  Iter=  1 NonCon=     1 RMS=4.19D-09 Max=1.09D-08 NDo=     1
 LinEq1:  Iter=  2 NonCon=     1 RMS=7.85D-10 Max=1.71D-09 NDo=     1
 LinEq1:  Iter=  3 NonCon=     1 RMS=1.58D-10 Max=4.24D-10 NDo=     1
 LinEq1:  Iter=  4 NonCon=     1 RMS=3.40D-11 Max=8.07D-11 NDo=     1
 LinEq1:  Iter=  5 NonCon=     1 RMS=5.07D-12 Max=1.43D-11 NDo=     1
 LinEq1:  Iter=  6 NonCon=     0 RMS=6.05D-13 Max=1.82D-12 NDo=     1
 Linear equations converged to 1.158D-12 1.158D-11 after     6 iterations.
 Density matrix breaks symmetry, PCut= 1.00D-04
 Density matrix has no symmetry -- integrals replicated.
 Density matrix is not symmetric, so final MOs not symmetrized.
 SCF Done:  E(UHF) =  -4.93765645341     a.u. after    7 cycles
            Convg  =    0.7307D-10                    45 Fock formations.
              S**2 =  1.3579                  -V/T =  1.9337
 <Sx>= 0.0000 <Sy>= 0.0000 <Sz>= 0.0000 <S**2>= 1.3579 S= 0.7680
 <L.S>= 0.000000000000E+00
 Annihilation of the first spin contaminant:
 S**2 before annihilation     1.3579,   after     2.7496
 Range of M.O.s used for correlation:     1    10
 NBasis=    10 NAE=     5 NBE=     5 NFC=     0 NFV=     0
 NROrb=     10 NOA=     5 NOB=     5 NVA=     5 NVB=     5
 Keep R1 and R2 ints in memory in symmetry-blocked form, NReq=802982.
 Orbital symmetries:
 Alpha Orbitals:
       Occupied  (BG) (BG) (BG) (BG) (BG)
       Virtual   (BG) (BG) (BG) (BG) (BG)
 Beta  Orbitals:
       Occupied  (BG) (BG) (BG) (BG) (BG)
       Virtual   (BG) (BG) (BG) (BG) (BG)
    12 initial guesses have been made.
 Convergence on wavefunction:    0.001000000000000
 Iteration     1 Dimension    12 NMult     0 NNew     12
 CISAX will form    12 AO SS matrices at one time.
 New state      1 was old state      2
 Iteration     2 Dimension    24 NMult    12 NNew     12
 Iteration     3 Dimension    27 NMult    24 NNew      3
 Iteration     4 Dimension    30 NMult    27 NNew      3
 ***********************************************************************
 Stability analysis using <AA,BB:AA,BB> singles matrix:
 ***********************************************************************

 Eigenvectors of the stability matrix:
 
 Eigenvector   1:  2.079-AG   Eigenvalue= 0.0973403  <S**2>=0.831
      3A ->  8A        0.11075
      4A ->  7A       -0.20373
      5A ->  6A       -0.64868
      3B ->  8B       -0.11075
      4B ->  7B        0.20373
      5B ->  6B        0.64868
 SavETr:  write IOETrn=   770 NScale= 10 NData=  16 NLR=1 NState=    1 LETran=      28.
 The wavefunction is stable under the perturbations considered.
 The wavefunction is already stable.

 **********************************************************************

            Population analysis using the SCF density.

 **********************************************************************

 Orbital symmetries:
 Alpha Orbitals:
       Occupied  (BG) (BG) (BG) (BG) (BG)
       Virtual   (BG) (BG) (BG) (BG) (BG)
 Beta  Orbitals:
       Occupied  (BG) (BG) (BG) (BG) (BG)
       Virtual   (BG) (BG) (BG) (BG) (BG)
 Unable to determine electronic state:  partially filled degenerate orbitals.
 Alpha  occ. eigenvalues --   -0.86417  -0.74605  -0.56114  -0.42670  -0.37403
 Alpha virt. eigenvalues --    0.05511   0.21751   0.32850   0.54441   0.78249
  Beta  occ. eigenvalues --   -0.86417  -0.74605  -0.56114  -0.42670  -0.37403
  Beta virt. eigenvalues --    0.05511   0.21751   0.32850   0.54441   0.78249
          Condensed to atoms (all electrons):
               1          2          3          4          5          6
     1  H    0.958474   0.146983   0.167649  -0.174843  -0.009834  -0.094748
     2  H    0.146983   0.863168  -0.140989   0.111927  -0.017045  -0.019935
     3  H    0.167649  -0.140989   1.117486  -0.060115   0.181418  -0.124305
     4  H   -0.174843   0.111927  -0.060115   1.001857  -0.105326   0.261342
     5  H   -0.009834  -0.017045   0.181418  -0.105326   0.946087  -0.007072
     6  H   -0.094748  -0.019935  -0.124305   0.261342  -0.007072   0.946087
     7  H    0.002000   0.004183  -0.029899  -0.020417   0.261342  -0.105326
     8  H    0.005983   0.005110  -0.078707  -0.029899  -0.124305   0.181418
     9  H   -0.000661  -0.000093   0.005110   0.004183  -0.019935  -0.017045
    10  H    0.001430  -0.000661   0.005983   0.002000  -0.094748  -0.009834
               7          8          9         10
     1  H    0.002000   0.005983  -0.000661   0.001430
     2  H    0.004183   0.005110  -0.000093  -0.000661
     3  H   -0.029899  -0.078707   0.005110   0.005983
     4  H   -0.020417  -0.029899   0.004183   0.002000
     5  H    0.261342  -0.124305  -0.019935  -0.094748
     6  H   -0.105326   0.181418  -0.017045  -0.009834
     7  H    1.001857  -0.060115   0.111927  -0.174843
     8  H   -0.060115   1.117486  -0.140989   0.167649
     9  H    0.111927  -0.140989   0.863168   0.146983
    10  H   -0.174843   0.167649   0.146983   0.958474
          Atomic-Atomic Spin Densities.
               1          2          3          4          5          6
     1  H   -0.738953  -0.081787   0.074462   0.193125   0.001707   0.025135
     2  H   -0.081787   0.703882  -0.124281   0.090143   0.007707  -0.001560
     3  H    0.074462  -0.124281   0.804847   0.017119  -0.138916  -0.092959
     4  H    0.193125   0.090143   0.017119  -0.797990   0.068520  -0.126163
     5  H    0.001707   0.007707  -0.138916   0.068520  -0.469881  -0.000000
     6  H    0.025135  -0.001560  -0.092959  -0.126163  -0.000000   0.469881
     7  H   -0.001504   0.004725  -0.047328  -0.000000   0.126163  -0.068520
     8  H   -0.014835  -0.002162  -0.000000   0.047328   0.092959   0.138916
     9  H    0.001394   0.000000   0.002162  -0.004725   0.001560  -0.007707
    10  H    0.000000  -0.001394   0.014835   0.001504  -0.025135  -0.001707
               7          8          9         10
     1  H   -0.001504  -0.014835   0.001394   0.000000
     2  H    0.004725  -0.002162   0.000000  -0.001394
     3  H   -0.047328  -0.000000   0.002162   0.014835
     4  H   -0.000000   0.047328  -0.004725   0.001504
     5  H    0.126163   0.092959   0.001560  -0.025135
     6  H   -0.068520   0.138916  -0.007707  -0.001707
     7  H    0.797990  -0.017119  -0.090143  -0.193125
     8  H   -0.017119  -0.804847   0.124281  -0.074462
     9  H   -0.090143   0.124281  -0.703882   0.081787
    10  H   -0.193125  -0.074462   0.081787   0.738953
 Mulliken charges and spin densities:
               1          2
     1  H   -0.002432  -0.541255
     2  H    0.047353   0.595272
     3  H   -0.043631   0.509939
     4  H    0.009291  -0.511140
     5  H   -0.010581  -0.335316
     6  H   -0.010581   0.335316
     7  H    0.009291   0.511140
     8  H   -0.043631  -0.509939
     9  H    0.047353  -0.595272
    10  H   -0.002432   0.541255
 Sum of Mulliken charges =   0.00000   0.00000
 Mulliken charges and spin densities with hydrogens summed into heavy atoms:
               1          2
 Electronic spatial extent (au):  <R**2>=            127.7268
 Charge=              0.0000 electrons
 Dipole moment (field-independent basis, Debye):
    X=              0.0000    Y=             -0.0000    Z=              0.0000  Tot=              0.0000
 Quadrupole moment (field-independent basis, Debye-Ang):
   XX=            -13.6186   YY=            -14.5050   ZZ=            -12.8265
   XY=             -1.7399   XZ=              0.0000   YZ=              0.0000
 Traceless Quadrupole moment (field-independent basis, Debye-Ang):
   XX=              0.0314   YY=             -0.8550   ZZ=              0.8235
   XY=             -1.7399   XZ=              0.0000   YZ=              0.0000
 Octapole moment (field-independent basis, Debye-Ang**2):
  XXX=              0.0000  YYY=             -0.0000  ZZZ=              0.0000  XYY=              0.0000
  XXY=             -0.0000  XXZ=              0.0000  XZZ=              0.0000  YZZ=             -0.0000
  YYZ=              0.0000  XYZ=              0.0000
 Hexadecapole moment (field-independent basis, Debye-Ang**3):
 XXXX=           -202.6315 YYYY=            -61.9961 ZZZZ=            -15.4100 XXXY=             22.4787
 XXXZ=              0.0000 YYYX=             25.8247 YYYZ=              0.0000 ZZZX=              0.0000
 ZZZY=              0.0000 XXYY=            -41.2310 XXZZ=            -34.6359 YYZZ=            -12.7766
 XXYZ=              0.0000 YYXZ=              0.0000 ZZXY=              8.6909
 N-N= 1.356650639346D+01 E-N=-3.635244628591D+01  KE= 5.288296562464D+00
 Symmetry AG   KE= 2.406289827690D+00
 Symmetry BG   KE= 0.000000000000D+00
 Symmetry AU   KE= 0.000000000000D+00
 Symmetry BU   KE= 2.882006734775D+00
                          Isotropic Fermi Contact Couplings
        Atom                 a.u.       MegaHertz       Gauss      10(-4) cm-1
     1  H(1)              -0.20625    -460.95259    -164.47934    -153.75723
     2  H(1)               0.20869     466.41604     166.42884     155.57965
     3  H(1)               0.22028     492.31647     175.67075     164.21910
     4  H(1)              -0.21967    -490.94317    -175.18073    -163.76102
     5  H(1)              -0.13116    -293.12385    -104.59388     -97.77559
     6  H(1)               0.13116     293.12385     104.59388      97.77559
     7  H(1)               0.21967     490.94317     175.18073     163.76102
     8  H(1)              -0.22028    -492.31647    -175.67075    -164.21910
     9  H(1)              -0.20869    -466.41604    -166.42884    -155.57965
    10  H(1)               0.20625     460.95259     164.47934     153.75723
 --------------------------------------------------------
       Center         ----  Spin Dipole Couplings  ----
                      3XX-RR        3YY-RR        3ZZ-RR
 --------------------------------------------------------
     1   Atom        0.020188      0.045708     -0.065896
     2   Atom       -0.018200     -0.047052      0.065252
     3   Atom       -0.066922     -0.017716      0.084637
     4   Atom        0.040803      0.036614     -0.077417
     5   Atom        0.082058     -0.012093     -0.069965
     6   Atom       -0.082058      0.012093      0.069965
     7   Atom       -0.040803     -0.036614      0.077417
     8   Atom        0.066922      0.017716     -0.084637
     9   Atom        0.018200      0.047052     -0.065252
    10   Atom       -0.020188     -0.045708      0.065896
 --------------------------------------------------------
                        XY            XZ            YZ
 --------------------------------------------------------
     1   Atom       -0.065655      0.000000      0.000000
     2   Atom       -0.002273      0.000000      0.000000
     3   Atom        0.042639      0.000000      0.000000
     4   Atom       -0.068781      0.000000      0.000000
     5   Atom       -0.071771      0.000000      0.000000
     6   Atom        0.071771      0.000000      0.000000
     7   Atom        0.068781      0.000000      0.000000
     8   Atom       -0.042639      0.000000      0.000000
     9   Atom        0.002273      0.000000      0.000000
    10   Atom        0.065655      0.000000      0.000000
 --------------------------------------------------------


 ---------------------------------------------------------------------------------
              Anisotropic Spin Dipole Couplings in Principal Axis System
 ---------------------------------------------------------------------------------

       Atom             a.u.   MegaHertz   Gauss  10(-4) cm-1        Axes

              Baa    -0.0659   -35.159   -12.546   -11.728  0.0000  0.0000  1.0000
     1 H(1)   Bbb    -0.0339   -18.107    -6.461    -6.040  0.7716  0.6361  0.0000
              Bcc     0.0998    53.266    19.006    17.767 -0.6361  0.7716  0.0000
 
              Baa    -0.0472   -25.200    -8.992    -8.406  0.0781  0.9969  0.0000
     2 H(1)   Bbb    -0.0180    -9.616    -3.431    -3.207  0.9969 -0.0781  0.0000
              Bcc     0.0653    34.815    12.423    11.613  0.0000  0.0000  1.0000
 
              Baa    -0.0915   -48.845   -17.429   -16.293  0.8660 -0.5001  0.0000
     3 H(1)   Bbb     0.0069     3.686     1.315     1.230  0.5001  0.8660  0.0000
              Bcc     0.0846    45.158    16.114    15.063  0.0000  0.0000  1.0000
 
              Baa    -0.0774   -41.306   -14.739   -13.778  0.0000  0.0000  1.0000
     4 H(1)   Bbb    -0.0301   -16.062    -5.731    -5.358  0.6963  0.7178  0.0000
              Bcc     0.1075    57.368    20.470    19.136  0.7178 -0.6963  0.0000
 
              Baa    -0.0700   -37.330   -13.320   -12.452  0.0000  0.0000  1.0000
     5 H(1)   Bbb    -0.0509   -27.131    -9.681    -9.050  0.4752  0.8799  0.0000
              Bcc     0.1208    64.461    23.001    21.502  0.8799 -0.4752  0.0000
 
              Baa    -0.1208   -64.461   -23.001   -21.502  0.8799 -0.4752  0.0000
     6 H(1)   Bbb     0.0509    27.131     9.681     9.050  0.4752  0.8799  0.0000
              Bcc     0.0700    37.330    13.320    12.452  0.0000  0.0000  1.0000
 
              Baa    -0.1075   -57.368   -20.470   -19.136  0.7178 -0.6963  0.0000
     7 H(1)   Bbb     0.0301    16.062     5.731     5.358  0.6963  0.7178  0.0000
              Bcc     0.0774    41.306    14.739    13.778  0.0000  0.0000  1.0000
 
              Baa    -0.0846   -45.158   -16.114   -15.063  0.0000  0.0000  1.0000
     8 H(1)   Bbb    -0.0069    -3.686    -1.315    -1.230  0.5001  0.8660  0.0000
              Bcc     0.0915    48.845    17.429    16.293  0.8660 -0.5001  0.0000
 
              Baa    -0.0653   -34.815   -12.423   -11.613  0.0000  0.0000  1.0000
     9 H(1)   Bbb     0.0180     9.616     3.431     3.207  0.9969 -0.0781  0.0000
              Bcc     0.0472    25.200     8.992     8.406  0.0781  0.9969  0.0000
 
              Baa    -0.0998   -53.266   -19.006   -17.767 -0.6361  0.7716  0.0000
    10 H(1)   Bbb     0.0339    18.107     6.461     6.040  0.7716  0.6361  0.0000
              Bcc     0.0659    35.159    12.546    11.728  0.0000  0.0000  1.0000
 

 ---------------------------------------------------------------------------------


 Test job not archived.
 1\1\GINC-SULU\Stability\UHF\Gen\H10\LCJ1\28-Feb-2017\0\\#rhf/gen scf(s
 ymm,tight,novaracc,noincfock,fulldiag) stable=opt guess=read geom=nocr
 owd test\\hf stability analysis of h10 triangular lattice, y= 0.650638
 72283200119\\0,1\H\H,1,1.1003350089\H,1,1.1003350089,2,107.5\H,2,1.100
 3350089,1,72.5,3,0.,0\H,3,1.1003350089,1,180.,2,0.,0\H,4,1.1003350089,
 2,180.,1,0.,0\H,5,1.1003350089,3,180.,2,0.,0\H,6,1.1003350089,4,180.,1
 ,0.,0\H,7,1.1003350089,5,180.,2,0.,0\H,8,1.1003350089,6,180.,1,0.,0\\V
 ersion=ES64L-G09RevE.01\State=1-AG\HF=-4.9376565\S2=1.357901\S2-1=0.\S
 2A=2.749579\RMSD=3.227e-09\Dipole=0.,0.,0.\Quadrupole=0.0233749,0.6122
 616,-0.6356364,0.,-1.2935524,0.\PG=C02H [SGH(H10)]\\@


 TWO ROADS DIVERGED IN A WOOD, AND I--
 I TOOK THE ONE LESS TRAVELED BY,
 AND THAT HAS MADE ALL THE DIFFERENCE.

                       -- ROBERT FROST
 Job cpu time:       0 days  0 hours  0 minutes  1.2 seconds.
 File lengths (MBytes):  RWF=     77 Int=      0 D2E=      0 Chk=      2 Scr=      2
 Normal termination of Gaussian 09 at Tue Feb 28 18:01:11 2017.
