 Entering Gaussian System, Link 0=g09
 AtFile(1): H.gbs
            H     0
            S   10   1.00
               1000.000000000000            0.000068713567
                316.227766000000            0.000169141320
                100.000000000000            0.000823394812
                 31.622776600000            0.003425569236
                 10.000000000000            0.013951996000
                  3.162277660000            0.056909313560
                  1.000000000000            0.198286399900
                  0.316227766000            0.496922426700
                  0.100000000000            0.369846276400
                  0.031622776600            0.003752720039
            ****
 Initial command:
 /projects/guscus/apps/gau/g09-e1/g09/l1.exe "/users/lcj1/gaussian/h10/2rows_uhf/singlet/stableopt/Gau-25381.inp" -scrdir="/users/lcj1/gaussian/h10/2rows_uhf/singlet/stableopt/"
 Entering Link 1 = /projects/guscus/apps/gau/g09-e1/g09/l1.exe PID=     25382.
  
 Copyright (c) 1988,1990,1992,1993,1995,1998,2003,2009,2015,
            Gaussian, Inc.  All Rights Reserved.
  
 This is part of the Gaussian(R) 09 program.  It is based on
 the Gaussian(R) 03 system (copyright 2003, Gaussian, Inc.),
 the Gaussian(R) 98 system (copyright 1998, Gaussian, Inc.),
 the Gaussian(R) 94 system (copyright 1995, Gaussian, Inc.),
 the Gaussian 92(TM) system (copyright 1992, Gaussian, Inc.),
 the Gaussian 90(TM) system (copyright 1990, Gaussian, Inc.),
 the Gaussian 88(TM) system (copyright 1988, Gaussian, Inc.),
 the Gaussian 86(TM) system (copyright 1986, Carnegie Mellon
 University), and the Gaussian 82(TM) system (copyright 1983,
 Carnegie Mellon University). Gaussian is a federally registered
 trademark of Gaussian, Inc.
  
 This software contains proprietary and confidential information,
 including trade secrets, belonging to Gaussian, Inc.
  
 This software is provided under written license and may be
 used, copied, transmitted, or stored only in accord with that
 written license.
  
 The following legend is applicable only to US Government
 contracts under FAR:
  
                    RESTRICTED RIGHTS LEGEND
  
 Use, reproduction and disclosure by the US Government is
 subject to restrictions as set forth in subparagraphs (a)
 and (c) of the Commercial Computer Software - Restricted
 Rights clause in FAR 52.227-19.
  
 Gaussian, Inc.
 340 Quinnipiac St., Bldg. 40, Wallingford CT 06492
  
  
 ---------------------------------------------------------------
 Warning -- This program may not be used in any manner that
 competes with the business of Gaussian, Inc. or will provide
 assistance to any competitor of Gaussian, Inc.  The licensee
 of this program is prohibited from giving any competitor of
 Gaussian, Inc. access to this program.  By using this program,
 the user acknowledges that Gaussian, Inc. is engaged in the
 business of creating and licensing software in the field of
 computational chemistry and represents and warrants to the
 licensee that it is not a competitor of Gaussian, Inc. and that
 it will not use this program in any manner prohibited above.
 ---------------------------------------------------------------
  

 Cite this work as:
 Gaussian 09, Revision E.01,
 M. J. Frisch, G. W. Trucks, H. B. Schlegel, G. E. Scuseria, 
 M. A. Robb, J. R. Cheeseman, G. Scalmani, V. Barone, B. Mennucci, 
 G. A. Petersson, H. Nakatsuji, M. Caricato, X. Li, H. P. Hratchian, 
 A. F. Izmaylov, J. Bloino, G. Zheng, J. L. Sonnenberg, M. Hada, 
 M. Ehara, K. Toyota, R. Fukuda, J. Hasegawa, M. Ishida, T. Nakajima, 
 Y. Honda, O. Kitao, H. Nakai, T. Vreven, J. A. Montgomery, Jr., 
 J. E. Peralta, F. Ogliaro, M. Bearpark, J. J. Heyd, E. Brothers, 
 K. N. Kudin, V. N. Staroverov, T. Keith, R. Kobayashi, J. Normand, 
 K. Raghavachari, A. Rendell, J. C. Burant, S. S. Iyengar, J. Tomasi, 
 M. Cossi, N. Rega, J. M. Millam, M. Klene, J. E. Knox, J. B. Cross, 
 V. Bakken, C. Adamo, J. Jaramillo, R. Gomperts, R. E. Stratmann, 
 O. Yazyev, A. J. Austin, R. Cammi, C. Pomelli, J. W. Ochterski, 
 R. L. Martin, K. Morokuma, V. G. Zakrzewski, G. A. Voth, 
 P. Salvador, J. J. Dannenberg, S. Dapprich, A. D. Daniels, 
 O. Farkas, J. B. Foresman, J. V. Ortiz, J. Cioslowski, 
 and D. J. Fox, Gaussian, Inc., Wallingford CT, 2013.
 
 ******************************************
 Gaussian 09:  ES64L-G09RevE.01 30-Nov-2015
                28-Feb-2017 
 ******************************************
 %chk=h10.chk
 ----------------------------------------------------------------------
 #rhf/gen scf(symm,tight,novaracc,noincfock,fulldiag) stable=opt guess=
 read geom=nocrowd test
 ----------------------------------------------------------------------
 1/38=1/1;
 2/12=1,17=6,18=5,40=1/2;
 3/5=7,11=2,16=1,25=1,30=1,116=1/1,2,3;
 4/5=1,9=4/1;
 5/5=100002,15=2,16=1,32=2,38=6/2;
 6/7=2,8=2,9=2,10=2,28=1/1;
 8/6=1,10=90,11=11/1;
 9/8=-3,42=1,46=1/14;
 5/5=100002,8=3,16=1,17=40,32=2,38=6/8(-2);
 6/7=2,8=2,9=2,10=2,28=1/1;
 99/5=1,9=1/99;
 ----------------------------------------------------------------------
 hf stability analysis of h10 triangular lattice, y= 0.4799368795303601
 3
 ----------------------------------------------------------------------
 Symbolic Z-matrix:
 Charge =  0 Multiplicity = 1
 H
 H                    1     1.29518 
 H                    1     1.29518  2     136.5 
 H                    2     1.29518  1     43.5     3     0.       0
 H                    3     1.29518  1     180.     2     0.       0
 H                    4     1.29518  2     180.     1     0.       0
 H                    5     1.29518  3     180.     2     0.       0
 H                    6     1.29518  4     180.     1     0.       0
 H                    7     1.29518  5     180.     2     0.       0
 H                    8     1.29518  6     180.     1     0.       0
 
                          Input orientation:                          
 ---------------------------------------------------------------------
 Center     Atomic      Atomic             Coordinates (Angstroms)
 Number     Number       Type             X           Y           Z
 ---------------------------------------------------------------------
      1          1           0        0.000000    0.000000    0.000000
      2          1           0        0.000000    0.000000    1.295175
      3          1           0        0.891540    0.000000   -0.939487
      4          1           0        0.891540    0.000000    0.355688
      5          1           0        1.783080    0.000000   -1.878974
      6          1           0        1.783080    0.000000   -0.583799
      7          1           0        2.674620    0.000000   -2.818461
      8          1           0        2.674620    0.000000   -1.523286
      9          1           0        3.566160    0.000000   -3.757948
     10          1           0        3.566160    0.000000   -2.462773
 ---------------------------------------------------------------------
                    Distance matrix (angstroms):
                    1          2          3          4          5
     1  H    0.000000
     2  H    1.295175   0.000000
     3  H    1.295175   2.405943   0.000000
     4  H    0.959874   1.295175   1.295175   0.000000
     5  H    2.590351   3.640686   1.295175   2.405943   0.000000
     6  H    1.876218   2.590351   0.959874   1.295175   1.295175
     7  H    3.885526   4.906689   2.590351   3.640686   1.295175
     8  H    3.077985   3.885526   1.876218   2.590351   0.959874
     9  H    5.180701   6.184784   3.885526   4.906689   2.590351
    10  H    4.333906   5.180701   3.077985   3.885526   1.876218
                    6          7          8          9         10
     6  H    0.000000
     7  H    2.405943   0.000000
     8  H    1.295175   1.295175   0.000000
     9  H    3.640686   1.295175   2.405943   0.000000
    10  H    2.590351   0.959874   1.295175   1.295175   0.000000
 Stoichiometry    H10
 Framework group  C2H[SGH(H10)]
 Deg. of freedom     9
 Full point group                 C2H     NOp   4
 Largest Abelian subgroup         C2H     NOp   4
 Largest concise Abelian subgroup C2      NOp   2
                         Standard orientation:                         
 ---------------------------------------------------------------------
 Center     Atomic      Atomic             Coordinates (Angstroms)
 Number     Number       Type             X           Y           Z
 ---------------------------------------------------------------------
      1          1           0        1.783080   -1.231386   -0.000000
      2          1           0        1.783080   -2.526562   -0.000000
      3          1           0        0.891540   -0.291899   -0.000000
      4          1           0        0.891540   -1.587075   -0.000000
      5          1           0        0.000000    0.647588    0.000000
      6          1           0       -0.000000   -0.647588    0.000000
      7          1           0       -0.891540    1.587075   -0.000000
      8          1           0       -0.891540    0.291899    0.000000
      9          1           0       -1.783080    2.526562   -0.000000
     10          1           0       -1.783080    1.231386   -0.000000
 ---------------------------------------------------------------------
 Rotational constants (GHZ):    269.9246955     13.9737434     13.2859428
 General basis read from cards:  (5D, 7F)
 There are     5 symmetry adapted cartesian basis functions of AG  symmetry.
 There are     0 symmetry adapted cartesian basis functions of BG  symmetry.
 There are     0 symmetry adapted cartesian basis functions of AU  symmetry.
 There are     5 symmetry adapted cartesian basis functions of BU  symmetry.
 There are     5 symmetry adapted basis functions of AG  symmetry.
 There are     0 symmetry adapted basis functions of BG  symmetry.
 There are     0 symmetry adapted basis functions of AU  symmetry.
 There are     5 symmetry adapted basis functions of BU  symmetry.
    10 basis functions,   100 primitive gaussians,    10 cartesian basis functions
     5 alpha electrons        5 beta electrons
       nuclear repulsion energy        12.4206379855 Hartrees.
 NAtoms=   10 NActive=   10 NUniq=    5 SFac= 4.00D+00 NAtFMM=   60 NAOKFM=F Big=F
 Integral buffers will be    131072 words long.
 Raffenetti 2 integral format.
 Two-electron integral symmetry is turned on.
 One-electron integrals computed using PRISM.
 NBasis=    10 RedAO= T EigKep=  1.88D-01  NBF=     5     0     0     5
 NBsUse=    10 1.00D-06 EigRej= -1.00D+00 NBFU=     5     0     0     5
 Initial guess from the checkpoint file:  "h10.chk"
 B after Tr=     0.000000   -0.000000   -0.000000
         Rot=    0.703166   -0.000000    0.000000    0.711026 Ang=  90.64 deg.
 Initial guess orbital symmetries:
       Occupied  (AG) (BU) (AG) (BU) (BU)
       Virtual   (AG) (BU) (AG) (BU) (AG)
 Keep R1 ints in memory in symmetry-blocked form, NReq=877551.
 Requested convergence on RMS density matrix=1.00D-08 within 128 cycles.
 Requested convergence on MAX density matrix=1.00D-06.
 Requested convergence on             energy=1.00D-06.
 No special actions if energy rises.
 SCF Done:  E(RHF) =  -4.78371770931     A.U. after   13 cycles
            NFock= 13  Conv=0.25D-08     -V/T= 1.9614

 **********************************************************************

            Population analysis using the SCF density.

 **********************************************************************

 Orbital symmetries:
       Occupied  (AG) (BU) (AG) (BU) (BU)
       Virtual   (AG) (AG) (BU) (BU) (AG)
 The electronic state is 1-AG.
 Alpha  occ. eigenvalues --   -0.79198  -0.72507  -0.55240  -0.33774  -0.20772
 Alpha virt. eigenvalues --    0.02500   0.14273   0.19880   0.39808   0.62232
          Condensed to atoms (all electrons):
               1          2          3          4          5          6
     1  H    0.763678   0.170360   0.128676  -0.003837   0.046002  -0.167394
     2  H    0.170360   0.823632  -0.087505   0.107591   0.001770  -0.042390
     3  H    0.128676  -0.087505   1.127833  -0.093630   0.186029   0.020631
     4  H   -0.003837   0.107591  -0.093630   0.681291  -0.085147   0.264412
     5  H    0.046002   0.001770   0.186029  -0.085147   1.249366  -0.358723
     6  H   -0.167394  -0.042390   0.020631   0.264412  -0.358723   1.249366
     7  H    0.006002   0.000235   0.019424  -0.007856   0.264412  -0.085147
     8  H   -0.021980   0.006498  -0.188516   0.019424   0.020631   0.186029
     9  H    0.000099  -0.000110   0.006498   0.000235  -0.042390   0.001770
    10  H   -0.002289   0.000099  -0.021980   0.006002  -0.167394   0.046002
               7          8          9         10
     1  H    0.006002  -0.021980   0.000099  -0.002289
     2  H    0.000235   0.006498  -0.000110   0.000099
     3  H    0.019424  -0.188516   0.006498  -0.021980
     4  H   -0.007856   0.019424   0.000235   0.006002
     5  H    0.264412   0.020631  -0.042390  -0.167394
     6  H   -0.085147   0.186029   0.001770   0.046002
     7  H    0.681291  -0.093630   0.107591  -0.003837
     8  H   -0.093630   1.127833  -0.087505   0.128676
     9  H    0.107591  -0.087505   0.823632   0.170360
    10  H   -0.003837   0.128676   0.170360   0.763678
 Mulliken charges:
               1
     1  H    0.080682
     2  H    0.019820
     3  H   -0.097460
     4  H    0.111514
     5  H   -0.114556
     6  H   -0.114556
     7  H    0.111514
     8  H   -0.097460
     9  H    0.019820
    10  H    0.080682
 Sum of Mulliken charges =   0.00000
 Mulliken charges with hydrogens summed into heavy atoms:
               1
 Electronic spatial extent (au):  <R**2>=            160.8154
 Charge=              0.0000 electrons
 Dipole moment (field-independent basis, Debye):
    X=             -0.0000    Y=             -0.0000    Z=             -0.0000  Tot=              0.0000
 Quadrupole moment (field-independent basis, Debye-Ang):
   XX=            -11.6298   YY=            -10.2143   ZZ=            -13.1695
   XY=             -3.8916   XZ=             -0.0000   YZ=              0.0000
 Traceless Quadrupole moment (field-independent basis, Debye-Ang):
   XX=              0.0414   YY=              1.4569   ZZ=             -1.4983
   XY=             -3.8916   XZ=             -0.0000   YZ=              0.0000
 Octapole moment (field-independent basis, Debye-Ang**2):
  XXX=              0.0000  YYY=             -0.0000  ZZZ=              0.0000  XYY=              0.0000
  XXY=             -0.0000  XXZ=              0.0000  XZZ=             -0.0000  YZZ=              0.0000
  YYZ=              0.0000  XYZ=              0.0000
 Hexadecapole moment (field-independent basis, Debye-Ang**3):
 XXXX=           -141.8053 YYYY=           -171.0960 ZZZZ=            -16.1175 XXXY=             61.0931
 XXXZ=              0.0000 YYYX=             53.0046 YYYZ=             -0.0000 ZZZX=              0.0000
 ZZZY=             -0.0000 XXYY=            -49.0911 XXZZ=            -26.8519 YYZZ=            -34.6193
 XXYZ=             -0.0000 YYXZ=              0.0000 ZZXY=             21.8153
 N-N= 1.242063798554D+01 E-N=-3.415487399284D+01  KE= 4.975993030028D+00
 Symmetry AG   KE= 1.431084340363D+00
 Symmetry BG   KE= 0.000000000000D+00
 Symmetry AU   KE= 0.000000000000D+00
 Symmetry BU   KE= 3.544908689665D+00
 Range of M.O.s used for correlation:     1    10
 NBasis=    10 NAE=     5 NBE=     5 NFC=     0 NFV=     0
 NROrb=     10 NOA=     5 NOB=     5 NVA=     5 NVB=     5
 Keep R1 and R2 ints in memory in symmetry-blocked form, NReq=802982.
 Orbital symmetries:
       Occupied  (AG) (BU) (AG) (BU) (BU)
       Virtual   (AG) (AG) (BU) (BU) (AG)
    24 initial guesses have been made.
 Convergence on wavefunction:    0.001000000000000
 Iteration     1 Dimension    24 NMult     0 NNew     24
 CISAX will form    24 AO SS matrices at one time.
 New state      1 was old state      2
 Iteration     2 Dimension    48 NMult    24 NNew     24
 Iteration     3 Dimension    50 NMult    48 NNew      2
 ***********************************************************************
 Stability analysis using <AA,BB:AA,BB> singles matrix:
 ***********************************************************************

 Eigenvectors of the stability matrix:
 
 Eigenvector   1:      Triplet-BU   Eigenvalue=-0.1226134  <S**2>=2.000
       5 ->  6         0.57452
       5 ->  7         0.37599
 SavETr:  write IOETrn=   770 NScale= 10 NData=  16 NLR=1 NState=    1 LETran=      28.
 The wavefunction has an RHF -> UHF instability.
 Keep R1 and R2 ints in memory in symmetry-blocked form, NReq=858890.
 The two search directions are symmetric.
 Gradient too large for Newton-Raphson -- use scaled steepest descent instead.
 Gradient too large for Newton-Raphson -- use scaled steepest descent instead.
     Accept linear search using points  2 and  3.
     Minimum is close to point  3 DX= -1.23D-01 DF= -9.65D-06 DXR=  9.61D-02 DFR=  5.48D-03 which will be used.
 Gradient too large for Newton-Raphson -- use scaled steepest descent instead.
     Accept linear search using points  1 and  2.
     Minimum is close to point  2 DX= -4.09D-02 DF= -1.24D-06 DXR=  3.01D-02 DFR=  1.53D-03 which will be used.
 Gradient too large for Newton-Raphson -- use scaled steepest descent instead.
     Minimum is close to point  2 DX=  1.46D-02 DF= -5.53D-08 DXR=  1.11D-02 DFR=  1.23D-04 which will be used.
 Gradient too large for Newton-Raphson -- use scaled steepest descent instead.
 LinEq1:  Iter=  0 NonCon=     1 RMS=2.50D-03 Max=7.51D-03 NDo=     1
 AX will form     1 AO Fock derivatives at one time.
 LinEq1:  Iter=  1 NonCon=     1 RMS=1.61D-03 Max=4.20D-03 NDo=     1
 LinEq1:  Iter=  2 NonCon=     1 RMS=1.92D-04 Max=4.84D-04 NDo=     1
 LinEq1:  Iter=  3 NonCon=     1 RMS=2.30D-05 Max=6.01D-05 NDo=     1
 LinEq1:  Iter=  4 NonCon=     1 RMS=3.01D-06 Max=8.94D-06 NDo=     1
 LinEq1:  Iter=  5 NonCon=     1 RMS=5.99D-07 Max=1.36D-06 NDo=     1
 LinEq1:  Iter=  6 NonCon=     1 RMS=9.08D-08 Max=2.18D-07 NDo=     1
 LinEq1:  Iter=  7 NonCon=     1 RMS=1.23D-08 Max=2.79D-08 NDo=     1
 LinEq1:  Iter=  8 NonCon=     1 RMS=1.89D-09 Max=3.50D-09 NDo=     1
 LinEq1:  Iter=  9 NonCon=     0 RMS=2.45D-10 Max=4.78D-10 NDo=     1
 Linear equations converged to 1.000D-09 1.000D-08 after     9 iterations.
 Incorrect curvature in search direction -- initial direction reversed.
 Gradient too large for Newton-Raphson -- use scaled steepest descent instead.
     Accept linear search using points  1 and  2.
 LinEq1:  Iter=  0 NonCon=     1 RMS=1.65D-03 Max=4.22D-03 NDo=     1
 LinEq1:  Iter=  1 NonCon=     1 RMS=9.65D-04 Max=3.11D-03 NDo=     1
 LinEq1:  Iter=  2 NonCon=     1 RMS=1.21D-04 Max=3.31D-04 NDo=     1
 LinEq1:  Iter=  3 NonCon=     1 RMS=1.07D-05 Max=2.22D-05 NDo=     1
 LinEq1:  Iter=  4 NonCon=     1 RMS=1.59D-06 Max=5.12D-06 NDo=     1
 LinEq1:  Iter=  5 NonCon=     1 RMS=3.36D-07 Max=6.93D-07 NDo=     1
 LinEq1:  Iter=  6 NonCon=     1 RMS=4.57D-08 Max=1.06D-07 NDo=     1
 LinEq1:  Iter=  7 NonCon=     1 RMS=6.04D-09 Max=9.97D-09 NDo=     1
 LinEq1:  Iter=  8 NonCon=     0 RMS=6.83D-10 Max=2.06D-09 NDo=     1
 Linear equations converged to 1.000D-09 1.000D-08 after     8 iterations.
     Accept linear search using points  1 and  2.
 LinEq1:  Iter=  0 NonCon=     1 RMS=4.21D-04 Max=1.13D-03 NDo=     1
 LinEq1:  Iter=  1 NonCon=     1 RMS=1.53D-04 Max=4.54D-04 NDo=     1
 LinEq1:  Iter=  2 NonCon=     1 RMS=2.63D-05 Max=5.46D-05 NDo=     1
 LinEq1:  Iter=  3 NonCon=     1 RMS=3.73D-06 Max=7.42D-06 NDo=     1
 LinEq1:  Iter=  4 NonCon=     1 RMS=8.72D-07 Max=2.19D-06 NDo=     1
 LinEq1:  Iter=  5 NonCon=     1 RMS=1.55D-07 Max=4.04D-07 NDo=     1
 LinEq1:  Iter=  6 NonCon=     1 RMS=3.13D-08 Max=7.05D-08 NDo=     1
 LinEq1:  Iter=  7 NonCon=     1 RMS=6.01D-09 Max=1.35D-08 NDo=     1
 LinEq1:  Iter=  8 NonCon=     1 RMS=1.10D-09 Max=2.93D-09 NDo=     1
 LinEq1:  Iter=  9 NonCon=     0 RMS=1.64D-10 Max=3.64D-10 NDo=     1
 Linear equations converged to 1.000D-09 1.000D-08 after     9 iterations.
     Minimum is close to point  2 DX=  4.33D-04 DF= -1.36D-12 DXR=  4.33D-04 DFR=  1.88D-07 which will be used.
 LinEq1:  Iter=  0 NonCon=     1 RMS=4.33D-07 Max=1.34D-06 NDo=     1
 LinEq1:  Iter=  1 NonCon=     1 RMS=9.10D-08 Max=1.63D-07 NDo=     1
 LinEq1:  Iter=  2 NonCon=     1 RMS=2.77D-08 Max=5.41D-08 NDo=     1
 LinEq1:  Iter=  3 NonCon=     1 RMS=1.06D-08 Max=3.25D-08 NDo=     1
 LinEq1:  Iter=  4 NonCon=     1 RMS=2.26D-09 Max=4.41D-09 NDo=     1
 LinEq1:  Iter=  5 NonCon=     1 RMS=4.11D-10 Max=8.20D-10 NDo=     1
 LinEq1:  Iter=  6 NonCon=     1 RMS=8.27D-11 Max=1.97D-10 NDo=     1
 LinEq1:  Iter=  7 NonCon=     0 RMS=1.12D-11 Max=3.39D-11 NDo=     1
 Linear equations converged to 2.230D-11 2.230D-10 after     7 iterations.
 Density matrix breaks symmetry, PCut= 1.00D-04
 Density matrix has no symmetry -- integrals replicated.
 Density matrix is not symmetric, so final MOs not symmetrized.
 SCF Done:  E(UHF) =  -4.83071035469     a.u. after   11 cycles
            Convg  =    0.1719D-07                    67 Fock formations.
              S**2 =  1.2564                  -V/T =  1.9336
 <Sx>= 0.0000 <Sy>= 0.0000 <Sz>= 0.0000 <S**2>= 1.2564 S= 0.7274
 <L.S>= 0.000000000000E+00
 Annihilation of the first spin contaminant:
 S**2 before annihilation     1.2564,   after     2.3652
 Range of M.O.s used for correlation:     1    10
 NBasis=    10 NAE=     5 NBE=     5 NFC=     0 NFV=     0
 NROrb=     10 NOA=     5 NOB=     5 NVA=     5 NVB=     5
 Keep R1 and R2 ints in memory in symmetry-blocked form, NReq=802982.
 Orbital symmetries:
 Alpha Orbitals:
       Occupied  (BG) (BG) (BG) (BG) (BG)
       Virtual   (BG) (BG) (BG) (BG) (BG)
 Beta  Orbitals:
       Occupied  (BG) (BG) (BG) (BG) (BG)
       Virtual   (BG) (BG) (BG) (BG) (BG)
    12 initial guesses have been made.
 Convergence on wavefunction:    0.001000000000000
 Iteration     1 Dimension    12 NMult     0 NNew     12
 CISAX will form    12 AO SS matrices at one time.
 Iteration     2 Dimension    24 NMult    12 NNew     12
 Iteration     3 Dimension    27 NMult    24 NNew      3
 Iteration     4 Dimension    30 NMult    27 NNew      3
 Iteration     5 Dimension    33 NMult    30 NNew      3
 ***********************************************************************
 Stability analysis using <AA,BB:AA,BB> singles matrix:
 ***********************************************************************

 Eigenvectors of the stability matrix:
 
 Eigenvector   1:  2.693-AG   Eigenvalue= 0.0407102  <S**2>=1.563
      4A ->  6A       -0.24444
      4A ->  7A       -0.22677
      4A ->  8A       -0.22148
      5A ->  6A        0.39546
      5A ->  7A       -0.28865
      5A ->  8A       -0.22015
      5A ->  9A        0.16046
      4B ->  6B        0.24444
      4B ->  7B        0.22677
      4B ->  8B        0.22148
      5B ->  6B       -0.39546
      5B ->  7B        0.28865
      5B ->  8B        0.22015
      5B ->  9B       -0.16046
 SavETr:  write IOETrn=   770 NScale= 10 NData=  16 NLR=1 NState=    1 LETran=      28.
 The wavefunction is stable under the perturbations considered.
 The wavefunction is already stable.

 **********************************************************************

            Population analysis using the SCF density.

 **********************************************************************

 Orbital symmetries:
 Alpha Orbitals:
       Occupied  (BG) (BG) (BG) (BG) (BG)
       Virtual   (BG) (BG) (BG) (BG) (BG)
 Beta  Orbitals:
       Occupied  (BG) (BG) (BG) (BG) (BG)
       Virtual   (BG) (BG) (BG) (BG) (BG)
 Unable to determine electronic state:  partially filled degenerate orbitals.
 Alpha  occ. eigenvalues --   -0.82386  -0.70455  -0.56955  -0.36782  -0.27507
 Alpha virt. eigenvalues --    0.08429   0.16707   0.22075   0.38560   0.61482
  Beta  occ. eigenvalues --   -0.82386  -0.70455  -0.56955  -0.36782  -0.27507
  Beta virt. eigenvalues --    0.08429   0.16707   0.22075   0.38560   0.61482
          Condensed to atoms (all electrons):
               1          2          3          4          5          6
     1  H    0.921032   0.053895   0.178606  -0.059243   0.010617  -0.157984
     2  H    0.053895   0.913317  -0.085328   0.130689   0.003195  -0.026843
     3  H    0.178606  -0.085328   1.189208  -0.167874   0.050047   0.074289
     4  H   -0.059243   0.130689  -0.167874   0.884832  -0.054311   0.225512
     5  H    0.010617   0.003195   0.050047  -0.054311   1.037214  -0.155084
     6  H   -0.157984  -0.026843   0.074289   0.225512  -0.155084   1.037214
     7  H    0.002623   0.000235  -0.000048  -0.002092   0.225512  -0.054311
     8  H   -0.008028   0.004626  -0.137710  -0.000048   0.074289   0.050047
     9  H   -0.000127  -0.000056   0.004626   0.000235  -0.026843   0.003195
    10  H    0.000244  -0.000127  -0.008028   0.002623  -0.157984   0.010617
               7          8          9         10
     1  H    0.002623  -0.008028  -0.000127   0.000244
     2  H    0.000235   0.004626  -0.000056  -0.000127
     3  H   -0.000048  -0.137710   0.004626  -0.008028
     4  H   -0.002092  -0.000048   0.000235   0.002623
     5  H    0.225512   0.074289  -0.026843  -0.157984
     6  H   -0.054311   0.050047   0.003195   0.010617
     7  H    0.884832  -0.167874   0.130689  -0.059243
     8  H   -0.167874   1.189208  -0.085328   0.178606
     9  H    0.130689  -0.085328   0.913317   0.053895
    10  H   -0.059243   0.178606   0.053895   0.921032
          Atomic-Atomic Spin Densities.
               1          2          3          4          5          6
     1  H    0.741146  -0.053302   0.125205  -0.204650   0.021105  -0.160982
     2  H   -0.053302  -0.608661   0.002802   0.114517  -0.005051   0.025239
     3  H    0.125205   0.002802   0.498216  -0.304480   0.072239  -0.154348
     4  H   -0.204650   0.114517  -0.304480   0.504592  -0.005688   0.126878
     5  H    0.021105  -0.005051   0.072239  -0.005688  -0.574913  -0.000000
     6  H   -0.160982   0.025239  -0.154348   0.126878  -0.000000   0.574913
     7  H    0.001298  -0.000005  -0.016018   0.000000  -0.126878   0.005688
     8  H    0.001918  -0.001005   0.000000   0.016018   0.154348  -0.072239
     9  H   -0.000258  -0.000000   0.001005   0.000005  -0.025239   0.005051
    10  H   -0.000000   0.000258  -0.001918  -0.001298   0.160982  -0.021105
               7          8          9         10
     1  H    0.001298   0.001918  -0.000258  -0.000000
     2  H   -0.000005  -0.001005  -0.000000   0.000258
     3  H   -0.016018   0.000000   0.001005  -0.001918
     4  H    0.000000   0.016018   0.000005  -0.001298
     5  H   -0.126878   0.154348  -0.025239   0.160982
     6  H    0.005688  -0.072239   0.005051  -0.021105
     7  H   -0.504592   0.304480  -0.114517   0.204650
     8  H    0.304480  -0.498216  -0.002802  -0.125205
     9  H   -0.114517  -0.002802   0.608661   0.053302
    10  H    0.204650  -0.125205   0.053302  -0.741146
 Mulliken charges and spin densities:
               1          2
     1  H    0.058365   0.471481
     2  H    0.006398  -0.525209
     3  H   -0.097788   0.222703
     4  H    0.039677   0.245893
     5  H   -0.006652  -0.329095
     6  H   -0.006652   0.329095
     7  H    0.039677  -0.245893
     8  H   -0.097788  -0.222703
     9  H    0.006398   0.525209
    10  H    0.058365  -0.471481
 Sum of Mulliken charges =  -0.00000  -0.00000
 Mulliken charges and spin densities with hydrogens summed into heavy atoms:
               1          2
 Electronic spatial extent (au):  <R**2>=            163.9179
 Charge=             -0.0000 electrons
 Dipole moment (field-independent basis, Debye):
    X=              0.0000    Y=             -0.0000    Z=             -0.0000  Tot=              0.0000
 Quadrupole moment (field-independent basis, Debye-Ang):
   XX=            -13.0394   YY=            -13.1316   ZZ=            -13.0155
   XY=             -1.6160   XZ=             -0.0000   YZ=              0.0000
 Traceless Quadrupole moment (field-independent basis, Debye-Ang):
   XX=              0.0227   YY=             -0.0694   ZZ=              0.0467
   XY=             -1.6160   XZ=             -0.0000   YZ=              0.0000
 Octapole moment (field-independent basis, Debye-Ang**2):
  XXX=              0.0000  YYY=             -0.0000  ZZZ=              0.0000  XYY=              0.0000
  XXY=             -0.0000  XXZ=              0.0000  XZZ=             -0.0000  YZZ=             -0.0000
  YYZ=              0.0000  XYZ=              0.0000
 Hexadecapole moment (field-independent basis, Debye-Ang**3):
 XXXX=           -144.1928 YYYY=           -196.4512 ZZZZ=            -15.8208 XXXY=             63.5344
 XXXZ=              0.0000 YYYX=             64.5408 YYYZ=             -0.0000 ZZZX=              0.0000
 ZZZY=             -0.0000 XXYY=            -53.4312 XXZZ=            -26.6674 YYZZ=            -34.9151
 XXYZ=             -0.0000 YYXZ=              0.0000 ZZXY=             22.0146
 N-N= 1.242063798554D+01 E-N=-3.419504836509D+01  KE= 5.174038165146D+00
 Symmetry AG   KE= 2.113213736308D+00
 Symmetry BG   KE= 0.000000000000D+00
 Symmetry AU   KE= 0.000000000000D+00
 Symmetry BU   KE= 3.060824428839D+00
                          Isotropic Fermi Contact Couplings
        Atom                 a.u.       MegaHertz       Gauss      10(-4) cm-1
     1  H(1)               0.19760     441.62948     157.58437     147.31174
     2  H(1)              -0.18063    -403.70482    -144.05191    -134.66143
     3  H(1)               0.12035     268.98002      95.97876      89.72208
     4  H(1)               0.12092     270.25218      96.43270      90.14642
     5  H(1)              -0.15104    -337.56051    -120.44998    -112.59807
     6  H(1)               0.15104     337.56051     120.44998     112.59807
     7  H(1)              -0.12092    -270.25218     -96.43270     -90.14642
     8  H(1)              -0.12035    -268.98002     -95.97876     -89.72208
     9  H(1)               0.18063     403.70482     144.05191     134.66143
    10  H(1)              -0.19760    -441.62948    -157.58437    -147.31174
 --------------------------------------------------------
       Center         ----  Spin Dipole Couplings  ----
                      3XX-RR        3YY-RR        3ZZ-RR
 --------------------------------------------------------
     1   Atom        0.031072     -0.033697      0.002625
     2   Atom       -0.004570      0.048187     -0.043617
     3   Atom        0.057637     -0.032445     -0.025191
     4   Atom        0.068635     -0.040133     -0.028502
     5   Atom       -0.013554      0.021246     -0.007691
     6   Atom        0.013554     -0.021246      0.007691
     7   Atom       -0.068635      0.040133      0.028502
     8   Atom       -0.057637      0.032445      0.025191
     9   Atom        0.004570     -0.048187      0.043617
    10   Atom       -0.031072      0.033697     -0.002625
 --------------------------------------------------------
                        XY            XZ            YZ
 --------------------------------------------------------
     1   Atom        0.016233      0.000000     -0.000000
     2   Atom       -0.027411     -0.000000      0.000000
     3   Atom        0.027023     -0.000000      0.000000
     4   Atom        0.048855     -0.000000     -0.000000
     5   Atom       -0.039123     -0.000000      0.000000
     6   Atom        0.039123     -0.000000      0.000000
     7   Atom       -0.048855     -0.000000      0.000000
     8   Atom       -0.027023     -0.000000     -0.000000
     9   Atom        0.027411     -0.000000      0.000000
    10   Atom       -0.016233     -0.000000     -0.000000
 --------------------------------------------------------


 ---------------------------------------------------------------------------------
              Anisotropic Spin Dipole Couplings in Principal Axis System
 ---------------------------------------------------------------------------------

       Atom             a.u.   MegaHertz   Gauss  10(-4) cm-1        Axes

              Baa    -0.0375   -20.028    -7.147    -6.681 -0.2302  0.9731  0.0000
     1 H(1)   Bbb     0.0026     1.401     0.500     0.467  0.0000  0.0000  1.0000
              Bcc     0.0349    18.628     6.647     6.214  0.9731  0.2302  0.0000
 
              Baa    -0.0436   -23.272    -8.304    -7.763  0.0000  0.0000  1.0000
     2 H(1)   Bbb    -0.0162    -8.662    -3.091    -2.889  0.9202  0.3915  0.0000
              Bcc     0.0599    31.934    11.395    10.652 -0.3915  0.9202  0.0000
 
              Baa    -0.0399   -21.305    -7.602    -7.106 -0.2669  0.9637  0.0000
     3 H(1)   Bbb    -0.0252   -13.441    -4.796    -4.483  0.0000  0.0000  1.0000
              Bcc     0.0651    34.746    12.398    11.590  0.9637  0.2669  0.0000
 
              Baa    -0.0589   -31.402   -11.205   -10.475 -0.3578  0.9338 -0.0000
     4 H(1)   Bbb    -0.0285   -15.207    -5.426    -5.073  0.0000  0.0000  1.0000
              Bcc     0.0874    46.609    16.631    15.547  0.9338  0.3578  0.0000
 
              Baa    -0.0390   -20.794    -7.420    -6.936  0.8386  0.5448  0.0000
     5 H(1)   Bbb    -0.0077    -4.104    -1.464    -1.369  0.0000  0.0000  1.0000
              Bcc     0.0467    24.897     8.884     8.305 -0.5448  0.8386  0.0000
 
              Baa    -0.0467   -24.897    -8.884    -8.305 -0.5448  0.8386  0.0000
     6 H(1)   Bbb     0.0077     4.104     1.464     1.369  0.0000  0.0000  1.0000
              Bcc     0.0390    20.794     7.420     6.936  0.8386  0.5448  0.0000
 
              Baa    -0.0874   -46.609   -16.631   -15.547  0.9338  0.3578  0.0000
     7 H(1)   Bbb     0.0285    15.207     5.426     5.073  0.0000  0.0000  1.0000
              Bcc     0.0589    31.402    11.205    10.475 -0.3578  0.9338 -0.0000
 
              Baa    -0.0651   -34.746   -12.398   -11.590  0.9637  0.2669  0.0000
     8 H(1)   Bbb     0.0252    13.441     4.796     4.483  0.0000  0.0000  1.0000
              Bcc     0.0399    21.305     7.602     7.106 -0.2669  0.9637 -0.0000
 
              Baa    -0.0599   -31.934   -11.395   -10.652 -0.3915  0.9202  0.0000
     9 H(1)   Bbb     0.0162     8.662     3.091     2.889  0.9202  0.3915  0.0000
              Bcc     0.0436    23.272     8.304     7.763  0.0000  0.0000  1.0000
 
              Baa    -0.0349   -18.628    -6.647    -6.214  0.9731  0.2302  0.0000
    10 H(1)   Bbb    -0.0026    -1.401    -0.500    -0.467  0.0000  0.0000  1.0000
              Bcc     0.0375    20.028     7.147     6.681 -0.2302  0.9731 -0.0000
 

 ---------------------------------------------------------------------------------


 Test job not archived.
 1\1\GINC-SULU\Stability\UHF\Gen\H10\LCJ1\28-Feb-2017\0\\#rhf/gen scf(s
 ymm,tight,novaracc,noincfock,fulldiag) stable=opt guess=read geom=nocr
 owd test\\hf stability analysis of h10 triangular lattice, y= 0.479936
 87953036013\\0,1\H\H,1,1.2951753716\H,1,1.2951753716,2,136.5\H,2,1.295
 1753716,1,43.5,3,0.,0\H,3,1.2951753716,1,180.,2,0.,0\H,4,1.2951753716,
 2,180.,1,0.,0\H,5,1.2951753716,3,180.,2,0.,0\H,6,1.2951753716,4,180.,1
 ,0.,0\H,7,1.2951753716,5,180.,2,0.,0\H,8,1.2951753716,6,180.,1,0.,0\\V
 ersion=ES64L-G09RevE.01\State=1-AG\HF=-4.8307104\S2=1.256399\S2-1=0.\S
 2A=2.365214\RMSD=2.545e-09\Dipole=0.,0.,0.\Quadrupole=0.0169052,0.0347
 21,-0.0516261,0.,-1.2014717,0.\PG=C02H [SGH(H10)]\\@


 The impersonal hand of government can
 never replace the helping hand of a neighbor.
                        -- Hubert H. Humphrey
 Job cpu time:       0 days  0 hours  0 minutes  1.1 seconds.
 File lengths (MBytes):  RWF=     77 Int=      0 D2E=      0 Chk=      2 Scr=      2
 Normal termination of Gaussian 09 at Tue Feb 28 17:58:15 2017.
