 Entering Gaussian System, Link 0=g09
 AtFile(1): H.gbs
            H     0
            S   10   1.00
               1000.000000000000            0.000068713567
                316.227766000000            0.000169141320
                100.000000000000            0.000823394812
                 31.622776600000            0.003425569236
                 10.000000000000            0.013951996000
                  3.162277660000            0.056909313560
                  1.000000000000            0.198286399900
                  0.316227766000            0.496922426700
                  0.100000000000            0.369846276400
                  0.031622776600            0.003752720039
            ****
 Initial command:
 /projects/guscus/apps/gau/g09-e1/g09/l1.exe "/users/lcj1/gaussian/h10/2rows_uhf/singlet/stableopt/Gau-29974.inp" -scrdir="/users/lcj1/gaussian/h10/2rows_uhf/singlet/stableopt/"
 Entering Link 1 = /projects/guscus/apps/gau/g09-e1/g09/l1.exe PID=     29975.
  
 Copyright (c) 1988,1990,1992,1993,1995,1998,2003,2009,2015,
            Gaussian, Inc.  All Rights Reserved.
  
 This is part of the Gaussian(R) 09 program.  It is based on
 the Gaussian(R) 03 system (copyright 2003, Gaussian, Inc.),
 the Gaussian(R) 98 system (copyright 1998, Gaussian, Inc.),
 the Gaussian(R) 94 system (copyright 1995, Gaussian, Inc.),
 the Gaussian 92(TM) system (copyright 1992, Gaussian, Inc.),
 the Gaussian 90(TM) system (copyright 1990, Gaussian, Inc.),
 the Gaussian 88(TM) system (copyright 1988, Gaussian, Inc.),
 the Gaussian 86(TM) system (copyright 1986, Carnegie Mellon
 University), and the Gaussian 82(TM) system (copyright 1983,
 Carnegie Mellon University). Gaussian is a federally registered
 trademark of Gaussian, Inc.
  
 This software contains proprietary and confidential information,
 including trade secrets, belonging to Gaussian, Inc.
  
 This software is provided under written license and may be
 used, copied, transmitted, or stored only in accord with that
 written license.
  
 The following legend is applicable only to US Government
 contracts under FAR:
  
                    RESTRICTED RIGHTS LEGEND
  
 Use, reproduction and disclosure by the US Government is
 subject to restrictions as set forth in subparagraphs (a)
 and (c) of the Commercial Computer Software - Restricted
 Rights clause in FAR 52.227-19.
  
 Gaussian, Inc.
 340 Quinnipiac St., Bldg. 40, Wallingford CT 06492
  
  
 ---------------------------------------------------------------
 Warning -- This program may not be used in any manner that
 competes with the business of Gaussian, Inc. or will provide
 assistance to any competitor of Gaussian, Inc.  The licensee
 of this program is prohibited from giving any competitor of
 Gaussian, Inc. access to this program.  By using this program,
 the user acknowledges that Gaussian, Inc. is engaged in the
 business of creating and licensing software in the field of
 computational chemistry and represents and warrants to the
 licensee that it is not a competitor of Gaussian, Inc. and that
 it will not use this program in any manner prohibited above.
 ---------------------------------------------------------------
  

 Cite this work as:
 Gaussian 09, Revision E.01,
 M. J. Frisch, G. W. Trucks, H. B. Schlegel, G. E. Scuseria, 
 M. A. Robb, J. R. Cheeseman, G. Scalmani, V. Barone, B. Mennucci, 
 G. A. Petersson, H. Nakatsuji, M. Caricato, X. Li, H. P. Hratchian, 
 A. F. Izmaylov, J. Bloino, G. Zheng, J. L. Sonnenberg, M. Hada, 
 M. Ehara, K. Toyota, R. Fukuda, J. Hasegawa, M. Ishida, T. Nakajima, 
 Y. Honda, O. Kitao, H. Nakai, T. Vreven, J. A. Montgomery, Jr., 
 J. E. Peralta, F. Ogliaro, M. Bearpark, J. J. Heyd, E. Brothers, 
 K. N. Kudin, V. N. Staroverov, T. Keith, R. Kobayashi, J. Normand, 
 K. Raghavachari, A. Rendell, J. C. Burant, S. S. Iyengar, J. Tomasi, 
 M. Cossi, N. Rega, J. M. Millam, M. Klene, J. E. Knox, J. B. Cross, 
 V. Bakken, C. Adamo, J. Jaramillo, R. Gomperts, R. E. Stratmann, 
 O. Yazyev, A. J. Austin, R. Cammi, C. Pomelli, J. W. Ochterski, 
 R. L. Martin, K. Morokuma, V. G. Zakrzewski, G. A. Voth, 
 P. Salvador, J. J. Dannenberg, S. Dapprich, A. D. Daniels, 
 O. Farkas, J. B. Foresman, J. V. Ortiz, J. Cioslowski, 
 and D. J. Fox, Gaussian, Inc., Wallingford CT, 2013.
 
 ******************************************
 Gaussian 09:  ES64L-G09RevE.01 30-Nov-2015
                28-Feb-2017 
 ******************************************
 %chk=h10.chk
 ----------------------------------------------------------------------
 #rhf/gen scf(symm,tight,novaracc,noincfock,fulldiag) stable=opt guess=
 read geom=nocrowd test
 ----------------------------------------------------------------------
 1/38=1/1;
 2/12=1,17=6,18=5,40=1/2;
 3/5=7,11=2,16=1,25=1,30=1,116=1/1,2,3;
 4/5=1,9=4/1;
 5/5=100002,15=2,16=1,32=2,38=6/2;
 6/7=2,8=2,9=2,10=2,28=1/1;
 8/6=1,10=90,11=11/1;
 9/8=-3,42=1,46=1/14;
 5/5=100002,8=3,16=1,17=40,32=2,38=6/8(-2);
 6/7=2,8=2,9=2,10=2,28=1/1;
 99/5=1,9=1/99;
 ----------------------------------------------------------------------
 hf stability analysis of h10 triangular lattice, y= 0.8331796203003375
 4
 ----------------------------------------------------------------------
 Symbolic Z-matrix:
 Charge =  0 Multiplicity = 1
 H
 H                    1     1.08368 
 H                    1     1.08368  2     79.5 
 H                    2     1.08368  1     100.5    3     0.       0
 H                    3     1.08368  1     180.     2     0.       0
 H                    4     1.08368  2     180.     1     0.       0
 H                    5     1.08368  3     180.     2     0.       0
 H                    6     1.08368  4     180.     1     0.       0
 H                    7     1.08368  5     180.     2     0.       0
 H                    8     1.08368  6     180.     1     0.       0
 
                          Input orientation:                          
 ---------------------------------------------------------------------
 Center     Atomic      Atomic             Coordinates (Angstroms)
 Number     Number       Type             X           Y           Z
 ---------------------------------------------------------------------
      1          1           0        0.000000    0.000000    0.000000
      2          1           0        0.000000    0.000000    1.083681
      3          1           0        1.065535    0.000000    0.197485
      4          1           0        1.065535    0.000000    1.281167
      5          1           0        2.131070    0.000000    0.394971
      6          1           0        2.131070    0.000000    1.478652
      7          1           0        3.196605    0.000000    0.592456
      8          1           0        3.196605    0.000000    1.676137
      9          1           0        4.262140    0.000000    0.789941
     10          1           0        4.262140    0.000000    1.873622
 ---------------------------------------------------------------------
                    Distance matrix (angstroms):
                    1          2          3          4          5
     1  H    0.000000
     2  H    1.083681   0.000000
     3  H    1.083681   1.385896   0.000000
     4  H    1.666359   1.083681   1.083681   0.000000
     5  H    2.167363   2.239594   1.083681   1.385896   0.000000
     6  H    2.593814   2.167363   1.666359   1.083681   1.083681
     7  H    3.251044   3.234129   2.167363   2.239594   1.083681
     8  H    3.609393   3.251044   2.593814   2.167363   1.666359
     9  H    4.334726   4.272250   3.251044   3.234129   2.167363
    10  H    4.655781   4.334726   3.609393   3.251044   2.593814
                    6          7          8          9         10
     6  H    0.000000
     7  H    1.385896   0.000000
     8  H    1.083681   1.083681   0.000000
     9  H    2.239594   1.083681   1.385896   0.000000
    10  H    2.167363   1.666359   1.083681   1.083681   0.000000
 Stoichiometry    H10
 Framework group  C2H[SGH(H10)]
 Deg. of freedom     9
 Full point group                 C2H     NOp   4
 Largest Abelian subgroup         C2H     NOp   4
 Largest concise Abelian subgroup C2      NOp   2
                         Standard orientation:                         
 ---------------------------------------------------------------------
 Center     Atomic      Atomic             Coordinates (Angstroms)
 Number     Number       Type             X           Y           Z
 ---------------------------------------------------------------------
      1          1           0        2.131070    0.936811    0.000000
      2          1           0        2.131070   -0.146870    0.000000
      3          1           0        1.065535    0.739326    0.000000
      4          1           0        1.065535   -0.344355    0.000000
      5          1           0        0.000000    0.541841    0.000000
      6          1           0       -0.000000   -0.541841    0.000000
      7          1           0       -1.065535    0.344355    0.000000
      8          1           0       -1.065535   -0.739326    0.000000
      9          1           0       -2.131070    0.146870    0.000000
     10          1           0       -2.131070   -0.936811    0.000000
 ---------------------------------------------------------------------
 Rotational constants (GHZ):    177.5011132     21.2497721     18.9778183
 General basis read from cards:  (5D, 7F)
 There are     5 symmetry adapted cartesian basis functions of AG  symmetry.
 There are     0 symmetry adapted cartesian basis functions of BG  symmetry.
 There are     0 symmetry adapted cartesian basis functions of AU  symmetry.
 There are     5 symmetry adapted cartesian basis functions of BU  symmetry.
 There are     5 symmetry adapted basis functions of AG  symmetry.
 There are     0 symmetry adapted basis functions of BG  symmetry.
 There are     0 symmetry adapted basis functions of AU  symmetry.
 There are     5 symmetry adapted basis functions of BU  symmetry.
    10 basis functions,   100 primitive gaussians,    10 cartesian basis functions
     5 alpha electrons        5 beta electrons
       nuclear repulsion energy        13.6847388308 Hartrees.
 NAtoms=   10 NActive=   10 NUniq=    5 SFac= 4.00D+00 NAtFMM=   60 NAOKFM=F Big=F
 Integral buffers will be    131072 words long.
 Raffenetti 2 integral format.
 Two-electron integral symmetry is turned on.
 One-electron integrals computed using PRISM.
 NBasis=    10 RedAO= T EigKep=  1.30D-01  NBF=     5     0     0     5
 NBsUse=    10 1.00D-06 EigRej= -1.00D+00 NBFU=     5     0     0     5
 Initial guess from the checkpoint file:  "h10.chk"
 B after Tr=     0.000000    0.000000   -0.000000
         Rot=    0.949567   -0.000000    0.000000    0.313564 Ang=  36.55 deg.
 Initial guess orbital symmetries:
       Occupied  (AG) (BU) (AG) (BU) (BU)
       Virtual   (AG) (BU) (AG) (BU) (AG)
 Keep R1 ints in memory in symmetry-blocked form, NReq=879483.
 Requested convergence on RMS density matrix=1.00D-08 within 128 cycles.
 Requested convergence on MAX density matrix=1.00D-06.
 Requested convergence on             energy=1.00D-06.
 No special actions if energy rises.
 SCF Done:  E(RHF) =  -4.84683229201     A.U. after   11 cycles
            NFock= 11  Conv=0.90D-08     -V/T= 1.9279

 **********************************************************************

            Population analysis using the SCF density.

 **********************************************************************

 Orbital symmetries:
       Occupied  (AG) (BU) (AG) (BU) (BU)
       Virtual   (AG) (BU) (AG) (AG) (BU)
 The electronic state is 1-AG.
 Alpha  occ. eigenvalues --   -0.86203  -0.73699  -0.54464  -0.40142  -0.28858
 Alpha virt. eigenvalues --   -0.03053   0.21145   0.32323   0.52273   0.86886
          Condensed to atoms (all electrons):
               1          2          3          4          5          6
     1  H    0.979892   0.438900  -0.128027  -0.195559  -0.044973  -0.024457
     2  H    0.438900   0.761381  -0.126744  -0.108859  -0.080049   0.007660
     3  H   -0.128027  -0.126744   0.906766   0.211741   0.338145  -0.146505
     4  H   -0.195559  -0.108859   0.211741   1.147856  -0.051733   0.239661
     5  H   -0.044973  -0.080049   0.338145  -0.051733   0.888138  -0.134676
     6  H   -0.024457   0.007660  -0.146505   0.239661  -0.134676   0.888138
     7  H    0.022048   0.005630  -0.037803  -0.154504   0.239661  -0.051733
     8  H    0.007756   0.016970  -0.077524  -0.037803  -0.146505   0.338145
     9  H   -0.001082  -0.001304   0.016970   0.005630   0.007660  -0.080049
    10  H   -0.001462  -0.001082   0.007756   0.022048  -0.024457  -0.044973
               7          8          9         10
     1  H    0.022048   0.007756  -0.001082  -0.001462
     2  H    0.005630   0.016970  -0.001304  -0.001082
     3  H   -0.037803  -0.077524   0.016970   0.007756
     4  H   -0.154504  -0.037803   0.005630   0.022048
     5  H    0.239661  -0.146505   0.007660  -0.024457
     6  H   -0.051733   0.338145  -0.080049  -0.044973
     7  H    1.147856   0.211741  -0.108859  -0.195559
     8  H    0.211741   0.906766  -0.126744  -0.128027
     9  H   -0.108859  -0.126744   0.761381   0.438900
    10  H   -0.195559  -0.128027   0.438900   0.979892
 Mulliken charges:
               1
     1  H   -0.053035
     2  H    0.087496
     3  H    0.035226
     4  H   -0.078476
     5  H    0.008790
     6  H    0.008790
     7  H   -0.078476
     8  H    0.035226
     9  H    0.087496
    10  H   -0.053035
 Sum of Mulliken charges =   0.00000
 Mulliken charges with hydrogens summed into heavy atoms:
               1
 Electronic spatial extent (au):  <R**2>=            125.9664
 Charge=              0.0000 electrons
 Dipole moment (field-independent basis, Debye):
    X=             -0.0000    Y=             -0.0000    Z=              0.0000  Tot=              0.0000
 Quadrupole moment (field-independent basis, Debye-Ang):
   XX=            -15.8077   YY=            -13.8834   ZZ=            -12.8219
   XY=             -1.3432   XZ=              0.0000   YZ=              0.0000
 Traceless Quadrupole moment (field-independent basis, Debye-Ang):
   XX=             -1.6367   YY=              0.2876   ZZ=              1.3491
   XY=             -1.3432   XZ=              0.0000   YZ=              0.0000
 Octapole moment (field-independent basis, Debye-Ang**2):
  XXX=              0.0000  YYY=             -0.0000  ZZZ=              0.0000  XYY=             -0.0000
  XXY=             -0.0000  XXZ=              0.0000  XZZ=              0.0000  YZZ=              0.0000
  YYZ=              0.0000  XYZ=              0.0000
 Hexadecapole moment (field-independent basis, Debye-Ang**3):
 XXXX=           -246.7359 YYYY=            -47.2367 ZZZZ=            -15.3779 XXXY=            -33.6127
 XXXZ=              0.0000 YYYX=            -16.6957 YYYZ=              0.0000 ZZZX=              0.0000
 ZZZY=              0.0000 XXYY=            -41.6870 XXZZ=            -36.4575 YYZZ=            -10.4829
 XXYZ=              0.0000 YYXZ=              0.0000 ZZXY=             -5.9616
 N-N= 1.368473883075D+01 E-N=-3.661951021058D+01  KE= 5.223676743886D+00
 Symmetry AG   KE= 1.516043826917D+00
 Symmetry BG   KE= 0.000000000000D+00
 Symmetry AU   KE= 0.000000000000D+00
 Symmetry BU   KE= 3.707632916969D+00
 Range of M.O.s used for correlation:     1    10
 NBasis=    10 NAE=     5 NBE=     5 NFC=     0 NFV=     0
 NROrb=     10 NOA=     5 NOB=     5 NVA=     5 NVB=     5
 Keep R1 and R2 ints in memory in symmetry-blocked form, NReq=802982.
 Orbital symmetries:
       Occupied  (AG) (BU) (AG) (BU) (BU)
       Virtual   (AG) (BU) (AG) (AG) (BU)
    24 initial guesses have been made.
 Convergence on wavefunction:    0.001000000000000
 Iteration     1 Dimension    24 NMult     0 NNew     24
 CISAX will form    24 AO SS matrices at one time.
 New state      1 was old state      2
 Iteration     2 Dimension    46 NMult    24 NNew     22
 Iteration     3 Dimension    48 NMult    46 NNew      2
 ***********************************************************************
 Stability analysis using <AA,BB:AA,BB> singles matrix:
 ***********************************************************************

 Eigenvectors of the stability matrix:
 
 Eigenvector   1:      Triplet-BU   Eigenvalue=-0.1586398  <S**2>=2.000
       2 ->  9         0.10387
       3 ->  7        -0.16922
       4 ->  8        -0.17085
       5 ->  6         0.64980
 SavETr:  write IOETrn=   770 NScale= 10 NData=  16 NLR=1 NState=    1 LETran=      28.
 The wavefunction has an RHF -> UHF instability.
 Keep R1 and R2 ints in memory in symmetry-blocked form, NReq=860822.
 The two search directions are symmetric.
 Gradient too large for Newton-Raphson -- use scaled steepest descent instead.
     Accept linear search using points  4 and  5.
 Gradient too large for Newton-Raphson -- use scaled steepest descent instead.
 LinEq1:  Iter=  0 NonCon=     1 RMS=1.71D-03 Max=5.34D-03 NDo=     1
 AX will form     1 AO Fock derivatives at one time.
 LinEq1:  Iter=  1 NonCon=     1 RMS=5.71D-04 Max=1.70D-03 NDo=     1
 LinEq1:  Iter=  2 NonCon=     1 RMS=1.02D-04 Max=2.47D-04 NDo=     1
 LinEq1:  Iter=  3 NonCon=     1 RMS=1.23D-05 Max=3.94D-05 NDo=     1
 LinEq1:  Iter=  4 NonCon=     1 RMS=2.02D-06 Max=3.20D-06 NDo=     1
 LinEq1:  Iter=  5 NonCon=     1 RMS=1.38D-07 Max=2.96D-07 NDo=     1
 LinEq1:  Iter=  6 NonCon=     1 RMS=1.94D-08 Max=4.51D-08 NDo=     1
 LinEq1:  Iter=  7 NonCon=     1 RMS=2.29D-09 Max=4.24D-09 NDo=     1
 LinEq1:  Iter=  8 NonCon=     0 RMS=2.88D-10 Max=6.58D-10 NDo=     1
 Linear equations converged to 1.000D-09 1.000D-08 after     8 iterations.
     Accept linear search using points  1 and  2.
     Minimum is close to point  2 DX= -5.34D-03 DF= -6.42D-09 DXR=  5.37D-03 DFR=  2.89D-05 which will be used.
 LinEq1:  Iter=  0 NonCon=     1 RMS=1.86D-05 Max=5.36D-05 NDo=     1
 LinEq1:  Iter=  1 NonCon=     1 RMS=2.77D-06 Max=5.80D-06 NDo=     1
 LinEq1:  Iter=  2 NonCon=     1 RMS=4.51D-07 Max=1.17D-06 NDo=     1
 LinEq1:  Iter=  3 NonCon=     1 RMS=1.09D-07 Max=3.03D-07 NDo=     1
 LinEq1:  Iter=  4 NonCon=     1 RMS=1.77D-08 Max=4.30D-08 NDo=     1
 LinEq1:  Iter=  5 NonCon=     1 RMS=2.43D-09 Max=8.39D-09 NDo=     1
 LinEq1:  Iter=  6 NonCon=     0 RMS=3.71D-10 Max=7.75D-10 NDo=     1
 Linear equations converged to 1.000D-09 1.000D-08 after     6 iterations.
     Minimum is close to point  2 DX=  2.90D-04 DF= -2.66D-15 DXR=  2.90D-04 DFR=  9.04D-08 which will be used.
 Density matrix breaks symmetry, PCut= 1.00D-04
 Density matrix has no symmetry -- integrals replicated.
 Density matrix is not symmetric, so final MOs not symmetrized.
 SCF Done:  E(UHF) =  -4.95336689816     a.u. after    5 cycles
            Convg  =    0.8486D-07                    38 Fock formations.
              S**2 =  1.3775                  -V/T =  1.9330
 <Sx>= 0.0000 <Sy>= 0.0000 <Sz>= 0.0000 <S**2>= 1.3775 S= 0.7758
 <L.S>= 0.000000000000E+00
 Annihilation of the first spin contaminant:
 S**2 before annihilation     1.3775,   after     2.9028
 Range of M.O.s used for correlation:     1    10
 NBasis=    10 NAE=     5 NBE=     5 NFC=     0 NFV=     0
 NROrb=     10 NOA=     5 NOB=     5 NVA=     5 NVB=     5
 Keep R1 and R2 ints in memory in symmetry-blocked form, NReq=802982.
 Orbital symmetries:
 Alpha Orbitals:
       Occupied  (BG) (BG) (BG) (BG) (BG)
       Virtual   (BG) (BG) (BG) (BG) (BG)
 Beta  Orbitals:
       Occupied  (BG) (BG) (BG) (BG) (BG)
       Virtual   (BG) (BG) (BG) (BG) (BG)
    12 initial guesses have been made.
 Convergence on wavefunction:    0.001000000000000
 Iteration     1 Dimension    12 NMult     0 NNew     12
 CISAX will form    12 AO SS matrices at one time.
 New state      1 was old state      2
 Iteration     2 Dimension    24 NMult    12 NNew     12
 Iteration     3 Dimension    27 NMult    24 NNew      3
 Iteration     4 Dimension    30 NMult    27 NNew      3
 Iteration     5 Dimension    33 NMult    30 NNew      3
 ***********************************************************************
 Stability analysis using <AA,BB:AA,BB> singles matrix:
 ***********************************************************************

 Eigenvectors of the stability matrix:
 
 Eigenvector   1:  2.026-AG   Eigenvalue= 0.1251799  <S**2>=0.776
      3A ->  8A       -0.10221
      4A ->  7A        0.21358
      5A ->  6A        0.65234
      3B ->  8B        0.10221
      4B ->  7B       -0.21358
      5B ->  6B       -0.65234
 SavETr:  write IOETrn=   770 NScale= 10 NData=  16 NLR=1 NState=    1 LETran=      28.
 The wavefunction is stable under the perturbations considered.
 The wavefunction is already stable.

 **********************************************************************

            Population analysis using the SCF density.

 **********************************************************************

 Orbital symmetries:
 Alpha Orbitals:
       Occupied  (BG) (BG) (BG) (BG) (BG)
       Virtual   (BG) (BG) (BG) (BG) (BG)
 Beta  Orbitals:
       Occupied  (BG) (BG) (BG) (BG) (BG)
       Virtual   (BG) (BG) (BG) (BG) (BG)
 Unable to determine electronic state:  partially filled degenerate orbitals.
 Alpha  occ. eigenvalues --   -0.87023  -0.74851  -0.55922  -0.44620  -0.38438
 Alpha virt. eigenvalues --    0.06466   0.20714   0.35815   0.53480   0.86511
  Beta  occ. eigenvalues --   -0.87023  -0.74851  -0.55922  -0.44620  -0.38438
  Beta virt. eigenvalues --    0.06466   0.20714   0.35815   0.53480   0.86511
          Condensed to atoms (all electrons):
               1          2          3          4          5          6
     1  H    0.864274   0.138110   0.137139  -0.149441  -0.017821  -0.027272
     2  H    0.138110   0.939656  -0.177207   0.172127  -0.072992  -0.014320
     3  H    0.137139  -0.177207   1.047557  -0.077182   0.243411  -0.107787
     4  H   -0.149441   0.172127  -0.077182   1.106941  -0.127045   0.193795
     5  H   -0.017821  -0.072992   0.243411  -0.127045   0.927135   0.007425
     6  H   -0.027272  -0.014320  -0.107787   0.193795   0.007425   0.927135
     7  H    0.003330   0.007206  -0.037061  -0.055860   0.193795  -0.127045
     8  H    0.005317   0.001282  -0.024164  -0.037061  -0.107787   0.243411
     9  H   -0.000727   0.001177   0.001282   0.007206  -0.014320  -0.072992
    10  H    0.000138  -0.000727   0.005317   0.003330  -0.027272  -0.017821
               7          8          9         10
     1  H    0.003330   0.005317  -0.000727   0.000138
     2  H    0.007206   0.001282   0.001177  -0.000727
     3  H   -0.037061  -0.024164   0.001282   0.005317
     4  H   -0.055860  -0.037061   0.007206   0.003330
     5  H    0.193795  -0.107787  -0.014320  -0.027272
     6  H   -0.127045   0.243411  -0.072992  -0.017821
     7  H    1.106941  -0.077182   0.172127  -0.149441
     8  H   -0.077182   1.047557  -0.177207   0.137139
     9  H    0.172127  -0.177207   0.939656   0.138110
    10  H   -0.149441   0.137139   0.138110   0.864274
          Atomic-Atomic Spin Densities.
               1          2          3          4          5          6
     1  H   -0.724602   0.047674  -0.065965   0.140362   0.007527  -0.004900
     2  H    0.047674   0.755553  -0.184579  -0.036273  -0.013262  -0.008410
     3  H   -0.065965  -0.184579   0.844958  -0.007163   0.076299  -0.071552
     4  H    0.140362  -0.036273  -0.007163  -0.853764   0.087737   0.083705
     5  H    0.007527  -0.013262   0.076299   0.087737  -0.544811   0.000000
     6  H   -0.004900  -0.008410  -0.071552   0.083705   0.000000   0.544811
     7  H    0.001795   0.012885  -0.055815  -0.000000  -0.083705  -0.087737
     8  H   -0.006570   0.000733   0.000000   0.055815   0.071552  -0.076299
     9  H    0.001421  -0.000000  -0.000733  -0.012885   0.008410   0.013262
    10  H    0.000000  -0.001421   0.006570  -0.001795   0.004900  -0.007527
               7          8          9         10
     1  H    0.001795  -0.006570   0.001421   0.000000
     2  H    0.012885   0.000733  -0.000000  -0.001421
     3  H   -0.055815   0.000000  -0.000733   0.006570
     4  H   -0.000000   0.055815  -0.012885  -0.001795
     5  H   -0.083705   0.071552   0.008410   0.004900
     6  H   -0.087737  -0.076299   0.013262  -0.007527
     7  H    0.853764   0.007163   0.036273  -0.140362
     8  H    0.007163  -0.844958   0.184579   0.065965
     9  H    0.036273   0.184579  -0.755553  -0.047674
    10  H   -0.140362   0.065965  -0.047674   0.724602
 Mulliken charges and spin densities:
               1          2
     1  H    0.046954  -0.603258
     2  H    0.005689   0.572901
     3  H   -0.011305   0.542019
     4  H   -0.036809  -0.544260
     5  H   -0.004529  -0.385353
     6  H   -0.004529   0.385353
     7  H   -0.036809   0.544260
     8  H   -0.011305  -0.542019
     9  H    0.005689  -0.572901
    10  H    0.046954   0.603258
 Sum of Mulliken charges =  -0.00000  -0.00000
 Mulliken charges and spin densities with hydrogens summed into heavy atoms:
               1          2
 Electronic spatial extent (au):  <R**2>=            124.9568
 Charge=             -0.0000 electrons
 Dipole moment (field-independent basis, Debye):
    X=             -0.0000    Y=             -0.0000    Z=              0.0000  Tot=              0.0000
 Quadrupole moment (field-independent basis, Debye-Ang):
   XX=            -13.2076   YY=            -15.1456   ZZ=            -12.8017
   XY=              1.2435   XZ=              0.0000   YZ=              0.0000
 Traceless Quadrupole moment (field-independent basis, Debye-Ang):
   XX=              0.5107   YY=             -1.4273   ZZ=              0.9166
   XY=              1.2435   XZ=              0.0000   YZ=              0.0000
 Octapole moment (field-independent basis, Debye-Ang**2):
  XXX=             -0.0000  YYY=             -0.0000  ZZZ=              0.0000  XYY=             -0.0000
  XXY=             -0.0000  XXZ=              0.0000  XZZ=             -0.0000  YZZ=             -0.0000
  YYZ=              0.0000  XYZ=              0.0000
 Hexadecapole moment (field-independent basis, Debye-Ang**3):
 XXXX=           -203.8094 YYYY=            -51.3999 ZZZZ=            -15.3592 XXXY=            -11.8957
 XXXZ=              0.0000 YYYX=            -16.0848 YYYZ=              0.0000 ZZZX=              0.0000
 ZZZY=              0.0000 XXYY=            -42.0112 XXZZ=            -35.3564 YYZZ=            -10.9566
 XXYZ=              0.0000 YYXZ=              0.0000 ZZXY=             -5.2064
 N-N= 1.368473883075D+01 E-N=-3.656800038771D+01  KE= 5.308845747014D+00
 Symmetry AG   KE= 2.493425126377D+00
 Symmetry BG   KE= 0.000000000000D+00
 Symmetry AU   KE= 0.000000000000D+00
 Symmetry BU   KE= 2.815420620637D+00
                          Isotropic Fermi Contact Couplings
        Atom                 a.u.       MegaHertz       Gauss      10(-4) cm-1
     1  H(1)              -0.21371    -477.61886    -170.42628    -159.31650
     2  H(1)               0.21426     478.85100     170.86594     159.72750
     3  H(1)               0.23303     520.80725     185.83697     173.72260
     4  H(1)              -0.23450    -524.08312    -187.00588    -174.81531
     5  H(1)              -0.15247    -340.75158    -121.58863    -113.66249
     6  H(1)               0.15247     340.75158     121.58863     113.66249
     7  H(1)               0.23450     524.08312     187.00588     174.81531
     8  H(1)              -0.23303    -520.80725    -185.83697    -173.72260
     9  H(1)              -0.21426    -478.85100    -170.86594    -159.72750
    10  H(1)               0.21371     477.61886     170.42628     159.31650
 --------------------------------------------------------
       Center         ----  Spin Dipole Couplings  ----
                      3XX-RR        3YY-RR        3ZZ-RR
 --------------------------------------------------------
     1   Atom        0.028688      0.041551     -0.070239
     2   Atom       -0.031264     -0.039816      0.071080
     3   Atom       -0.071842     -0.016500      0.088341
     4   Atom        0.086877      0.005510     -0.092386
     5   Atom        0.110975     -0.029960     -0.081014
     6   Atom       -0.110975      0.029960      0.081014
     7   Atom       -0.086877     -0.005510      0.092386
     8   Atom        0.071842      0.016500     -0.088341
     9   Atom        0.031264      0.039816     -0.071080
    10   Atom       -0.028688     -0.041551      0.070239
 --------------------------------------------------------
                        XY            XZ            YZ
 --------------------------------------------------------
     1   Atom       -0.012490      0.000000      0.000000
     2   Atom       -0.055134      0.000000      0.000000
     3   Atom       -0.052780      0.000000      0.000000
     4   Atom        0.026456      0.000000      0.000000
     5   Atom        0.049634      0.000000      0.000000
     6   Atom       -0.049634      0.000000      0.000000
     7   Atom       -0.026456      0.000000      0.000000
     8   Atom        0.052780      0.000000      0.000000
     9   Atom        0.055134      0.000000      0.000000
    10   Atom        0.012490      0.000000      0.000000
 --------------------------------------------------------


 ---------------------------------------------------------------------------------
              Anisotropic Spin Dipole Couplings in Principal Axis System
 ---------------------------------------------------------------------------------

       Atom             a.u.   MegaHertz   Gauss  10(-4) cm-1        Axes

              Baa    -0.0702   -37.476   -13.372   -12.501  0.0000  0.0000  1.0000
     1 H(1)   Bbb     0.0211    11.242     4.011     3.750  0.8538  0.5207  0.0000
              Bcc     0.0492    26.234     9.361     8.751 -0.5207  0.8538  0.0000
 
              Baa    -0.0908   -48.468   -17.294   -16.167  0.6792  0.7339  0.0000
     2 H(1)   Bbb     0.0198    10.542     3.762     3.517  0.7339 -0.6792  0.0000
              Bcc     0.0711    37.925    13.533    12.650  0.0000  0.0000  1.0000
 
              Baa    -0.1038   -55.364   -19.755   -18.467  0.8557  0.5175  0.0000
     3 H(1)   Bbb     0.0154     8.229     2.936     2.745 -0.5175  0.8557  0.0000
              Bcc     0.0883    47.135    16.819    15.722  0.0000  0.0000  1.0000
 
              Baa    -0.0924   -49.293   -17.589   -16.442  0.0000  0.0000  1.0000
     4 H(1)   Bbb    -0.0023    -1.246    -0.445    -0.416 -0.2843  0.9587  0.0000
              Bcc     0.0947    50.539    18.034    16.858  0.9587  0.2843  0.0000
 
              Baa    -0.0810   -43.225   -15.424   -14.418  0.0000  0.0000  1.0000
     5 H(1)   Bbb    -0.0457   -24.376    -8.698    -8.131 -0.3020  0.9533  0.0000
              Bcc     0.1267    67.601    24.122    22.549  0.9533  0.3020  0.0000
 
              Baa    -0.1267   -67.601   -24.122   -22.549  0.9533  0.3020  0.0000
     6 H(1)   Bbb     0.0457    24.376     8.698     8.131 -0.3020  0.9533  0.0000
              Bcc     0.0810    43.225    15.424    14.418  0.0000  0.0000  1.0000
 
              Baa    -0.0947   -50.539   -18.034   -16.858  0.9587  0.2843  0.0000
     7 H(1)   Bbb     0.0023     1.246     0.445     0.416 -0.2843  0.9587  0.0000
              Bcc     0.0924    49.293    17.589    16.442  0.0000  0.0000  1.0000
 
              Baa    -0.0883   -47.135   -16.819   -15.722  0.0000  0.0000  1.0000
     8 H(1)   Bbb    -0.0154    -8.229    -2.936    -2.745 -0.5175  0.8557  0.0000
              Bcc     0.1038    55.364    19.755    18.467  0.8557  0.5175  0.0000
 
              Baa    -0.0711   -37.925   -13.533   -12.650  0.0000  0.0000  1.0000
     9 H(1)   Bbb    -0.0198   -10.542    -3.762    -3.517  0.7339 -0.6792  0.0000
              Bcc     0.0908    48.468    17.294    16.167  0.6792  0.7339  0.0000
 
              Baa    -0.0492   -26.234    -9.361    -8.751 -0.5207  0.8538  0.0000
    10 H(1)   Bbb    -0.0211   -11.242    -4.011    -3.750  0.8538  0.5207  0.0000
              Bcc     0.0702    37.476    13.372    12.501  0.0000  0.0000  1.0000
 

 ---------------------------------------------------------------------------------


 Test job not archived.
 1\1\GINC-SULU\Stability\UHF\Gen\H10\LCJ1\28-Feb-2017\0\\#rhf/gen scf(s
 ymm,tight,novaracc,noincfock,fulldiag) stable=opt guess=read geom=nocr
 owd test\\hf stability analysis of h10 triangular lattice, y= 0.833179
 62030033754\\0,1\H\H,1,1.0836814136\H,1,1.0836814136,2,79.5\H,2,1.0836
 814136,1,100.5,3,0.,0\H,3,1.0836814136,1,180.,2,0.,0\H,4,1.0836814136,
 2,180.,1,0.,0\H,5,1.0836814136,3,180.,2,0.,0\H,6,1.0836814136,4,180.,1
 ,0.,0\H,7,1.0836814136,5,180.,2,0.,0\H,8,1.0836814136,6,180.,1,0.,0\\V
 ersion=ES64L-G09RevE.01\State=1-AG\HF=-4.9533669\S2=1.377539\S2-1=0.\S
 2A=2.902794\RMSD=8.984e-09\Dipole=0.,0.,0.\Quadrupole=0.3797111,0.6814
 529,-1.061164,0.,0.9244908,0.\PG=C02H [SGH(H10)]\\@


 THE ATTENTION SPAN OF A COMPUTER IS AS LONG
 AS ITS EXTENSION CORD.
 Job cpu time:       0 days  0 hours  0 minutes  1.1 seconds.
 File lengths (MBytes):  RWF=     77 Int=      0 D2E=      0 Chk=      2 Scr=      2
 Normal termination of Gaussian 09 at Tue Feb 28 18:03:57 2017.
