 Entering Gaussian System, Link 0=g09
 AtFile(1): H.gbs
            H     0
            S   10   1.00
               1000.000000000000            0.000068713567
                316.227766000000            0.000169141320
                100.000000000000            0.000823394812
                 31.622776600000            0.003425569236
                 10.000000000000            0.013951996000
                  3.162277660000            0.056909313560
                  1.000000000000            0.198286399900
                  0.316227766000            0.496922426700
                  0.100000000000            0.369846276400
                  0.031622776600            0.003752720039
            ****
 Initial command:
 /projects/guscus/apps/gau/g09-e1/g09/l1.exe "/users/lcj1/gaussian/h10/2rows_uhf/singlet/stableopt/Gau-1907.inp" -scrdir="/users/lcj1/gaussian/h10/2rows_uhf/singlet/stableopt/"
 Entering Link 1 = /projects/guscus/apps/gau/g09-e1/g09/l1.exe PID=      1909.
  
 Copyright (c) 1988,1990,1992,1993,1995,1998,2003,2009,2015,
            Gaussian, Inc.  All Rights Reserved.
  
 This is part of the Gaussian(R) 09 program.  It is based on
 the Gaussian(R) 03 system (copyright 2003, Gaussian, Inc.),
 the Gaussian(R) 98 system (copyright 1998, Gaussian, Inc.),
 the Gaussian(R) 94 system (copyright 1995, Gaussian, Inc.),
 the Gaussian 92(TM) system (copyright 1992, Gaussian, Inc.),
 the Gaussian 90(TM) system (copyright 1990, Gaussian, Inc.),
 the Gaussian 88(TM) system (copyright 1988, Gaussian, Inc.),
 the Gaussian 86(TM) system (copyright 1986, Carnegie Mellon
 University), and the Gaussian 82(TM) system (copyright 1983,
 Carnegie Mellon University). Gaussian is a federally registered
 trademark of Gaussian, Inc.
  
 This software contains proprietary and confidential information,
 including trade secrets, belonging to Gaussian, Inc.
  
 This software is provided under written license and may be
 used, copied, transmitted, or stored only in accord with that
 written license.
  
 The following legend is applicable only to US Government
 contracts under FAR:
  
                    RESTRICTED RIGHTS LEGEND
  
 Use, reproduction and disclosure by the US Government is
 subject to restrictions as set forth in subparagraphs (a)
 and (c) of the Commercial Computer Software - Restricted
 Rights clause in FAR 52.227-19.
  
 Gaussian, Inc.
 340 Quinnipiac St., Bldg. 40, Wallingford CT 06492
  
  
 ---------------------------------------------------------------
 Warning -- This program may not be used in any manner that
 competes with the business of Gaussian, Inc. or will provide
 assistance to any competitor of Gaussian, Inc.  The licensee
 of this program is prohibited from giving any competitor of
 Gaussian, Inc. access to this program.  By using this program,
 the user acknowledges that Gaussian, Inc. is engaged in the
 business of creating and licensing software in the field of
 computational chemistry and represents and warrants to the
 licensee that it is not a competitor of Gaussian, Inc. and that
 it will not use this program in any manner prohibited above.
 ---------------------------------------------------------------
  

 Cite this work as:
 Gaussian 09, Revision E.01,
 M. J. Frisch, G. W. Trucks, H. B. Schlegel, G. E. Scuseria, 
 M. A. Robb, J. R. Cheeseman, G. Scalmani, V. Barone, B. Mennucci, 
 G. A. Petersson, H. Nakatsuji, M. Caricato, X. Li, H. P. Hratchian, 
 A. F. Izmaylov, J. Bloino, G. Zheng, J. L. Sonnenberg, M. Hada, 
 M. Ehara, K. Toyota, R. Fukuda, J. Hasegawa, M. Ishida, T. Nakajima, 
 Y. Honda, O. Kitao, H. Nakai, T. Vreven, J. A. Montgomery, Jr., 
 J. E. Peralta, F. Ogliaro, M. Bearpark, J. J. Heyd, E. Brothers, 
 K. N. Kudin, V. N. Staroverov, T. Keith, R. Kobayashi, J. Normand, 
 K. Raghavachari, A. Rendell, J. C. Burant, S. S. Iyengar, J. Tomasi, 
 M. Cossi, N. Rega, J. M. Millam, M. Klene, J. E. Knox, J. B. Cross, 
 V. Bakken, C. Adamo, J. Jaramillo, R. Gomperts, R. E. Stratmann, 
 O. Yazyev, A. J. Austin, R. Cammi, C. Pomelli, J. W. Ochterski, 
 R. L. Martin, K. Morokuma, V. G. Zakrzewski, G. A. Voth, 
 P. Salvador, J. J. Dannenberg, S. Dapprich, A. D. Daniels, 
 O. Farkas, J. B. Foresman, J. V. Ortiz, J. Cioslowski, 
 and D. J. Fox, Gaussian, Inc., Wallingford CT, 2013.
 
 ******************************************
 Gaussian 09:  ES64L-G09RevE.01 30-Nov-2015
                28-Feb-2017 
 ******************************************
 %chk=h10.chk
 ----------------------------------------------------------------------
 #rhf/gen scf(symm,tight,novaracc,noincfock,fulldiag) stable=opt guess=
 read geom=nocrowd test
 ----------------------------------------------------------------------
 1/38=1/1;
 2/12=1,17=6,18=5,40=1/2;
 3/5=7,11=2,16=1,25=1,30=1,116=1/1,2,3;
 4/5=1,9=4/1;
 5/5=100002,15=2,16=1,32=2,38=6/2;
 6/7=2,8=2,9=2,10=2,28=1/1;
 8/6=1,10=90,11=11/1;
 9/8=-3,42=1,46=1/14;
 5/5=100002,8=3,16=1,17=40,32=2,38=6/8(-2);
 6/7=2,8=2,9=2,10=2,28=1/1;
 99/5=1,9=1/99;
 ----------------------------------------------------------------------
 hf stability analysis of h10 triangular lattice, y= 1.2857983717814927
 ----------------------------------------------------------------------
 Symbolic Z-matrix:
 Charge =  0 Multiplicity = 1
 H
 H                    1     1.36195 
 H                    1     1.36195  2     38.5 
 H                    2     1.36195  1     141.5    3     0.       0
 H                    3     1.36195  1     180.     2     0.       0
 H                    4     1.36195  2     180.     1     0.       0
 H                    5     1.36195  3     180.     2     0.       0
 H                    6     1.36195  4     180.     1     0.       0
 H                    7     1.36195  5     180.     2     0.       0
 H                    8     1.36195  6     180.     1     0.       0
 
                          Input orientation:                          
 ---------------------------------------------------------------------
 Center     Atomic      Atomic             Coordinates (Angstroms)
 Number     Number       Type             X           Y           Z
 ---------------------------------------------------------------------
      1          1           0        0.000000    0.000000    0.000000
      2          1           0        0.000000    0.000000    1.361946
      3          1           0        0.847831    0.000000    1.065870
      4          1           0        0.847831    0.000000    2.427816
      5          1           0        1.695663    0.000000    2.131740
      6          1           0        1.695663    0.000000    3.493686
      7          1           0        2.543494    0.000000    3.197610
      8          1           0        2.543494    0.000000    4.559556
      9          1           0        3.391326    0.000000    4.263480
     10          1           0        3.391326    0.000000    5.625427
 ---------------------------------------------------------------------
                    Distance matrix (angstroms):
                    1          2          3          4          5
     1  H    0.000000
     2  H    1.361946   0.000000
     3  H    1.361946   0.898042   0.000000
     4  H    2.571597   1.361946   1.361946   0.000000
     5  H    2.723892   1.862218   1.361946   0.898042   0.000000
     6  H    3.883441   2.723892   2.571597   1.361946   1.361946
     7  H    4.085838   3.136722   2.723892   1.862218   1.361946
     8  H    5.221007   4.085838   3.883441   2.723892   2.571597
     9  H    5.447784   4.463182   4.085838   3.136722   2.723892
    10  H    6.568601   5.447784   5.221007   4.085838   3.883441
                    6          7          8          9         10
     6  H    0.000000
     7  H    0.898042   0.000000
     8  H    1.361946   1.361946   0.000000
     9  H    1.862218   1.361946   0.898042   0.000000
    10  H    2.723892   2.571597   1.361946   1.361946   0.000000
 Stoichiometry    H10
 Framework group  C2H[SGH(H10)]
 Deg. of freedom     9
 Full point group                 C2H     NOp   4
 Largest Abelian subgroup         C2H     NOp   4
 Largest concise Abelian subgroup C2      NOp   2
                         Standard orientation:                         
 ---------------------------------------------------------------------
 Center     Atomic      Atomic             Coordinates (Angstroms)
 Number     Number       Type             X           Y           Z
 ---------------------------------------------------------------------
      1          1           0        1.695663    2.812713   -0.000000
      2          1           0        1.695663    1.450767   -0.000000
      3          1           0        0.847831    1.746843   -0.000000
      4          1           0        0.847831    0.384897   -0.000000
      5          1           0        0.000000    0.680973    0.000000
      6          1           0       -0.000000   -0.680973    0.000000
      7          1           0       -0.847831   -0.384897   -0.000000
      8          1           0       -0.847831   -1.746843   -0.000000
      9          1           0       -1.695663   -1.450767   -0.000000
     10          1           0       -1.695663   -2.812713   -0.000000
 ---------------------------------------------------------------------
 Rotational constants (GHZ):    301.4107656     12.5140109     12.0151638
 General basis read from cards:  (5D, 7F)
 There are     5 symmetry adapted cartesian basis functions of AG  symmetry.
 There are     0 symmetry adapted cartesian basis functions of BG  symmetry.
 There are     0 symmetry adapted cartesian basis functions of AU  symmetry.
 There are     5 symmetry adapted cartesian basis functions of BU  symmetry.
 There are     5 symmetry adapted basis functions of AG  symmetry.
 There are     0 symmetry adapted basis functions of BG  symmetry.
 There are     0 symmetry adapted basis functions of AU  symmetry.
 There are     5 symmetry adapted basis functions of BU  symmetry.
    10 basis functions,   100 primitive gaussians,    10 cartesian basis functions
     5 alpha electrons        5 beta electrons
       nuclear repulsion energy        12.1097239412 Hartrees.
 NAtoms=   10 NActive=   10 NUniq=    5 SFac= 4.00D+00 NAtFMM=   60 NAOKFM=F Big=F
 Integral buffers will be    131072 words long.
 Raffenetti 2 integral format.
 Two-electron integral symmetry is turned on.
 One-electron integrals computed using PRISM.
 NBasis=    10 RedAO= T EigKep=  1.84D-01  NBF=     5     0     0     5
 NBsUse=    10 1.00D-06 EigRej= -1.00D+00 NBFU=     5     0     0     5
 Initial guess from the checkpoint file:  "h10.chk"
 B after Tr=     0.000000    0.000000   -0.000000
         Rot=    0.999999    0.000000    0.000000   -0.001418 Ang=  -0.16 deg.
 Initial guess orbital symmetries:
       Occupied  (AG) (BU) (AG) (BU) (BU)
       Virtual   (AG) (BU) (AG) (BU) (AG)
 Keep R1 ints in memory in symmetry-blocked form, NReq=876711.
 Requested convergence on RMS density matrix=1.00D-08 within 128 cycles.
 Requested convergence on MAX density matrix=1.00D-06.
 Requested convergence on             energy=1.00D-06.
 No special actions if energy rises.
 SCF Done:  E(RHF) =  -4.71491613887     A.U. after   10 cycles
            NFock= 10  Conv=0.12D-08     -V/T= 1.9381

 **********************************************************************

            Population analysis using the SCF density.

 **********************************************************************

 Orbital symmetries:
       Occupied  (AG) (BU) (AG) (BU) (BU)
       Virtual   (AG) (BU) (AG) (BU) (AG)
 The electronic state is 1-AG.
 Alpha  occ. eigenvalues --   -0.76871  -0.71365  -0.55057  -0.35119  -0.14709
 Alpha virt. eigenvalues --   -0.00405   0.14004   0.17147   0.40819   0.64578
          Condensed to atoms (all electrons):
               1          2          3          4          5          6
     1  H    0.775976   0.075303   0.161497  -0.073212  -0.019300  -0.001091
     2  H    0.075303   0.974176   0.003195   0.134195  -0.215432   0.056038
     3  H    0.161497   0.003195   0.608262  -0.074029   0.209442  -0.061514
     4  H   -0.073212   0.134195  -0.074029   0.970911   0.073821   0.142419
     5  H   -0.019300  -0.215432   0.209442   0.073821   1.418977  -0.417000
     6  H   -0.001091   0.056038  -0.061514   0.142419  -0.417000   1.418977
     7  H    0.005105  -0.021505   0.011216  -0.146292   0.142419   0.073821
     8  H   -0.000073   0.004540  -0.003482   0.011216  -0.061514   0.209442
     9  H    0.000220  -0.003135   0.004540  -0.021505   0.056038  -0.215432
    10  H   -0.000059   0.000220  -0.000073   0.005105  -0.001091  -0.019300
               7          8          9         10
     1  H    0.005105  -0.000073   0.000220  -0.000059
     2  H   -0.021505   0.004540  -0.003135   0.000220
     3  H    0.011216  -0.003482   0.004540  -0.000073
     4  H   -0.146292   0.011216  -0.021505   0.005105
     5  H    0.142419  -0.061514   0.056038  -0.001091
     6  H    0.073821   0.209442  -0.215432  -0.019300
     7  H    0.970911  -0.074029   0.134195  -0.073212
     8  H   -0.074029   0.608262   0.003195   0.161497
     9  H    0.134195   0.003195   0.974176   0.075303
    10  H   -0.073212   0.161497   0.075303   0.775976
 Mulliken charges:
               1
     1  H    0.075635
     2  H   -0.007594
     3  H    0.140946
     4  H   -0.022628
     5  H   -0.186360
     6  H   -0.186360
     7  H   -0.022628
     8  H    0.140946
     9  H   -0.007594
    10  H    0.075635
 Sum of Mulliken charges =  -0.00000
 Mulliken charges with hydrogens summed into heavy atoms:
               1
 Electronic spatial extent (au):  <R**2>=            172.0714
 Charge=             -0.0000 electrons
 Dipole moment (field-independent basis, Debye):
    X=              0.0000    Y=              0.0000    Z=             -0.0000  Tot=              0.0000
 Quadrupole moment (field-independent basis, Debye-Ang):
   XX=            -11.9028   YY=             -5.9051   ZZ=            -13.1713
   XY=              5.3412   XZ=             -0.0000   YZ=             -0.0000
 Traceless Quadrupole moment (field-independent basis, Debye-Ang):
   XX=             -1.5764   YY=              4.4213   ZZ=             -2.8449
   XY=              5.3412   XZ=             -0.0000   YZ=             -0.0000
 Octapole moment (field-independent basis, Debye-Ang**2):
  XXX=              0.0000  YYY=              0.0000  ZZZ=              0.0000  XYY=              0.0000
  XXY=              0.0000  XXZ=              0.0000  XZZ=              0.0000  YZZ=              0.0000
  YYZ=              0.0000  XYZ=             -0.0000
 Hexadecapole moment (field-independent basis, Debye-Ang**3):
 XXXX=           -130.7153 YYYY=           -167.7688 ZZZZ=            -16.1504 XXXY=            -60.5523
 XXXZ=              0.0000 YYYX=            -33.0622 YYYZ=              0.0000 ZZZX=              0.0000
 ZZZY=              0.0000 XXYY=            -40.7800 XXZZ=            -24.7410 YYZZ=            -41.0601
 XXYZ=              0.0000 YYXZ=             -0.0000 ZZXY=            -23.1785
 N-N= 1.210972394120D+01 E-N=-3.361275580817D+01  KE= 5.025891893438D+00
 Symmetry AG   KE= 1.428900920492D+00
 Symmetry BG   KE= 0.000000000000D+00
 Symmetry AU   KE= 0.000000000000D+00
 Symmetry BU   KE= 3.596990972946D+00
 Range of M.O.s used for correlation:     1    10
 NBasis=    10 NAE=     5 NBE=     5 NFC=     0 NFV=     0
 NROrb=     10 NOA=     5 NOB=     5 NVA=     5 NVB=     5
 Keep R1 and R2 ints in memory in symmetry-blocked form, NReq=802982.
 Orbital symmetries:
       Occupied  (AG) (BU) (AG) (BU) (BU)
       Virtual   (AG) (BU) (AG) (BU) (AG)
    24 initial guesses have been made.
 Convergence on wavefunction:    0.001000000000000
 Iteration     1 Dimension    24 NMult     0 NNew     24
 CISAX will form    24 AO SS matrices at one time.
 New state      1 was old state      2
 Iteration     2 Dimension    48 NMult    24 NNew     24
 Iteration     3 Dimension    50 NMult    48 NNew      2
 Cease iterating as an instability has been found.
 ***********************************************************************
 Stability analysis using <AA,BB:AA,BB> singles matrix:
 ***********************************************************************

 Eigenvectors of the stability matrix:
 
 Eigenvector   1:      Triplet-BU   Eigenvalue=-0.1902440  <S**2>=2.000
       4 ->  6         0.14168
       5 ->  6         0.64550
       5 ->  8         0.23176
 
 Eigenvector   2:      Triplet-BU   Eigenvalue=-0.0959015  <S**2>=2.000
       2 ->  6         0.12132
       3 ->  7        -0.22674
       4 ->  6         0.50366
       5 ->  8        -0.41496
 
 Eigenvector   3:      Triplet-AG   Eigenvalue=-0.0575281  <S**2>=2.000
       3 ->  8         0.12383
       4 ->  7         0.26545
       5 ->  7         0.62799
 
 Eigenvector   4:      Singlet-BU   Eigenvalue=-0.0121778  <S**2>=0.000
       4 ->  8         0.13064
       5 ->  6         0.63983
       5 ->  8        -0.24960
 
 Eigenvector   5:      Singlet-AG   Eigenvalue= 0.0642113  <S**2>=0.000
       4 ->  7        -0.13378
       5 ->  7         0.68686
 
 Eigenvector   6:      Singlet-BU   Eigenvalue= 0.1543596  <S**2>=0.000
       2 ->  6         0.16346
       3 ->  7        -0.11501
       4 ->  6        -0.40959
       5 ->  6         0.14864
       5 ->  8         0.51057
 SavETr:  write IOETrn=   770 NScale= 10 NData=  16 NLR=1 NState=    6 LETran=     118.
 The wavefunction has an RHF -> UHF instability.
 Keep R1 and R2 ints in memory in symmetry-blocked form, NReq=858050.
 The two search directions are symmetric.
 Gradient too large for Newton-Raphson -- use scaled steepest descent instead.
     Minimum is close to point  7 DX=  2.14D-01 DF= -2.91D-04 DXR=  7.60D-02 DFR=  6.23D-03 which will be used.
 Gradient too large for Newton-Raphson -- use scaled steepest descent instead.
 Gradient too large for Newton-Raphson -- use scaled steepest descent instead.
 Gradient too large for Newton-Raphson -- use scaled steepest descent instead.
     Minimum is close to point  2 DX= -7.80D-02 DF= -1.57D-05 DXR=  4.81D-02 DFR=  2.32D-03 which will be used.
 Gradient too large for Newton-Raphson -- use scaled steepest descent instead.
     Minimum is close to point  2 DX= -1.35D-01 DF= -1.67D-05 DXR=  8.60D-02 DFR=  7.45D-03 which will be used.
 Gradient too large for Newton-Raphson -- use scaled steepest descent instead.
     Accept linear search using points  1 and  2.
     Minimum is close to point  2 DX= -2.48D-02 DF= -4.08D-07 DXR=  1.58D-02 DFR=  5.35D-04 which will be used.
 Gradient too large for Newton-Raphson -- use scaled steepest descent instead.
     Minimum is close to point  2 DX=  3.25D-02 DF= -1.01D-07 DXR=  1.99D-02 DFR=  3.97D-04 which will be used.
 LinEq1:  Iter=  0 NonCon=     1 RMS=1.49D-03 Max=6.45D-03 NDo=     1
 AX will form     1 AO Fock derivatives at one time.
 LinEq1:  Iter=  1 NonCon=     1 RMS=3.56D-04 Max=1.11D-03 NDo=     1
 LinEq1:  Iter=  2 NonCon=     1 RMS=4.63D-05 Max=9.92D-05 NDo=     1
 LinEq1:  Iter=  3 NonCon=     1 RMS=1.13D-05 Max=2.18D-05 NDo=     1
 LinEq1:  Iter=  4 NonCon=     1 RMS=1.40D-06 Max=3.38D-06 NDo=     1
 LinEq1:  Iter=  5 NonCon=     1 RMS=3.47D-07 Max=8.68D-07 NDo=     1
 LinEq1:  Iter=  6 NonCon=     1 RMS=4.93D-08 Max=1.20D-07 NDo=     1
 LinEq1:  Iter=  7 NonCon=     1 RMS=7.06D-09 Max=1.43D-08 NDo=     1
 LinEq1:  Iter=  8 NonCon=     0 RMS=8.27D-10 Max=1.77D-09 NDo=     1
 Linear equations converged to 1.000D-09 1.000D-08 after     8 iterations.
     Minimum is close to point  2 DX=  9.27D-03 DF= -1.26D-08 DXR=  9.19D-03 DFR=  8.44D-05 which will be used.
 LinEq1:  Iter=  0 NonCon=     1 RMS=1.85D-05 Max=3.57D-05 NDo=     1
 LinEq1:  Iter=  1 NonCon=     1 RMS=5.46D-06 Max=1.23D-05 NDo=     1
 LinEq1:  Iter=  2 NonCon=     1 RMS=1.07D-06 Max=2.24D-06 NDo=     1
 LinEq1:  Iter=  3 NonCon=     1 RMS=1.96D-07 Max=5.33D-07 NDo=     1
 LinEq1:  Iter=  4 NonCon=     1 RMS=3.11D-08 Max=7.67D-08 NDo=     1
 LinEq1:  Iter=  5 NonCon=     1 RMS=5.73D-09 Max=1.59D-08 NDo=     1
 LinEq1:  Iter=  6 NonCon=     1 RMS=1.08D-09 Max=2.80D-09 NDo=     1
 LinEq1:  Iter=  7 NonCon=     0 RMS=1.67D-10 Max=3.12D-10 NDo=     1
 Linear equations converged to 1.000D-09 1.000D-08 after     7 iterations.
     Minimum is close to point  2 DX=  8.92D-04 DF= -4.17D-14 DXR=  8.91D-04 DFR=  7.91D-07 which will be used.
 LinEq1:  Iter=  0 NonCon=     1 RMS=5.50D-08 Max=1.23D-07 NDo=     1
 LinEq1:  Iter=  1 NonCon=     1 RMS=1.15D-08 Max=3.02D-08 NDo=     1
 LinEq1:  Iter=  2 NonCon=     1 RMS=2.92D-09 Max=8.57D-09 NDo=     1
 LinEq1:  Iter=  3 NonCon=     1 RMS=4.74D-10 Max=1.22D-09 NDo=     1
 LinEq1:  Iter=  4 NonCon=     1 RMS=6.66D-11 Max=1.71D-10 NDo=     1
 LinEq1:  Iter=  5 NonCon=     1 RMS=1.27D-11 Max=3.47D-11 NDo=     1
 LinEq1:  Iter=  6 NonCon=     0 RMS=2.34D-12 Max=5.55D-12 NDo=     1
 Linear equations converged to 3.410D-12 3.410D-11 after     6 iterations.
 Density matrix breaks symmetry, PCut= 1.00D-04
 Density matrix has no symmetry -- integrals replicated.
 Density matrix is not symmetric, so final MOs not symmetrized.
 SCF Done:  E(UHF) =  -4.90102599240     a.u. after   11 cycles
            Convg  =    0.1184D-08                    59 Fock formations.
              S**2 =  1.1976                  -V/T =  1.8800
 <Sx>= 0.0000 <Sy>= 0.0000 <Sz>= 0.0000 <S**2>= 1.1976 S= 0.7032
 <L.S>= 0.000000000000E+00
 Annihilation of the first spin contaminant:
 S**2 before annihilation     1.1976,   after     1.5733
 Range of M.O.s used for correlation:     1    10
 NBasis=    10 NAE=     5 NBE=     5 NFC=     0 NFV=     0
 NROrb=     10 NOA=     5 NOB=     5 NVA=     5 NVB=     5
 Keep R1 and R2 ints in memory in symmetry-blocked form, NReq=802982.
 Orbital symmetries:
 Alpha Orbitals:
       Occupied  (BG) (BG) (BG) (BG) (BG)
       Virtual   (BG) (BG) (BG) (BG) (BG)
 Beta  Orbitals:
       Occupied  (BG) (BG) (BG) (BG) (BG)
       Virtual   (BG) (BG) (BG) (BG) (BG)
    12 initial guesses have been made.
 Convergence on wavefunction:    0.001000000000000
 Iteration     1 Dimension    12 NMult     0 NNew     12
 CISAX will form    12 AO SS matrices at one time.
 Iteration     2 Dimension    24 NMult    12 NNew     12
 Iteration     3 Dimension    27 NMult    24 NNew      3
 Iteration     4 Dimension    30 NMult    27 NNew      3
 Iteration     5 Dimension    33 NMult    30 NNew      3
 ***********************************************************************
 Stability analysis using <AA,BB:AA,BB> singles matrix:
 ***********************************************************************

 Eigenvectors of the stability matrix:
 
 Eigenvector   1:  3.313-AG   Eigenvalue=-0.0062295  <S**2>=2.494
      1A -> 10A       -0.10526
      2A ->  6A       -0.10540
      4A ->  6A        0.33476
      5A ->  6A        0.55577
      1B -> 10B        0.10526
      2B ->  6B        0.10540
      4B ->  6B       -0.33476
      5B ->  6B       -0.55577
 SavETr:  write IOETrn=   770 NScale= 10 NData=  16 NLR=1 NState=    1 LETran=      28.
 The wavefunction has an internal instability.
 Keep R1 and R2 ints in memory in symmetry-blocked form, NReq=858050.
 The two search directions are symmetric.
 LinEq1:  Iter=  0 NonCon=     1 RMS=1.16D-03 Max=3.05D-03 NDo=     1
 AX will form     1 AO Fock derivatives at one time.
 LinEq1:  Iter=  1 NonCon=     1 RMS=1.75D-04 Max=4.95D-04 NDo=     1
 LinEq1:  Iter=  2 NonCon=     1 RMS=5.74D-05 Max=2.44D-04 NDo=     1
 LinEq1:  Iter=  3 NonCon=     1 RMS=1.05D-05 Max=2.64D-05 NDo=     1
 LinEq1:  Iter=  4 NonCon=     1 RMS=2.15D-06 Max=4.38D-06 NDo=     1
 LinEq1:  Iter=  5 NonCon=     1 RMS=4.55D-07 Max=1.21D-06 NDo=     1
 LinEq1:  Iter=  6 NonCon=     1 RMS=1.16D-07 Max=2.76D-07 NDo=     1
 LinEq1:  Iter=  7 NonCon=     1 RMS=3.18D-08 Max=7.83D-08 NDo=     1
 LinEq1:  Iter=  8 NonCon=     1 RMS=8.26D-09 Max=2.06D-08 NDo=     1
 LinEq1:  Iter=  9 NonCon=     1 RMS=1.11D-09 Max=2.40D-09 NDo=     1
 LinEq1:  Iter= 10 NonCon=     0 RMS=2.02D-10 Max=4.46D-10 NDo=     1
 Linear equations converged to 1.000D-09 1.000D-08 after    10 iterations.
 Incorrect curvature in search direction -- initial direction reversed.
 LinEq1:  Iter=  0 NonCon=     1 RMS=1.80D-03 Max=4.22D-03 NDo=     1
 LinEq1:  Iter=  1 NonCon=     1 RMS=2.84D-04 Max=7.87D-04 NDo=     1
 LinEq1:  Iter=  2 NonCon=     1 RMS=9.27D-05 Max=3.52D-04 NDo=     1
 LinEq1:  Iter=  3 NonCon=     1 RMS=1.54D-05 Max=4.07D-05 NDo=     1
 LinEq1:  Iter=  4 NonCon=     1 RMS=3.09D-06 Max=8.33D-06 NDo=     1
 LinEq1:  Iter=  5 NonCon=     1 RMS=6.44D-07 Max=1.60D-06 NDo=     1
 LinEq1:  Iter=  6 NonCon=     1 RMS=1.50D-07 Max=3.57D-07 NDo=     1
 LinEq1:  Iter=  7 NonCon=     1 RMS=2.86D-08 Max=8.00D-08 NDo=     1
 LinEq1:  Iter=  8 NonCon=     1 RMS=6.92D-09 Max=1.72D-08 NDo=     1
 LinEq1:  Iter=  9 NonCon=     1 RMS=1.32D-09 Max=3.57D-09 NDo=     1
 LinEq1:  Iter= 10 NonCon=     0 RMS=3.32D-10 Max=7.84D-10 NDo=     1
 Linear equations converged to 1.000D-09 1.000D-08 after    10 iterations.
 LinEq1:  Iter=  0 NonCon=     1 RMS=1.92D-03 Max=5.43D-03 NDo=     1
 LinEq1:  Iter=  1 NonCon=     1 RMS=3.04D-04 Max=9.15D-04 NDo=     1
 LinEq1:  Iter=  2 NonCon=     1 RMS=8.89D-05 Max=3.31D-04 NDo=     1
 LinEq1:  Iter=  3 NonCon=     1 RMS=1.80D-05 Max=4.00D-05 NDo=     1
 LinEq1:  Iter=  4 NonCon=     1 RMS=4.40D-06 Max=1.41D-05 NDo=     1
 LinEq1:  Iter=  5 NonCon=     1 RMS=1.38D-06 Max=3.76D-06 NDo=     1
 LinEq1:  Iter=  6 NonCon=     1 RMS=2.87D-07 Max=7.53D-07 NDo=     1
 LinEq1:  Iter=  7 NonCon=     1 RMS=5.02D-08 Max=1.23D-07 NDo=     1
 LinEq1:  Iter=  8 NonCon=     1 RMS=1.08D-08 Max=3.48D-08 NDo=     1
 LinEq1:  Iter=  9 NonCon=     1 RMS=1.41D-09 Max=3.17D-09 NDo=     1
 LinEq1:  Iter= 10 NonCon=     0 RMS=2.98D-10 Max=9.32D-10 NDo=     1
 Linear equations converged to 1.000D-09 1.000D-08 after    10 iterations.
     Accept linear search using points  1 and  2.
 LinEq1:  Iter=  0 NonCon=     1 RMS=5.59D-04 Max=2.01D-03 NDo=     1
 LinEq1:  Iter=  1 NonCon=     1 RMS=1.12D-04 Max=2.65D-04 NDo=     1
 LinEq1:  Iter=  2 NonCon=     1 RMS=2.55D-05 Max=5.85D-05 NDo=     1
 LinEq1:  Iter=  3 NonCon=     1 RMS=5.05D-06 Max=1.46D-05 NDo=     1
 LinEq1:  Iter=  4 NonCon=     1 RMS=1.04D-06 Max=2.79D-06 NDo=     1
 LinEq1:  Iter=  5 NonCon=     1 RMS=2.01D-07 Max=4.68D-07 NDo=     1
 LinEq1:  Iter=  6 NonCon=     1 RMS=5.67D-08 Max=1.61D-07 NDo=     1
 LinEq1:  Iter=  7 NonCon=     1 RMS=1.33D-08 Max=3.85D-08 NDo=     1
 LinEq1:  Iter=  8 NonCon=     1 RMS=2.37D-09 Max=6.77D-09 NDo=     1
 LinEq1:  Iter=  9 NonCon=     0 RMS=4.34D-10 Max=9.71D-10 NDo=     1
 Linear equations converged to 1.000D-09 1.000D-08 after     9 iterations.
     Minimum is close to point  2 DX=  2.10D-02 DF= -1.68D-08 DXR=  2.06D-02 DFR=  4.23D-04 which will be used.
 LinEq1:  Iter=  0 NonCon=     1 RMS=1.04D-05 Max=3.80D-05 NDo=     1
 LinEq1:  Iter=  1 NonCon=     1 RMS=1.64D-06 Max=5.02D-06 NDo=     1
 LinEq1:  Iter=  2 NonCon=     1 RMS=4.95D-07 Max=1.27D-06 NDo=     1
 LinEq1:  Iter=  3 NonCon=     1 RMS=1.45D-07 Max=3.60D-07 NDo=     1
 LinEq1:  Iter=  4 NonCon=     1 RMS=2.92D-08 Max=6.78D-08 NDo=     1
 LinEq1:  Iter=  5 NonCon=     1 RMS=5.09D-09 Max=1.06D-08 NDo=     1
 LinEq1:  Iter=  6 NonCon=     1 RMS=1.03D-09 Max=2.77D-09 NDo=     1
 LinEq1:  Iter=  7 NonCon=     0 RMS=1.35D-10 Max=2.72D-10 NDo=     1
 Linear equations converged to 4.703D-10 4.703D-09 after     7 iterations.
 LinEq1:  Iter=  0 NonCon=     1 RMS=1.83D-07 Max=3.77D-07 NDo=     1
 LinEq1:  Iter=  1 NonCon=     1 RMS=4.74D-08 Max=1.36D-07 NDo=     1
 LinEq1:  Iter=  2 NonCon=     1 RMS=1.21D-08 Max=4.42D-08 NDo=     1
 LinEq1:  Iter=  3 NonCon=     1 RMS=2.61D-09 Max=6.10D-09 NDo=     1
 LinEq1:  Iter=  4 NonCon=     1 RMS=6.93D-10 Max=1.90D-09 NDo=     1
 LinEq1:  Iter=  5 NonCon=     1 RMS=1.29D-10 Max=3.62D-10 NDo=     1
 LinEq1:  Iter=  6 NonCon=     1 RMS=2.63D-11 Max=8.05D-11 NDo=     1
 LinEq1:  Iter=  7 NonCon=     0 RMS=4.28D-12 Max=1.06D-11 NDo=     1
 Linear equations converged to 1.187D-11 1.187D-10 after     7 iterations.
 Density matrix breaks symmetry, PCut= 1.00D-04
 Density matrix has no symmetry -- integrals replicated.
 Density matrix is not symmetric, so final MOs not symmetrized.
 SCF Done:  E(UHF) =  -4.90347460471     a.u. after    7 cycles
            Convg  =    0.1300D-07                    72 Fock formations.
              S**2 =  1.5080                  -V/T =  1.8772
 <Sx>= 0.0000 <Sy>= 0.0000 <Sz>= 0.0000 <S**2>= 1.5080 S= 0.8259
 <L.S>= 0.000000000000E+00
 Annihilation of the first spin contaminant:
 S**2 before annihilation     1.5080,   after     3.2024
 Range of M.O.s used for correlation:     1    10
 NBasis=    10 NAE=     5 NBE=     5 NFC=     0 NFV=     0
 NROrb=     10 NOA=     5 NOB=     5 NVA=     5 NVB=     5
 Keep R1 and R2 ints in memory in symmetry-blocked form, NReq=802982.
 Orbital symmetries:
 Alpha Orbitals:
       Occupied  (BG) (BG) (BG) (BG) (BG)
       Virtual   (BG) (BG) (BG) (BG) (BG)
 Beta  Orbitals:
       Occupied  (BG) (BG) (BG) (BG) (BG)
       Virtual   (BG) (BG) (BG) (BG) (BG)
    12 initial guesses have been made.
 Convergence on wavefunction:    0.001000000000000
 Iteration     1 Dimension    12 NMult     0 NNew     12
 CISAX will form    12 AO SS matrices at one time.
 Iteration     2 Dimension    24 NMult    12 NNew     12
 Iteration     3 Dimension    27 NMult    24 NNew      3
 Iteration     4 Dimension    30 NMult    27 NNew      3
 Iteration     5 Dimension    33 NMult    30 NNew      3
 Iteration     6 Dimension    36 NMult    33 NNew      3
 ***********************************************************************
 Stability analysis using <AA,BB:AA,BB> singles matrix:
 ***********************************************************************

 Eigenvectors of the stability matrix:
 
 Eigenvector   1:  3.129-AG   Eigenvalue= 0.0225593  <S**2>=2.198
      3A ->  6A        0.18936
      3A ->  7A        0.11906
      5A ->  6A        0.71711
      5A ->  7A        0.38618
      2B ->  9B       -0.10564
      3B ->  6B        0.12555
      3B ->  7B       -0.13718
      3B ->  9B       -0.11168
      4B ->  6B        0.27453
      4B ->  7B       -0.13908
      5B ->  6B       -0.18425
 SavETr:  write IOETrn=   770 NScale= 10 NData=  16 NLR=1 NState=    1 LETran=      28.
 The wavefunction is stable under the perturbations considered.
 The wavefunction is already stable.

 **********************************************************************

            Population analysis using the SCF density.

 **********************************************************************

 Orbital symmetries:
 Alpha Orbitals:
       Occupied  (BG) (BG) (BG) (BG) (BG)
       Virtual   (BG) (BG) (BG) (BG) (BG)
 Beta  Orbitals:
       Occupied  (BG) (BG) (BG) (BG) (BG)
       Virtual   (BG) (BG) (BG) (BG) (BG)
 Unable to determine electronic state:  partially filled degenerate orbitals.
 Alpha  occ. eigenvalues --   -0.79818  -0.72206  -0.58784  -0.43919  -0.28315
 Alpha virt. eigenvalues --    0.10873   0.21352   0.23783   0.43545   0.59829
  Beta  occ. eigenvalues --   -0.80077  -0.71285  -0.58912  -0.42231  -0.30731
  Beta virt. eigenvalues --    0.11583   0.22772   0.26923   0.39300   0.60677
          Condensed to atoms (all electrons):
               1          2          3          4          5          6
     1  H    1.271873  -0.184991   0.015973  -0.035519   0.011567   0.000328
     2  H   -0.184991   1.039292   0.390649  -0.070082  -0.163636   0.013911
     3  H    0.015973   0.390649   0.654965  -0.085605  -0.067009  -0.010880
     4  H   -0.035519  -0.070082  -0.085605   1.034122   0.375684  -0.115751
     5  H    0.011567  -0.163636  -0.067009   0.375684   1.139772  -0.172124
     6  H    0.000328   0.013911  -0.010880  -0.115751  -0.172124   1.025778
     7  H    0.001801   0.003892   0.003125  -0.143180  -0.096977   0.507283
     8  H   -0.000124   0.000658   0.000401   0.011038  -0.012522  -0.117318
     9  H   -0.000049  -0.000328   0.000339   0.009575   0.007003  -0.132558
    10  H    0.000006  -0.000062   0.000022  -0.000958   0.002458  -0.002292
               7          8          9         10
     1  H    0.001801  -0.000124  -0.000049   0.000006
     2  H    0.003892   0.000658  -0.000328  -0.000062
     3  H    0.003125   0.000401   0.000339   0.000022
     4  H   -0.143180   0.011038   0.009575  -0.000958
     5  H   -0.096977  -0.012522   0.007003   0.002458
     6  H    0.507283  -0.117318  -0.132558  -0.002292
     7  H    0.986216  -0.125193  -0.183372   0.007921
     8  H   -0.125193   0.792046   0.538947  -0.153326
     9  H   -0.183372   0.538947   0.905779  -0.134664
    10  H    0.007921  -0.153326  -0.134664   1.362038
          Atomic-Atomic Spin Densities.
               1          2          3          4          5          6
     1  H   -1.176918   0.252508   0.096249  -0.000454  -0.021210   0.000579
     2  H    0.252508  -0.695883   0.001585  -0.080064   0.123226  -0.017141
     3  H    0.096249   0.001585   0.353573  -0.130128  -0.031048   0.005678
     4  H   -0.000454  -0.080064  -0.130128   0.797015   0.034081  -0.009875
     5  H   -0.021210   0.123226  -0.031048   0.034081  -0.868838   0.191988
     6  H    0.000579  -0.017141   0.005678  -0.009875   0.191988  -0.604681
     7  H    0.000570   0.001115   0.011883  -0.111096   0.045328   0.017528
     8  H   -0.000001  -0.000435  -0.000545   0.014144   0.000066  -0.042192
     9  H   -0.000042   0.000399  -0.000551   0.006978  -0.015434   0.034151
    10  H    0.000004   0.000025  -0.000011  -0.001417  -0.000095   0.020525
               7          8          9         10
     1  H    0.000570  -0.000001  -0.000042   0.000004
     2  H    0.001115  -0.000435   0.000399   0.000025
     3  H    0.011883  -0.000545  -0.000551  -0.000011
     4  H   -0.111096   0.014144   0.006978  -0.001417
     5  H    0.045328   0.000066  -0.015434  -0.000095
     6  H    0.017528  -0.042192   0.034151   0.020525
     7  H    0.642808  -0.113980  -0.084677   0.019036
     8  H   -0.113980   0.311309   0.149148  -0.202279
     9  H   -0.084677   0.149148   0.060273  -0.224557
    10  H    0.019036  -0.202279  -0.224557   1.302218
 Mulliken charges and spin densities:
               1          2
     1  H   -0.080865  -0.848715
     2  H   -0.029303  -0.414665
     3  H    0.098020   0.306685
     4  H    0.020677   0.519183
     5  H   -0.024214  -0.541936
     6  H    0.003622  -0.403440
     7  H    0.038485   0.428515
     8  H    0.065392   0.115234
     9  H   -0.010670  -0.074313
    10  H   -0.081144   0.913449
 Sum of Mulliken charges =   0.00000  -0.00000
 Mulliken charges and spin densities with hydrogens summed into heavy atoms:
               1          2
 Electronic spatial extent (au):  <R**2>=            185.5023
 Charge=              0.0000 electrons
 Dipole moment (field-independent basis, Debye):
    X=             -0.0891    Y=              0.0237    Z=              0.0000  Tot=              0.0922
 Quadrupole moment (field-independent basis, Debye-Ang):
   XX=            -15.2558   YY=            -21.1852   ZZ=            -12.6033
   XY=             -5.9800   XZ=              0.0000   YZ=             -0.0000
 Traceless Quadrupole moment (field-independent basis, Debye-Ang):
   XX=              1.0923   YY=             -4.8371   ZZ=              3.7448
   XY=             -5.9800   XZ=              0.0000   YZ=             -0.0000
 Octapole moment (field-independent basis, Debye-Ang**2):
  XXX=             -0.5060  YYY=              1.0358  ZZZ=              0.0000  XYY=              1.8773
  XXY=              1.0292  XXZ=              0.0000  XZZ=             -0.0690  YZZ=             -0.1155
  YYZ=              0.0000  XYZ=              0.0000
 Hexadecapole moment (field-independent basis, Debye-Ang**3):
 XXXX=           -137.1655 YYYY=           -340.0765 ZZZZ=            -15.0263 XXXY=            -93.2360
 XXXZ=              0.0000 YYYX=           -135.0166 YYYZ=             -0.0000 ZZZX=              0.0000
 ZZZY=              0.0000 XXYY=            -96.8617 XXZZ=            -24.1709 YYZZ=            -42.7857
 XXYZ=             -0.0000 YYXZ=             -0.0000 ZZXY=            -24.9530
 N-N= 1.210972394120D+01 E-N=-3.395370169526D+01  KE= 5.590094594200D+00
 Symmetry AG   KE= 2.407028937497D+00
 Symmetry BG   KE= 0.000000000000D+00
 Symmetry AU   KE= 0.000000000000D+00
 Symmetry BU   KE= 3.183065656703D+00
                          Isotropic Fermi Contact Couplings
        Atom                 a.u.       MegaHertz       Gauss      10(-4) cm-1
     1  H(1)              -0.33109    -739.97704    -264.04220    -246.82977
     2  H(1)              -0.18828    -420.79582    -150.15041    -140.36238
     3  H(1)               0.10155     226.95355      80.98267      75.70355
     4  H(1)               0.22021     492.14994     175.61133     164.16355
     5  H(1)              -0.23305    -520.85191    -185.85291    -173.73750
     6  H(1)              -0.16515    -369.09444    -131.70207    -123.11665
     7  H(1)               0.17787     397.53473     141.85027     132.60331
     8  H(1)               0.08418     188.14750      67.13570      62.75925
     9  H(1)               0.01407      31.44507      11.22038      10.48895
    10  H(1)               0.36324     811.82292     289.67859     270.79498
 --------------------------------------------------------
       Center         ----  Spin Dipole Couplings  ----
                      3XX-RR        3YY-RR        3ZZ-RR
 --------------------------------------------------------
     1   Atom        0.008270      0.005195     -0.013465
     2   Atom        0.053476     -0.036351     -0.017125
     3   Atom       -0.097977      0.012455      0.085522
     4   Atom       -0.092754      0.000378      0.092376
     5   Atom        0.101179     -0.028703     -0.072477
     6   Atom        0.101467     -0.036327     -0.065140
     7   Atom       -0.063698      0.012687      0.051011
     8   Atom       -0.012784      0.035365     -0.022581
     9   Atom        0.007948      0.048229     -0.056178
    10   Atom        0.008393     -0.022492      0.014099
 --------------------------------------------------------
                        XY            XZ            YZ
 --------------------------------------------------------
     1   Atom        0.029426     -0.000000     -0.000000
     2   Atom       -0.018406     -0.000000      0.000000
     3   Atom       -0.023883      0.000000      0.000000
     4   Atom        0.004917      0.000000     -0.000000
     5   Atom       -0.022120     -0.000000      0.000000
     6   Atom       -0.000055      0.000000     -0.000000
     7   Atom        0.026734     -0.000000      0.000000
     8   Atom       -0.007737     -0.000000      0.000000
     9   Atom       -0.008631      0.000000     -0.000000
    10   Atom       -0.001537     -0.000000     -0.000000
 --------------------------------------------------------


 ---------------------------------------------------------------------------------
              Anisotropic Spin Dipole Couplings in Principal Axis System
 ---------------------------------------------------------------------------------

       Atom             a.u.   MegaHertz   Gauss  10(-4) cm-1        Axes

              Baa    -0.0227   -12.130    -4.328    -4.046 -0.6884  0.7253 -0.0000
     1 H(1)   Bbb    -0.0135    -7.184    -2.563    -2.396  0.0000  0.0000  1.0000
              Bcc     0.0362    19.314     6.892     6.442  0.7253  0.6884  0.0000
 
              Baa    -0.0400   -21.329    -7.611    -7.115  0.1932  0.9812  0.0000
     2 H(1)   Bbb    -0.0171    -9.137    -3.260    -3.048  0.0000  0.0000  1.0000
              Bcc     0.0571    30.466    10.871    10.162  0.9812 -0.1932  0.0000
 
              Baa    -0.1029   -54.914   -19.595   -18.317  0.9792  0.2027  0.0000
     3 H(1)   Bbb     0.0174     9.283     3.313     3.097 -0.2027  0.9792  0.0000
              Bcc     0.0855    45.630    16.282    15.221  0.0000  0.0000  1.0000
 
              Baa    -0.0930   -49.627   -17.708   -16.554  0.9986 -0.0526  0.0000
     4 H(1)   Bbb     0.0006     0.340     0.121     0.113  0.0526  0.9986  0.0000
              Bcc     0.0924    49.288    17.587    16.441  0.0000  0.0000  1.0000
 
              Baa    -0.0725   -38.670   -13.798   -12.899  0.0000  0.0000  1.0000
     5 H(1)   Bbb    -0.0324   -17.269    -6.162    -5.760  0.1634  0.9866  0.0000
              Bcc     0.1048    55.939    19.961    18.659  0.9866 -0.1634  0.0000
 
              Baa    -0.0651   -34.755   -12.402   -11.593  0.0000  0.0000  1.0000
     6 H(1)   Bbb    -0.0363   -19.382    -6.916    -6.465  0.0004  1.0000  0.0000
              Bcc     0.1015    54.138    19.318    18.058  1.0000 -0.0004  0.0000
 
              Baa    -0.0721   -38.483   -13.732   -12.836  0.9537 -0.3006  0.0000
     7 H(1)   Bbb     0.0211    11.265     4.020     3.758  0.3006  0.9537  0.0000
              Bcc     0.0510    27.217     9.712     9.079  0.0000  0.0000  1.0000
 
              Baa    -0.0226   -12.048    -4.299    -4.019  0.0000  0.0000  1.0000
     8 H(1)   Bbb    -0.0140    -7.468    -2.665    -2.491  0.9879  0.1548  0.0000
              Bcc     0.0366    19.516     6.964     6.510 -0.1548  0.9879  0.0000
 
              Baa    -0.0562   -29.974   -10.695    -9.998  0.0000  0.0000  1.0000
     9 H(1)   Bbb     0.0062     3.296     1.176     1.099  0.9796  0.2010  0.0000
              Bcc     0.0500    26.678     9.519     8.899 -0.2010  0.9796  0.0000
 
              Baa    -0.0226   -12.041    -4.297    -4.017  0.0496  0.9988  0.0000
    10 H(1)   Bbb     0.0085     4.519     1.612     1.507  0.9988 -0.0496  0.0000
              Bcc     0.0141     7.523     2.684     2.509  0.0000  0.0000  1.0000
 

 ---------------------------------------------------------------------------------


 Test job not archived.
 1\1\GINC-SULU\Stability\UHF\Gen\H10\LCJ1\28-Feb-2017\0\\#rhf/gen scf(s
 ymm,tight,novaracc,noincfock,fulldiag) stable=opt guess=read geom=nocr
 owd test\\hf stability analysis of h10 triangular lattice, y= 1.285798
 3717814927\\0,1\H\H,1,1.3619460968\H,1,1.3619460968,2,38.5\H,2,1.36194
 60968,1,141.5,3,0.,0\H,3,1.3619460968,1,180.,2,0.,0\H,4,1.3619460968,2
 ,180.,1,0.,0\H,5,1.3619460968,3,180.,2,0.,0\H,6,1.3619460968,4,180.,1,
 0.,0\H,7,1.3619460968,5,180.,2,0.,0\H,8,1.3619460968,6,180.,1,0.,0\\Ve
 rsion=ES64L-G09RevE.01\State=1-AG\HF=-4.9034746\S2=1.508046\S2-1=0.\S2
 A=3.202433\RMSD=1.231e-09\Dipole=0.0350697,0.,-0.0093305\Quadrupole=0.
 8120731,2.784182,-3.5962551,0.,-4.4459696,0.\PG=C02H [SGH(H10)]\\@


 A successful marriage requires falling in love
 many times, always with the same person.
                           -- Mignon McLaughlin
 Job cpu time:       0 days  0 hours  0 minutes  1.6 seconds.
 File lengths (MBytes):  RWF=     77 Int=      0 D2E=      0 Chk=      2 Scr=      2
 Normal termination of Gaussian 09 at Tue Feb 28 18:08:11 2017.
