 Entering Gaussian System, Link 0=g09
 AtFile(1): H.gbs
            H     0
            S   10   1.00
               1000.000000000000            0.000068713567
                316.227766000000            0.000169141320
                100.000000000000            0.000823394812
                 31.622776600000            0.003425569236
                 10.000000000000            0.013951996000
                  3.162277660000            0.056909313560
                  1.000000000000            0.198286399900
                  0.316227766000            0.496922426700
                  0.100000000000            0.369846276400
                  0.031622776600            0.003752720039
            ****
 Initial command:
 /projects/guscus/apps/gau/g09-e1/g09/l1.exe "/users/lcj1/gaussian/h10/2rows_uhf/singlet/stableopt/Gau-3237.inp" -scrdir="/users/lcj1/gaussian/h10/2rows_uhf/singlet/stableopt/"
 Entering Link 1 = /projects/guscus/apps/gau/g09-e1/g09/l1.exe PID=      3238.
  
 Copyright (c) 1988,1990,1992,1993,1995,1998,2003,2009,2015,
            Gaussian, Inc.  All Rights Reserved.
  
 This is part of the Gaussian(R) 09 program.  It is based on
 the Gaussian(R) 03 system (copyright 2003, Gaussian, Inc.),
 the Gaussian(R) 98 system (copyright 1998, Gaussian, Inc.),
 the Gaussian(R) 94 system (copyright 1995, Gaussian, Inc.),
 the Gaussian 92(TM) system (copyright 1992, Gaussian, Inc.),
 the Gaussian 90(TM) system (copyright 1990, Gaussian, Inc.),
 the Gaussian 88(TM) system (copyright 1988, Gaussian, Inc.),
 the Gaussian 86(TM) system (copyright 1986, Carnegie Mellon
 University), and the Gaussian 82(TM) system (copyright 1983,
 Carnegie Mellon University). Gaussian is a federally registered
 trademark of Gaussian, Inc.
  
 This software contains proprietary and confidential information,
 including trade secrets, belonging to Gaussian, Inc.
  
 This software is provided under written license and may be
 used, copied, transmitted, or stored only in accord with that
 written license.
  
 The following legend is applicable only to US Government
 contracts under FAR:
  
                    RESTRICTED RIGHTS LEGEND
  
 Use, reproduction and disclosure by the US Government is
 subject to restrictions as set forth in subparagraphs (a)
 and (c) of the Commercial Computer Software - Restricted
 Rights clause in FAR 52.227-19.
  
 Gaussian, Inc.
 340 Quinnipiac St., Bldg. 40, Wallingford CT 06492
  
  
 ---------------------------------------------------------------
 Warning -- This program may not be used in any manner that
 competes with the business of Gaussian, Inc. or will provide
 assistance to any competitor of Gaussian, Inc.  The licensee
 of this program is prohibited from giving any competitor of
 Gaussian, Inc. access to this program.  By using this program,
 the user acknowledges that Gaussian, Inc. is engaged in the
 business of creating and licensing software in the field of
 computational chemistry and represents and warrants to the
 licensee that it is not a competitor of Gaussian, Inc. and that
 it will not use this program in any manner prohibited above.
 ---------------------------------------------------------------
  

 Cite this work as:
 Gaussian 09, Revision E.01,
 M. J. Frisch, G. W. Trucks, H. B. Schlegel, G. E. Scuseria, 
 M. A. Robb, J. R. Cheeseman, G. Scalmani, V. Barone, B. Mennucci, 
 G. A. Petersson, H. Nakatsuji, M. Caricato, X. Li, H. P. Hratchian, 
 A. F. Izmaylov, J. Bloino, G. Zheng, J. L. Sonnenberg, M. Hada, 
 M. Ehara, K. Toyota, R. Fukuda, J. Hasegawa, M. Ishida, T. Nakajima, 
 Y. Honda, O. Kitao, H. Nakai, T. Vreven, J. A. Montgomery, Jr., 
 J. E. Peralta, F. Ogliaro, M. Bearpark, J. J. Heyd, E. Brothers, 
 K. N. Kudin, V. N. Staroverov, T. Keith, R. Kobayashi, J. Normand, 
 K. Raghavachari, A. Rendell, J. C. Burant, S. S. Iyengar, J. Tomasi, 
 M. Cossi, N. Rega, J. M. Millam, M. Klene, J. E. Knox, J. B. Cross, 
 V. Bakken, C. Adamo, J. Jaramillo, R. Gomperts, R. E. Stratmann, 
 O. Yazyev, A. J. Austin, R. Cammi, C. Pomelli, J. W. Ochterski, 
 R. L. Martin, K. Morokuma, V. G. Zakrzewski, G. A. Voth, 
 P. Salvador, J. J. Dannenberg, S. Dapprich, A. D. Daniels, 
 O. Farkas, J. B. Foresman, J. V. Ortiz, J. Cioslowski, 
 and D. J. Fox, Gaussian, Inc., Wallingford CT, 2013.
 
 ******************************************
 Gaussian 09:  ES64L-G09RevE.01 30-Nov-2015
                28-Feb-2017 
 ******************************************
 %chk=h10.chk
 ----------------------------------------------------------------------
 #rhf/gen scf(symm,tight,novaracc,noincfock,fulldiag) stable=opt guess=
 read geom=nocrowd test
 ----------------------------------------------------------------------
 1/38=1/1;
 2/12=1,17=6,18=5,40=1/2;
 3/5=7,11=2,16=1,25=1,30=1,116=1/1,2,3;
 4/5=1,9=4/1;
 5/5=100002,15=2,16=1,32=2,38=6/2;
 6/7=2,8=2,9=2,10=2,28=1/1;
 8/6=1,10=90,11=11/1;
 9/8=-3,42=1,46=1/14;
 5/5=100002,8=3,16=1,17=40,32=2,38=6/8(-2);
 6/7=2,8=2,9=2,10=2,28=1/1;
 99/5=1,9=1/99;
 ----------------------------------------------------------------------
 hf stability analysis of h10 triangular lattice, y= 1.5973482699307082
 ----------------------------------------------------------------------
 Symbolic Z-matrix:
 Charge =  0 Multiplicity = 1
 H
 H                    1     1.63773 
 H                    1     1.63773  2     25.5 
 H                    2     1.63773  1     154.5    3     0.       0
 H                    3     1.63773  1     180.     2     0.       0
 H                    4     1.63773  2     180.     1     0.       0
 H                    5     1.63773  3     180.     2     0.       0
 H                    6     1.63773  4     180.     1     0.       0
 H                    7     1.63773  5     180.     2     0.       0
 H                    8     1.63773  6     180.     1     0.       0
 
                          Input orientation:                          
 ---------------------------------------------------------------------
 Center     Atomic      Atomic             Coordinates (Angstroms)
 Number     Number       Type             X           Y           Z
 ---------------------------------------------------------------------
      1          1           0        0.000000    0.000000    0.000000
      2          1           0        0.000000    0.000000    1.637731
      3          1           0        0.705061    0.000000    1.478192
      4          1           0        0.705061    0.000000    3.115923
      5          1           0        1.410123    0.000000    2.956384
      6          1           0        1.410123    0.000000    4.594115
      7          1           0        2.115184    0.000000    4.434575
      8          1           0        2.115184    0.000000    6.072306
      9          1           0        2.820245    0.000000    5.912767
     10          1           0        2.820245    0.000000    7.550498
 ---------------------------------------------------------------------
                    Distance matrix (angstroms):
                    1          2          3          4          5
     1  H    0.000000
     2  H    1.637731   0.000000
     3  H    1.637731   0.722886   0.000000
     4  H    3.194697   1.637731   1.637731   0.000000
     5  H    3.275462   1.930619   1.637731   0.722886   0.000000
     6  H    4.805656   3.275462   3.194697   1.637731   1.637731
     7  H    4.913193   3.506614   3.275462   1.930619   1.637731
     8  H    6.430156   4.913193   4.805656   3.275462   3.194697
     9  H    6.550924   5.121496   4.913193   3.506614   3.275462
    10  H    8.060013   6.550924   6.430156   4.913193   4.805656
                    6          7          8          9         10
     6  H    0.000000
     7  H    0.722886   0.000000
     8  H    1.637731   1.637731   0.000000
     9  H    1.930619   1.637731   0.722886   0.000000
    10  H    3.275462   3.194697   1.637731   1.637731   0.000000
 Stoichiometry    H10
 Framework group  C2H[SGH(H10)]
 Deg. of freedom     9
 Full point group                 C2H     NOp   4
 Largest Abelian subgroup         C2H     NOp   4
 Largest concise Abelian subgroup C2      NOp   2
                         Standard orientation:                         
 ---------------------------------------------------------------------
 Center     Atomic      Atomic             Coordinates (Angstroms)
 Number     Number       Type             X           Y           Z
 ---------------------------------------------------------------------
      1          1           0        1.410123    3.775249    0.000000
      2          1           0        1.410123    2.137518    0.000000
      3          1           0        0.705061    2.297057    0.000000
      4          1           0        0.705061    0.659326    0.000000
      5          1           0       -0.000000    0.818865   -0.000000
      6          1           0       -0.000000   -0.818865    0.000000
      7          1           0       -0.705061   -0.659326    0.000000
      8          1           0       -0.705061   -2.297057    0.000000
      9          1           0       -1.410123   -2.137518    0.000000
     10          1           0       -1.410123   -3.775249    0.000000
 ---------------------------------------------------------------------
 Rotational constants (GHZ):    445.4647389      8.4672405      8.3093002
 General basis read from cards:  (5D, 7F)
 There are     5 symmetry adapted cartesian basis functions of AG  symmetry.
 There are     0 symmetry adapted cartesian basis functions of BG  symmetry.
 There are     0 symmetry adapted cartesian basis functions of AU  symmetry.
 There are     5 symmetry adapted cartesian basis functions of BU  symmetry.
 There are     5 symmetry adapted basis functions of AG  symmetry.
 There are     0 symmetry adapted basis functions of BG  symmetry.
 There are     0 symmetry adapted basis functions of AU  symmetry.
 There are     5 symmetry adapted basis functions of BU  symmetry.
    10 basis functions,   100 primitive gaussians,    10 cartesian basis functions
     5 alpha electrons        5 beta electrons
       nuclear repulsion energy        11.1409691367 Hartrees.
 NAtoms=   10 NActive=   10 NUniq=    5 SFac= 4.00D+00 NAtFMM=   60 NAOKFM=F Big=F
 Integral buffers will be    131072 words long.
 Raffenetti 2 integral format.
 Two-electron integral symmetry is turned on.
 One-electron integrals computed using PRISM.
 NBasis=    10 RedAO= T EigKep=  1.64D-01  NBF=     5     0     0     5
 NBsUse=    10 1.00D-06 EigRej= -1.00D+00 NBFU=     5     0     0     5
 Initial guess from the checkpoint file:  "h10.chk"
 B after Tr=    -0.000000    0.000000    0.000000
         Rot=    0.994768   -0.000000   -0.000000   -0.102159 Ang= -11.73 deg.
 Initial guess orbital symmetries:
       Occupied  (AG) (BU) (AG) (BU) (BU)
       Virtual   (AG) (BU) (AG) (BU) (AG)
 Keep R1 ints in memory in symmetry-blocked form, NReq=874303.
 Requested convergence on RMS density matrix=1.00D-08 within 128 cycles.
 Requested convergence on MAX density matrix=1.00D-06.
 Requested convergence on             energy=1.00D-06.
 No special actions if energy rises.
 SCF Done:  E(RHF) =  -4.90288148687     A.U. after   12 cycles
            NFock= 12  Conv=0.29D-08     -V/T= 1.9558

 **********************************************************************

            Population analysis using the SCF density.

 **********************************************************************

 Orbital symmetries:
       Occupied  (AG) (BU) (AG) (BU) (BU)
       Virtual   (AG) (BU) (AG) (BU) (AG)
 The electronic state is 1-AG.
 Alpha  occ. eigenvalues --   -0.75120  -0.70016  -0.61388  -0.51041  -0.16239
 Alpha virt. eigenvalues --   -0.09970   0.25308   0.34990   0.49911   0.64862
          Condensed to atoms (all electrons):
               1          2          3          4          5          6
     1  H    1.161829  -0.066366  -0.053856   0.000693   0.002825  -0.000434
     2  H   -0.066366   0.687958   0.512969  -0.084827  -0.068772   0.004121
     3  H   -0.053856   0.512969   0.661209  -0.071929  -0.082427   0.003361
     4  H    0.000693  -0.084827  -0.071929   0.744822   0.567313  -0.091628
     5  H    0.002825  -0.068772  -0.082427   0.567313   0.748003  -0.085705
     6  H   -0.000434   0.004121   0.003361  -0.091628  -0.085705   0.748003
     7  H   -0.000191   0.002856   0.002951  -0.070698  -0.091628   0.567313
     8  H    0.000050  -0.000238  -0.000231   0.002951   0.003361  -0.082427
     9  H    0.000046  -0.000202  -0.000238   0.002856   0.004121  -0.068772
    10  H   -0.000014   0.000046   0.000050  -0.000191  -0.000434   0.002825
               7          8          9         10
     1  H   -0.000191   0.000050   0.000046  -0.000014
     2  H    0.002856  -0.000238  -0.000202   0.000046
     3  H    0.002951  -0.000231  -0.000238   0.000050
     4  H   -0.070698   0.002951   0.002856  -0.000191
     5  H   -0.091628   0.003361   0.004121  -0.000434
     6  H    0.567313  -0.082427  -0.068772   0.002825
     7  H    0.744822  -0.071929  -0.084827   0.000693
     8  H   -0.071929   0.661209   0.512969  -0.053856
     9  H   -0.084827   0.512969   0.687958  -0.066366
    10  H    0.000693  -0.053856  -0.066366   1.161829
 Mulliken charges:
               1
     1  H   -0.044580
     2  H    0.012457
     3  H    0.028142
     4  H    0.000638
     5  H    0.003343
     6  H    0.003343
     7  H    0.000638
     8  H    0.028142
     9  H    0.012457
    10  H   -0.044580
 Sum of Mulliken charges =  -0.00000
 Mulliken charges with hydrogens summed into heavy atoms:
               1
 Electronic spatial extent (au):  <R**2>=            250.5419
 Charge=              0.0000 electrons
 Dipole moment (field-independent basis, Debye):
    X=              0.0000    Y=              0.0000    Z=             -0.0000  Tot=              0.0000
 Quadrupole moment (field-independent basis, Debye-Ang):
   XX=            -12.6035   YY=            -21.5965   ZZ=            -12.9206
   XY=             -3.7054   XZ=              0.0000   YZ=              0.0000
 Traceless Quadrupole moment (field-independent basis, Debye-Ang):
   XX=              3.1034   YY=             -5.8896   ZZ=              2.7863
   XY=             -3.7054   XZ=              0.0000   YZ=              0.0000
 Octapole moment (field-independent basis, Debye-Ang**2):
  XXX=              0.0000  YYY=              0.0000  ZZZ=             -0.0000  XYY=             -0.0000
  XXY=             -0.0000  XXZ=             -0.0000  XZZ=              0.0000  YZZ=             -0.0000
  YYZ=             -0.0000  XYZ=             -0.0000
 Hexadecapole moment (field-independent basis, Debye-Ang**3):
 XXXX=            -90.3841 YYYY=           -595.1918 ZZZZ=            -15.6456 XXXY=            -88.5093
 XXXZ=              0.0000 YYYX=           -150.2449 YYYZ=              0.0000 ZZZX=              0.0000
 ZZZY=              0.0000 XXYY=           -107.3067 XXZZ=            -18.1190 YYZZ=            -73.8076
 XXYZ=              0.0000 YYXZ=              0.0000 ZZXY=            -28.4136
 N-N= 1.114096913670D+01 E-N=-3.174118058845D+01  KE= 5.129546320569D+00
 Symmetry AG   KE= 1.558814862089D+00
 Symmetry BG   KE= 0.000000000000D+00
 Symmetry AU   KE= 0.000000000000D+00
 Symmetry BU   KE= 3.570731458479D+00
 Range of M.O.s used for correlation:     1    10
 NBasis=    10 NAE=     5 NBE=     5 NFC=     0 NFV=     0
 NROrb=     10 NOA=     5 NOB=     5 NVA=     5 NVB=     5

 **** Warning!!: The smallest alpha delta epsilon is  0.62685654D-01

 Keep R1 and R2 ints in memory in symmetry-blocked form, NReq=802982.
 Orbital symmetries:
       Occupied  (AG) (BU) (AG) (BU) (BU)
       Virtual   (AG) (BU) (AG) (BU) (AG)
    24 initial guesses have been made.
 Convergence on wavefunction:    0.001000000000000
 Iteration     1 Dimension    24 NMult     0 NNew     24
 CISAX will form    24 AO SS matrices at one time.
 New state      1 was old state      2
 Iteration     2 Dimension    46 NMult    24 NNew     22
 Iteration     3 Dimension    48 NMult    46 NNew      2
 ***********************************************************************
 Stability analysis using <AA,BB:AA,BB> singles matrix:
 ***********************************************************************

 Eigenvectors of the stability matrix:
 
 Eigenvector   1:      Triplet-BU   Eigenvalue=-0.5524216  <S**2>=2.000
       5 ->  6         0.70257
 SavETr:  write IOETrn=   770 NScale= 10 NData=  16 NLR=1 NState=    1 LETran=      28.
 The wavefunction has an RHF -> UHF instability.
 Keep R1 and R2 ints in memory in symmetry-blocked form, NReq=855642.
 The two search directions are symmetric.
 Gradient too large for Newton-Raphson -- use scaled steepest descent instead.
 LinEq1:  Iter=  0 NonCon=     1 RMS=1.41D-03 Max=4.40D-03 NDo=     1
 AX will form     1 AO Fock derivatives at one time.
 LinEq1:  Iter=  1 NonCon=     1 RMS=1.99D-04 Max=6.94D-04 NDo=     1
 LinEq1:  Iter=  2 NonCon=     1 RMS=1.39D-05 Max=3.25D-05 NDo=     1
 LinEq1:  Iter=  3 NonCon=     1 RMS=2.72D-06 Max=7.17D-06 NDo=     1
 LinEq1:  Iter=  4 NonCon=     1 RMS=2.03D-07 Max=4.46D-07 NDo=     1
 LinEq1:  Iter=  5 NonCon=     1 RMS=3.85D-08 Max=7.69D-08 NDo=     1
 LinEq1:  Iter=  6 NonCon=     1 RMS=6.05D-09 Max=1.49D-08 NDo=     1
 LinEq1:  Iter=  7 NonCon=     0 RMS=3.48D-10 Max=8.36D-10 NDo=     1
 Linear equations converged to 1.000D-09 1.000D-08 after     7 iterations.
     Accept linear search using points  1 and  2.
     Minimum is close to point  2 DX= -9.00D-04 DF= -8.63D-11 DXR=  9.00D-04 DFR=  8.11D-07 which will be used.
 LinEq1:  Iter=  0 NonCon=     1 RMS=2.23D-06 Max=8.32D-06 NDo=     1
 LinEq1:  Iter=  1 NonCon=     1 RMS=1.96D-07 Max=5.23D-07 NDo=     1
 LinEq1:  Iter=  2 NonCon=     1 RMS=1.17D-08 Max=2.51D-08 NDo=     1
 LinEq1:  Iter=  3 NonCon=     1 RMS=2.73D-09 Max=6.10D-09 NDo=     1
 LinEq1:  Iter=  4 NonCon=     1 RMS=3.84D-10 Max=1.17D-09 NDo=     1
 LinEq1:  Iter=  5 NonCon=     0 RMS=2.51D-11 Max=6.06D-11 NDo=     1
 Linear equations converged to 1.064D-10 1.064D-09 after     5 iterations.
 Density matrix breaks symmetry, PCut= 1.00D-04
 Density matrix has no symmetry -- integrals replicated.
 Density matrix is not symmetric, so final MOs not symmetrized.
 SCF Done:  E(UHF) =  -5.18375890864     a.u. after    4 cycles
            Convg  =    0.1653D-08                    31 Fock formations.
              S**2 =  1.0000                  -V/T =  2.0037
 <Sx>= 0.0000 <Sy>= 0.0000 <Sz>= 0.0000 <S**2>= 1.0000 S= 0.6180
 <L.S>= 0.000000000000E+00
 Annihilation of the first spin contaminant:
 S**2 before annihilation     1.0000,   after     0.0006
 Range of M.O.s used for correlation:     1    10
 NBasis=    10 NAE=     5 NBE=     5 NFC=     0 NFV=     0
 NROrb=     10 NOA=     5 NOB=     5 NVA=     5 NVB=     5
 Keep R1 and R2 ints in memory in symmetry-blocked form, NReq=802982.
 Orbital symmetries:
 Alpha Orbitals:
       Occupied  (BG) (BG) (BG) (BG) (BG)
       Virtual   (BG) (BG) (BG) (BG) (BG)
 Beta  Orbitals:
       Occupied  (BG) (BG) (BG) (BG) (BG)
       Virtual   (BG) (BG) (BG) (BG) (BG)
    12 initial guesses have been made.
 Convergence on wavefunction:    0.001000000000000
 Iteration     1 Dimension    12 NMult     0 NNew     12
 CISAX will form    12 AO SS matrices at one time.
 Iteration     2 Dimension    24 NMult    12 NNew     12
 Iteration     3 Dimension    27 NMult    24 NNew      3
 Iteration     4 Dimension    30 NMult    27 NNew      3
 Iteration     5 Dimension    33 NMult    30 NNew      3
 ***********************************************************************
 Stability analysis using <AA,BB:AA,BB> singles matrix:
 ***********************************************************************

 Eigenvectors of the stability matrix:
 
 Eigenvector   1:  3.550-AG   Eigenvalue= 0.2220663  <S**2>=2.900
      1A -> 10A       -0.17015
      2A ->  9A       -0.15379
      3A ->  8A       -0.21654
      4A ->  7A        0.45544
      4A ->  9A        0.10101
      5A ->  7A       -0.36477
      1B -> 10B        0.17015
      2B ->  9B        0.15379
      3B ->  8B        0.21654
      4B ->  7B       -0.45544
      4B ->  9B       -0.10101
      5B ->  7B        0.36477
 SavETr:  write IOETrn=   770 NScale= 10 NData=  16 NLR=1 NState=    1 LETran=      28.
 The wavefunction is stable under the perturbations considered.
 The wavefunction is already stable.

 **********************************************************************

            Population analysis using the SCF density.

 **********************************************************************

 Orbital symmetries:
 Alpha Orbitals:
       Occupied  (BG) (BG) (BG) (BG) (BG)
       Virtual   (BG) (BG) (BG) (BG) (BG)
 Beta  Orbitals:
       Occupied  (BG) (BG) (BG) (BG) (BG)
       Virtual   (BG) (BG) (BG) (BG) (BG)
 Unable to determine electronic state:  partially filled degenerate orbitals.
 Alpha  occ. eigenvalues --   -0.74572  -0.69705  -0.61584  -0.51472  -0.42419
 Alpha virt. eigenvalues --    0.17658   0.26063   0.35787   0.50698   0.65648
  Beta  occ. eigenvalues --   -0.74572  -0.69705  -0.61584  -0.51472  -0.42419
  Beta virt. eigenvalues --    0.17658   0.26063   0.35787   0.50698   0.65648
          Condensed to atoms (all electrons):
               1          2          3          4          5          6
     1  H    1.151883  -0.075084  -0.070605   0.001056   0.002098   0.000009
     2  H   -0.075084   0.701250   0.527377  -0.085857  -0.068052   0.002635
     3  H   -0.070605   0.527377   0.684583  -0.073572  -0.082565   0.001892
     4  H    0.001056  -0.085857  -0.073572   0.745874   0.566683  -0.089221
     5  H    0.002098  -0.068052  -0.082565   0.566683   0.743687  -0.079758
     6  H    0.000009   0.002635   0.001892  -0.089221  -0.079758   0.743687
     7  H   -0.000017   0.002410   0.002415  -0.070606  -0.089221   0.566683
     8  H   -0.000001  -0.000033  -0.000010   0.002415   0.001892  -0.082565
     9  H   -0.000000  -0.000043  -0.000033   0.002410   0.002635  -0.068052
    10  H    0.000000  -0.000000  -0.000001  -0.000017   0.000009   0.002098
               7          8          9         10
     1  H   -0.000017  -0.000001  -0.000000   0.000000
     2  H    0.002410  -0.000033  -0.000043  -0.000000
     3  H    0.002415  -0.000010  -0.000033  -0.000001
     4  H   -0.070606   0.002415   0.002410  -0.000017
     5  H   -0.089221   0.001892   0.002635   0.000009
     6  H    0.566683  -0.082565  -0.068052   0.002098
     7  H    0.745874  -0.073572  -0.085857   0.001056
     8  H   -0.073572   0.684583   0.527377  -0.070605
     9  H   -0.085857   0.527377   0.701250  -0.075084
    10  H    0.001056  -0.070605  -0.075084   1.151883
          Atomic-Atomic Spin Densities.
               1          2          3          4          5          6
     1  H   -1.149004   0.085183   0.080157  -0.002921  -0.003737   0.000064
     2  H    0.085183  -0.063903  -0.041203   0.004168   0.005725  -0.000145
     3  H    0.080157  -0.041203  -0.044486   0.003240   0.006719  -0.000138
     4  H   -0.002921   0.004168   0.003240   0.004918  -0.003445  -0.001275
     5  H   -0.003737   0.005725   0.006719  -0.003445  -0.014704   0.000000
     6  H    0.000064  -0.000145  -0.000138  -0.001275   0.000000   0.014704
     7  H    0.000080  -0.000198  -0.000232  -0.000000   0.001275   0.003445
     8  H   -0.000001  -0.000002   0.000000   0.000232   0.000138  -0.006719
     9  H   -0.000001   0.000000   0.000002   0.000198   0.000145  -0.005725
    10  H    0.000000   0.000001   0.000001  -0.000080  -0.000064   0.003737
               7          8          9         10
     1  H    0.000080  -0.000001  -0.000001   0.000000
     2  H   -0.000198  -0.000002   0.000000   0.000001
     3  H   -0.000232   0.000000   0.000002   0.000001
     4  H   -0.000000   0.000232   0.000198  -0.000080
     5  H    0.001275   0.000138   0.000145  -0.000064
     6  H    0.003445  -0.006719  -0.005725   0.003737
     7  H   -0.004918  -0.003240  -0.004168   0.002921
     8  H   -0.003240   0.044486   0.041203  -0.080157
     9  H   -0.004168   0.041203   0.063903  -0.085183
    10  H    0.002921  -0.080157  -0.085183   1.149004
 Mulliken charges and spin densities:
               1          2
     1  H   -0.009338  -0.990181
     2  H   -0.004604  -0.010373
     3  H    0.010517   0.004060
     4  H    0.000834   0.005035
     5  H    0.002591  -0.007948
     6  H    0.002591   0.007948
     7  H    0.000834  -0.005035
     8  H    0.010517  -0.004060
     9  H   -0.004604   0.010373
    10  H   -0.009338   0.990181
 Sum of Mulliken charges =   0.00000   0.00000
 Mulliken charges and spin densities with hydrogens summed into heavy atoms:
               1          2
 Electronic spatial extent (au):  <R**2>=            248.0936
 Charge=              0.0000 electrons
 Dipole moment (field-independent basis, Debye):
    X=              0.0000    Y=              0.0000    Z=             -0.0000  Tot=              0.0000
 Quadrupole moment (field-independent basis, Debye-Ang):
   XX=            -12.3081   YY=            -18.6474   ZZ=            -12.8719
   XY=             -2.7703   XZ=              0.0000   YZ=              0.0000
 Traceless Quadrupole moment (field-independent basis, Debye-Ang):
   XX=              2.3010   YY=             -4.0383   ZZ=              1.7372
   XY=             -2.7703   XZ=              0.0000   YZ=              0.0000
 Octapole moment (field-independent basis, Debye-Ang**2):
  XXX=             -0.0000  YYY=              0.0000  ZZZ=             -0.0000  XYY=             -0.0000
  XXY=             -0.0000  XXZ=             -0.0000  XZZ=              0.0000  YZZ=              0.0000
  YYZ=             -0.0000  XYZ=             -0.0000
 Hexadecapole moment (field-independent basis, Debye-Ang**3):
 XXXX=            -88.8823 YYYY=           -540.0522 ZZZZ=            -15.5364 XXXY=            -85.2035
 XXXZ=              0.0000 YYYX=           -131.6579 YYYZ=              0.0000 ZZZX=              0.0000
 ZZZY=              0.0000 XXYY=            -99.7868 XXZZ=            -17.9467 YYZZ=            -72.5318
 XXYZ=              0.0000 YYXZ=              0.0000 ZZXY=            -27.9868
 N-N= 1.114096913670D+01 E-N=-3.181930957222D+01  KE= 5.164903578518D+00
 Symmetry AG   KE= 2.242465128650D+00
 Symmetry BG   KE= 0.000000000000D+00
 Symmetry AU   KE= 0.000000000000D+00
 Symmetry BU   KE= 2.922438449868D+00
                          Isotropic Fermi Contact Couplings
        Atom                 a.u.       MegaHertz       Gauss      10(-4) cm-1
     1  H(1)              -0.34483    -770.67096    -274.99455    -257.06816
     2  H(1)              -0.02049     -45.78562     -16.33745     -15.27244
     3  H(1)              -0.01500     -33.52161     -11.96134     -11.18160
     4  H(1)               0.00114       2.54870       0.90944       0.85016
     5  H(1)              -0.00423      -9.44575      -3.37048      -3.15076
     6  H(1)               0.00423       9.44575       3.37048       3.15076
     7  H(1)              -0.00114      -2.54870      -0.90944      -0.85016
     8  H(1)               0.01500      33.52161      11.96134      11.18160
     9  H(1)               0.02049      45.78562      16.33745      15.27244
    10  H(1)               0.34483     770.67096     274.99455     257.06816
 --------------------------------------------------------
       Center         ----  Spin Dipole Couplings  ----
                      3XX-RR        3YY-RR        3ZZ-RR
 --------------------------------------------------------
     1   Atom       -0.005412      0.013307     -0.007895
     2   Atom        0.008841     -0.036021      0.027180
     3   Atom       -0.003057     -0.026250      0.029308
     4   Atom        0.000785     -0.006761      0.005976
     5   Atom        0.000779     -0.003656      0.002876
     6   Atom       -0.000779      0.003656     -0.002876
     7   Atom       -0.000785      0.006761     -0.005976
     8   Atom        0.003057      0.026250     -0.029308
     9   Atom       -0.008841      0.036021     -0.027180
    10   Atom        0.005412     -0.013307      0.007895
 --------------------------------------------------------
                        XY            XZ            YZ
 --------------------------------------------------------
     1   Atom        0.004657     -0.000000      0.000000
     2   Atom        0.000272     -0.000000      0.000000
     3   Atom       -0.015181     -0.000000      0.000000
     4   Atom       -0.001814     -0.000000     -0.000000
     5   Atom       -0.004803     -0.000000     -0.000000
     6   Atom        0.004803     -0.000000     -0.000000
     7   Atom        0.001814     -0.000000     -0.000000
     8   Atom        0.015181     -0.000000     -0.000000
     9   Atom       -0.000272     -0.000000     -0.000000
    10   Atom       -0.004657      0.000000      0.000000
 --------------------------------------------------------


 ---------------------------------------------------------------------------------
              Anisotropic Spin Dipole Couplings in Principal Axis System
 ---------------------------------------------------------------------------------

       Atom             a.u.   MegaHertz   Gauss  10(-4) cm-1        Axes

              Baa    -0.0079    -4.212    -1.503    -1.405  0.0000  0.0000  1.0000
     1 H(1)   Bbb    -0.0065    -3.472    -1.239    -1.158  0.9735 -0.2288  0.0000
              Bcc     0.0144     7.684     2.742     2.563  0.2288  0.9735  0.0000
 
              Baa    -0.0360   -19.220    -6.858    -6.411 -0.0061  1.0000  0.0000
     2 H(1)   Bbb     0.0088     4.718     1.684     1.574  1.0000  0.0061  0.0000
              Bcc     0.0272    14.502     5.175     4.837  0.0000  0.0000  1.0000
 
              Baa    -0.0338   -18.011    -6.427    -6.008  0.4433  0.8964  0.0000
     3 H(1)   Bbb     0.0044     2.374     0.847     0.792  0.8964 -0.4433  0.0000
              Bcc     0.0293    15.637     5.580     5.216  0.0000  0.0000  1.0000
 
              Baa    -0.0072    -3.828    -1.366    -1.277  0.2222  0.9750 -0.0000
     4 H(1)   Bbb     0.0012     0.640     0.228     0.213  0.9750 -0.2222  0.0000
              Bcc     0.0060     3.188     1.138     1.064  0.0000  0.0000  1.0000
 
              Baa    -0.0067    -3.590    -1.281    -1.197  0.5389  0.8424  0.0000
     5 H(1)   Bbb     0.0029     1.535     0.548     0.512  0.0000  0.0000  1.0000
              Bcc     0.0039     2.055     0.733     0.686  0.8424 -0.5389  0.0000
 
              Baa    -0.0039    -2.055    -0.733    -0.686  0.8424 -0.5389  0.0000
     6 H(1)   Bbb    -0.0029    -1.535    -0.548    -0.512  0.0000  0.0000  1.0000
              Bcc     0.0067     3.590     1.281     1.197  0.5389  0.8424  0.0000
 
              Baa    -0.0060    -3.188    -1.138    -1.064  0.0000  0.0000  1.0000
     7 H(1)   Bbb    -0.0012    -0.640    -0.228    -0.213  0.9750 -0.2222  0.0000
              Bcc     0.0072     3.828     1.366     1.277  0.2222  0.9750  0.0000
 
              Baa    -0.0293   -15.637    -5.580    -5.216  0.0000  0.0000  1.0000
     8 H(1)   Bbb    -0.0044    -2.374    -0.847    -0.792  0.8964 -0.4433  0.0000
              Bcc     0.0338    18.011     6.427     6.008  0.4433  0.8964  0.0000
 
              Baa    -0.0272   -14.502    -5.175    -4.837  0.0000  0.0000  1.0000
     9 H(1)   Bbb    -0.0088    -4.718    -1.684    -1.574  1.0000  0.0061  0.0000
              Bcc     0.0360    19.220     6.858     6.411 -0.0061  1.0000 -0.0000
 
              Baa    -0.0144    -7.684    -2.742    -2.563  0.2288  0.9735  0.0000
    10 H(1)   Bbb     0.0065     3.472     1.239     1.158  0.9735 -0.2288  0.0000
              Bcc     0.0079     4.212     1.503     1.405  0.0000  0.0000  1.0000
 

 ---------------------------------------------------------------------------------


 Test job not archived.
 1\1\GINC-SULU\Stability\UHF\Gen\H10\LCJ1\28-Feb-2017\0\\#rhf/gen scf(s
 ymm,tight,novaracc,noincfock,fulldiag) stable=opt guess=read geom=nocr
 owd test\\hf stability analysis of h10 triangular lattice, y= 1.597348
 2699307082\\0,1\H\H,1,1.6377309\H,1,1.6377309,2,25.5\H,2,1.6377309,1,1
 54.5,3,0.,0\H,3,1.6377309,1,180.,2,0.,0\H,4,1.6377309,2,180.,1,0.,0\H,
 5,1.6377309,3,180.,2,0.,0\H,6,1.6377309,4,180.,1,0.,0\H,7,1.6377309,5,
 180.,2,0.,0\H,8,1.6377309,6,180.,1,0.,0\\Version=ES64L-G09RevE.01\Stat
 e=1-AG\HF=-5.1837589\S2=1.000016\S2-1=0.\S2A=0.000617\RMSD=2.875e-09\D
 ipole=0.,0.,0.\Quadrupole=1.710772,1.2915792,-3.0023512,0.,-2.0596269,
 0.\PG=C02H [SGH(H10)]\\@


 LIFE CAN ONLY BE UNDERSTOOD BACKWARD, BUT MUST
 BE LIVED FORWARD. -- KIRKEGAARD
 Job cpu time:       0 days  0 hours  0 minutes  1.1 seconds.
 File lengths (MBytes):  RWF=     77 Int=      0 D2E=      0 Chk=      2 Scr=      2
 Normal termination of Gaussian 09 at Tue Feb 28 18:09:30 2017.
