 Entering Gaussian System, Link 0=g09
 AtFile(1): H.gbs
            H     0
            S   10   1.00
               1000.000000000000            0.000068713567
                316.227766000000            0.000169141320
                100.000000000000            0.000823394812
                 31.622776600000            0.003425569236
                 10.000000000000            0.013951996000
                  3.162277660000            0.056909313560
                  1.000000000000            0.198286399900
                  0.316227766000            0.496922426700
                  0.100000000000            0.369846276400
                  0.031622776600            0.003752720039
            ****
 Initial command:
 /projects/guscus/apps/gau/g09-e1/g09/l1.exe "/users/lcj1/gaussian/h10/2rows_uhf/ag2bu3/singlet/test/follow37.5/Gau-8090.inp" -scrdir="/users/lcj1/gaussian/h10/2rows_uhf/ag2bu3/singlet/test/follow37.5/"
 Entering Link 1 = /projects/guscus/apps/gau/g09-e1/g09/l1.exe PID=      8091.
  
 Copyright (c) 1988,1990,1992,1993,1995,1998,2003,2009,2015,
            Gaussian, Inc.  All Rights Reserved.
  
 This is part of the Gaussian(R) 09 program.  It is based on
 the Gaussian(R) 03 system (copyright 2003, Gaussian, Inc.),
 the Gaussian(R) 98 system (copyright 1998, Gaussian, Inc.),
 the Gaussian(R) 94 system (copyright 1995, Gaussian, Inc.),
 the Gaussian 92(TM) system (copyright 1992, Gaussian, Inc.),
 the Gaussian 90(TM) system (copyright 1990, Gaussian, Inc.),
 the Gaussian 88(TM) system (copyright 1988, Gaussian, Inc.),
 the Gaussian 86(TM) system (copyright 1986, Carnegie Mellon
 University), and the Gaussian 82(TM) system (copyright 1983,
 Carnegie Mellon University). Gaussian is a federally registered
 trademark of Gaussian, Inc.
  
 This software contains proprietary and confidential information,
 including trade secrets, belonging to Gaussian, Inc.
  
 This software is provided under written license and may be
 used, copied, transmitted, or stored only in accord with that
 written license.
  
 The following legend is applicable only to US Government
 contracts under FAR:
  
                    RESTRICTED RIGHTS LEGEND
  
 Use, reproduction and disclosure by the US Government is
 subject to restrictions as set forth in subparagraphs (a)
 and (c) of the Commercial Computer Software - Restricted
 Rights clause in FAR 52.227-19.
  
 Gaussian, Inc.
 340 Quinnipiac St., Bldg. 40, Wallingford CT 06492
  
  
 ---------------------------------------------------------------
 Warning -- This program may not be used in any manner that
 competes with the business of Gaussian, Inc. or will provide
 assistance to any competitor of Gaussian, Inc.  The licensee
 of this program is prohibited from giving any competitor of
 Gaussian, Inc. access to this program.  By using this program,
 the user acknowledges that Gaussian, Inc. is engaged in the
 business of creating and licensing software in the field of
 computational chemistry and represents and warrants to the
 licensee that it is not a competitor of Gaussian, Inc. and that
 it will not use this program in any manner prohibited above.
 ---------------------------------------------------------------
  

 Cite this work as:
 Gaussian 09, Revision E.01,
 M. J. Frisch, G. W. Trucks, H. B. Schlegel, G. E. Scuseria, 
 M. A. Robb, J. R. Cheeseman, G. Scalmani, V. Barone, B. Mennucci, 
 G. A. Petersson, H. Nakatsuji, M. Caricato, X. Li, H. P. Hratchian, 
 A. F. Izmaylov, J. Bloino, G. Zheng, J. L. Sonnenberg, M. Hada, 
 M. Ehara, K. Toyota, R. Fukuda, J. Hasegawa, M. Ishida, T. Nakajima, 
 Y. Honda, O. Kitao, H. Nakai, T. Vreven, J. A. Montgomery, Jr., 
 J. E. Peralta, F. Ogliaro, M. Bearpark, J. J. Heyd, E. Brothers, 
 K. N. Kudin, V. N. Staroverov, T. Keith, R. Kobayashi, J. Normand, 
 K. Raghavachari, A. Rendell, J. C. Burant, S. S. Iyengar, J. Tomasi, 
 M. Cossi, N. Rega, J. M. Millam, M. Klene, J. E. Knox, J. B. Cross, 
 V. Bakken, C. Adamo, J. Jaramillo, R. Gomperts, R. E. Stratmann, 
 O. Yazyev, A. J. Austin, R. Cammi, C. Pomelli, J. W. Ochterski, 
 R. L. Martin, K. Morokuma, V. G. Zakrzewski, G. A. Voth, 
 P. Salvador, J. J. Dannenberg, S. Dapprich, A. D. Daniels, 
 O. Farkas, J. B. Foresman, J. V. Ortiz, J. Cioslowski, 
 and D. J. Fox, Gaussian, Inc., Wallingford CT, 2013.
 
 ******************************************
 Gaussian 09:  ES64L-G09RevE.01 30-Nov-2015
                23-Feb-2017 
 ******************************************
 %chk=h10.chk
 ----------------------------------------------------------------------
 #uhf/gen scf(tight,novaracc,noincfock,fulldiag) stable(crhf) guess=rea
 d geom=nocrowd test
 ----------------------------------------------------------------------
 1/38=1/1;
 2/12=1,17=6,18=5,40=1/2;
 3/5=7,16=1,25=1,30=1,116=2/1,2,3;
 4/5=1/1;
 5/5=100002,16=1,32=2,38=6/2;
 8/6=1,10=90,11=11/1,4;
 9/8=4,13=1/2;
 6/7=2,8=2,9=2,10=2,28=1/1;
 99/5=1,9=1/99;
 ----------------------------------------------------------------------
 hf stability analysis of h10 triangular lattice, y= 0.7178473640090998
 8
 ----------------------------------------------------------------------
 Symbolic Z-matrix:
 Charge =  0 Multiplicity = 1
 H
 H                    1     1.07804 
 H                    1     1.07804  2     96.5 
 H                    2     1.07804  1     83.5     3     0.       0
 H                    3     1.07804  1     180.     2     0.       0
 H                    4     1.07804  2     180.     1     0.       0
 H                    5     1.07804  3     180.     2     0.       0
 H                    6     1.07804  4     180.     1     0.       0
 H                    7     1.07804  5     180.     2     0.       0
 H                    8     1.07804  6     180.     1     0.       0
 
                          Input orientation:                          
 ---------------------------------------------------------------------
 Center     Atomic      Atomic             Coordinates (Angstroms)
 Number     Number       Type             X           Y           Z
 ---------------------------------------------------------------------
      1          1           0        0.000000    0.000000    0.000000
      2          1           0        0.000000    0.000000    1.078040
      3          1           0        1.071111    0.000000   -0.122038
      4          1           0        1.071111    0.000000    0.956003
      5          1           0        2.142221    0.000000   -0.244075
      6          1           0        2.142221    0.000000    0.833965
      7          1           0        3.213332    0.000000   -0.366113
      8          1           0        3.213332    0.000000    0.711927
      9          1           0        4.284442    0.000000   -0.488151
     10          1           0        4.284442    0.000000    0.589890
 ---------------------------------------------------------------------
                    Distance matrix (angstroms):
                    1          2          3          4          5
     1  H    0.000000
     2  H    1.078040   0.000000
     3  H    1.078040   1.608560   0.000000
     4  H    1.435695   1.078040   1.078040   0.000000
     5  H    2.156081   2.517360   1.078040   1.608560   0.000000
     6  H    2.298828   2.156081   1.435695   1.078040   1.078040
     7  H    3.234121   3.522936   2.156081   2.517360   1.078040
     8  H    3.291252   3.234121   2.298828   2.156081   1.435695
     9  H    4.312162   4.561732   3.234121   3.522936   2.156081
    10  H    4.324860   4.312162   3.291252   3.234121   2.298828
                    6          7          8          9         10
     6  H    0.000000
     7  H    1.608560   0.000000
     8  H    1.078040   1.078040   0.000000
     9  H    2.517360   1.078040   1.608560   0.000000
    10  H    2.156081   1.435695   1.078040   1.078040   0.000000
 Stoichiometry    H10
 Framework group  C2H[SGH(H10)]
 Deg. of freedom     9
 Full point group                 C2H     NOp   4
 Largest Abelian subgroup         C2H     NOp   4
 Largest concise Abelian subgroup C2      NOp   2
                         Standard orientation:                         
 ---------------------------------------------------------------------
 Center     Atomic      Atomic             Coordinates (Angstroms)
 Number     Number       Type             X           Y           Z
 ---------------------------------------------------------------------
      1          1           0        2.142221    0.294945   -0.000000
      2          1           0        2.142221   -0.783095   -0.000000
      3          1           0        1.071111    0.416983   -0.000000
      4          1           0        1.071111   -0.661058   -0.000000
      5          1           0       -0.000000    0.539020    0.000000
      6          1           0       -0.000000   -0.539020    0.000000
      7          1           0       -1.071111    0.661058   -0.000000
      8          1           0       -1.071111   -0.416983   -0.000000
      9          1           0       -2.142221    0.783095   -0.000000
     10          1           0       -2.142221   -0.294945   -0.000000
 ---------------------------------------------------------------------
 Rotational constants (GHZ):    175.1523964     21.5347228     19.1769462
 General basis read from cards:  (5D, 7F)
 There are     5 symmetry adapted cartesian basis functions of AG  symmetry.
 There are     0 symmetry adapted cartesian basis functions of BG  symmetry.
 There are     0 symmetry adapted cartesian basis functions of AU  symmetry.
 There are     5 symmetry adapted cartesian basis functions of BU  symmetry.
 There are     5 symmetry adapted basis functions of AG  symmetry.
 There are     0 symmetry adapted basis functions of BG  symmetry.
 There are     0 symmetry adapted basis functions of AU  symmetry.
 There are     5 symmetry adapted basis functions of BU  symmetry.
    10 basis functions,   100 primitive gaussians,    10 cartesian basis functions
     5 alpha electrons        5 beta electrons
       nuclear repulsion energy        13.7256491835 Hartrees.
 NAtoms=   10 NActive=   10 NUniq=    5 SFac= 4.00D+00 NAtFMM=   60 NAOKFM=F Big=F
 Integral buffers will be    131072 words long.
 Regular integral format.
 Two-electron integral symmetry is turned on.
 One-electron integrals computed using PRISM.
 NBasis=    10 RedAO= T EigKep=  1.25D-01  NBF=     5     0     0     5
 NBsUse=    10 1.00D-06 EigRej= -1.00D+00 NBFU=     5     0     0     5
 Initial guess from the checkpoint file:  "h10.chk"
 B after Tr=     0.000000    0.000000   -0.000000
         Rot=    0.999992   -0.000000   -0.000000   -0.003879 Ang=  -0.44 deg.
 Initial guess orbital symmetries:
 Alpha Orbitals:
       Occupied  (BG) (BG) (BG) (BG) (BG)
       Virtual   (BG) (BG) (BG) (BG) (BG)
 Beta  Orbitals:
       Occupied  (BG) (BG) (BG) (BG) (BG)
       Virtual   (BG) (BG) (BG) (BG) (BG)
 Initial guess <Sx>= 0.0000 <Sy>= 0.0000 <Sz>= 0.0000 <S**2>= 0.3965 S= 0.3041
 Keep R1 and R2 ints in memory in symmetry-blocked form, NReq=879355.
 Requested convergence on RMS density matrix=1.00D-08 within 128 cycles.
 Requested convergence on MAX density matrix=1.00D-06.
 Requested convergence on             energy=1.00D-06.
 No special actions if energy rises.
 An orbital has undefined symmetry, so N**3 symmetry is turned off.
 Density matrix breaks symmetry, PCut= 1.00D-04
 Density matrix has no symmetry -- integrals replicated.
 Density matrix breaks symmetry, PCut= 1.00D-07
 Density matrix has no symmetry -- integrals replicated.
 Density matrix breaks symmetry, PCut= 1.00D-07
 Density matrix has no symmetry -- integrals replicated.
 Density matrix breaks symmetry, PCut= 1.00D-07
 Density matrix has no symmetry -- integrals replicated.
 Density matrix breaks symmetry, PCut= 1.00D-07
 Density matrix has no symmetry -- integrals replicated.
 Density matrix breaks symmetry, PCut= 1.00D-07
 Density matrix has no symmetry -- integrals replicated.
 Density matrix breaks symmetry, PCut= 1.00D-07
 Density matrix has no symmetry -- integrals replicated.
 Density matrix breaks symmetry, PCut= 1.00D-07
 Density matrix has no symmetry -- integrals replicated.
 Density matrix breaks symmetry, PCut= 1.00D-07
 Density matrix has no symmetry -- integrals replicated.
 Density matrix breaks symmetry, PCut= 1.00D-07
 Density matrix has no symmetry -- integrals replicated.
 Density matrix breaks symmetry, PCut= 1.00D-07
 Density matrix has no symmetry -- integrals replicated.
 Density matrix breaks symmetry, PCut= 1.00D-07
 Density matrix has no symmetry -- integrals replicated.
 Density matrix breaks symmetry, PCut= 1.00D-07
 Density matrix has no symmetry -- integrals replicated.
 Density matrix breaks symmetry, PCut= 1.00D-07
 Density matrix has no symmetry -- integrals replicated.
 Density matrix breaks symmetry, PCut= 1.00D-07
 Density matrix has no symmetry -- integrals replicated.
 Density matrix breaks symmetry, PCut= 1.00D-07
 Density matrix has no symmetry -- integrals replicated.
 SCF Done:  E(UHF) =  -4.84659821501     A.U. after   15 cycles
            NFock= 15  Conv=0.37D-08     -V/T= 1.9162
 <Sx>= 0.0000 <Sy>= 0.0000 <Sz>= 0.0000 <S**2>= 0.3954 S= 0.3034
 <L.S>= 0.000000000000E+00
 Annihilation of the first spin contaminant:
 S**2 before annihilation     0.3954,   after     0.0411
 Range of M.O.s used for correlation:     1    10
 NBasis=    10 NAE=     5 NBE=     5 NFC=     0 NFV=     0
 NROrb=     10 NOA=     5 NOB=     5 NVA=     5 NVB=     5
 Semi-Direct transformation.
 ModeAB=           2 MOrb=             5 LenV=     134107179
 LASXX=         1030 LTotXX=        1030 LenRXX=        1030
 LTotAB=        1825 MaxLAS=        2750 LenRXY=        2750
 NonZer=        2750 LenScr=      655360 LnRSAI=           0
 LnScr1=           0 LExtra=           0 Total=       659140
 MaxDsk=          -1 SrtSym=           F ITran=            3
 JobTyp=1 Pass  1:  I=   1 to   5.
 (rs|ai) integrals will be sorted in core.
 ModeAB=           2 MOrb=             5 LenV=     134107179
 LASXX=         1030 LTotXX=        1030 LenRXX=        2750
 LTotAB=         225 MaxLAS=        2750 LenRXY=         225
 NonZer=        2750 LenScr=      655360 LnRSAI=           0
 LnScr1=           0 LExtra=           0 Total=       658335
 MaxDsk=          -1 SrtSym=           F ITran=            3
 JobTyp=2 Pass  1:  I=   1 to   5.
 (rs|ai) integrals will be sorted in core.
 SymMOI:  orbitals are not symmetric.
 Spin components of T(2) and E(2):
     alpha-alpha T2 =       0.4828390863D-02 E2=     -0.6327755395D-02
     alpha-beta  T2 =       0.5898348180D-01 E2=     -0.8376482584D-01
     beta-beta   T2 =       0.4828390863D-02 E2=     -0.6327755395D-02
 ANorm=    0.1033750581D+01
 E2 =    -0.9642033663D-01 EUMP2 =    -0.49430185516380D+01
 (S**2,0)=  0.39542D+00           (S**2,1)=  0.34021D+00
 E(PUHF)=      -0.48630919639D+01        E(PMP2)=      -0.49584182110D+01
 Second order stability test of a single determinant UHF wave function:
 Stabil:  MDV=134217728
 ***********************************************************************
 Matrix         Lowest Root    Major Pairs
 ***********************************************************************
 Internal UHF    -0.1296954    5A=6A 5B=6B
 RUHF --> CUHF (A)-0.0124655    5A=6A
 RUHF --> CUHF (B)-0.0124655    5B=6B
 RUHF --> GHF    -0.1425806    5A=6B 5B=6A
 Not stable.
 ***********************************************************************

 **********************************************************************

            Population analysis using the SCF density.

 **********************************************************************

 Orbital symmetries:
 Alpha Orbitals:
       Occupied  (BG) (BG) (BG) (BG) (BG)
       Virtual   (BG) (BG) (BG) (BG) (BG)
 Beta  Orbitals:
       Occupied  (BG) (BG) (BG) (BG) (BG)
       Virtual   (BG) (BG) (BG) (BG) (BG)
 Unable to determine electronic state:  partially filled degenerate orbitals.
 Alpha  occ. eigenvalues --   -0.87600  -0.72827  -0.54386  -0.43041  -0.28415
 Alpha virt. eigenvalues --   -0.01413   0.20916   0.32887   0.51974   0.89731
  Beta  occ. eigenvalues --   -0.87600  -0.72827  -0.54386  -0.43041  -0.28415
  Beta virt. eigenvalues --   -0.01413   0.20916   0.32887   0.51974   0.89731
          Condensed to atoms (all electrons):
               1          2          3          4          5          6
     1  H    0.821326   0.440285  -0.102748  -0.160782  -0.004970  -0.067617
     2  H    0.440285   0.951578  -0.199348  -0.115643  -0.031798  -0.036847
     3  H   -0.102748  -0.199348   1.174438   0.192172   0.218598  -0.060680
     4  H   -0.160782  -0.115643   0.192172   1.025598  -0.123359   0.296333
     5  H   -0.004970  -0.031798   0.218598  -0.123359   0.803786  -0.045116
     6  H   -0.067617  -0.036847  -0.060680   0.296333  -0.045116   0.803786
     7  H    0.016787   0.009475  -0.059852  -0.080111   0.296333  -0.123359
     8  H    0.009387   0.020645  -0.126021  -0.059852  -0.060680   0.218598
     9  H   -0.001391  -0.001492   0.020645   0.009475  -0.036847  -0.031798
    10  H   -0.001280  -0.001391   0.009387   0.016787  -0.067617  -0.004970
               7          8          9         10
     1  H    0.016787   0.009387  -0.001391  -0.001280
     2  H    0.009475   0.020645  -0.001492  -0.001391
     3  H   -0.059852  -0.126021   0.020645   0.009387
     4  H   -0.080111  -0.059852   0.009475   0.016787
     5  H    0.296333  -0.060680  -0.036847  -0.067617
     6  H   -0.123359   0.218598  -0.031798  -0.004970
     7  H    1.025598   0.192172  -0.115643  -0.160782
     8  H    0.192172   1.174438  -0.199348  -0.102748
     9  H   -0.115643  -0.199348   0.951578   0.440285
    10  H   -0.160782  -0.102748   0.440285   0.821326
          Atomic-Atomic Spin Densities.
               1          2          3          4          5          6
     1  H    0.108274  -0.007832   0.049133  -0.084067   0.023936  -0.010575
     2  H   -0.007832   0.075375  -0.063604   0.020534  -0.001397   0.023733
     3  H    0.049133  -0.063604   0.432682  -0.110457   0.050258  -0.109572
     4  H   -0.084067   0.020534  -0.110457   0.424978  -0.085047   0.082107
     5  H    0.023936  -0.001397   0.050258  -0.085047  -0.013358   0.000000
     6  H   -0.010575   0.023733  -0.109572   0.082107   0.000000   0.013358
     7  H    0.000123  -0.000845   0.001128   0.000000  -0.082107   0.085047
     8  H   -0.000743   0.000455   0.000000  -0.001128   0.109572  -0.050258
     9  H   -0.000020  -0.000000  -0.000455   0.000845  -0.023733   0.001397
    10  H    0.000000   0.000020   0.000743  -0.000123   0.010575  -0.023936
               7          8          9         10
     1  H    0.000123  -0.000743  -0.000020   0.000000
     2  H   -0.000845   0.000455  -0.000000   0.000020
     3  H    0.001128   0.000000  -0.000455   0.000743
     4  H    0.000000  -0.001128   0.000845  -0.000123
     5  H   -0.082107   0.109572  -0.023733   0.010575
     6  H    0.085047  -0.050258   0.001397  -0.023936
     7  H   -0.424978   0.110457  -0.020534   0.084067
     8  H    0.110457  -0.432682   0.063604  -0.049133
     9  H   -0.020534   0.063604  -0.075375   0.007832
    10  H    0.084067  -0.049133   0.007832  -0.108274
 Mulliken charges and spin densities:
               1          2
     1  H    0.051001   0.078229
     2  H   -0.035464   0.046439
     3  H   -0.066590   0.249857
     4  H   -0.000617   0.247642
     5  H    0.051670  -0.011300
     6  H    0.051670   0.011300
     7  H   -0.000617  -0.247642
     8  H   -0.066590  -0.249857
     9  H   -0.035464  -0.046439
    10  H    0.051001  -0.078229
 Sum of Mulliken charges =   0.00000  -0.00000
 Mulliken charges and spin densities with hydrogens summed into heavy atoms:
               1          2
 Electronic spatial extent (au):  <R**2>=            125.6836
 Charge=              0.0000 electrons
 Dipole moment (field-independent basis, Debye):
    X=             -0.0000    Y=              0.0000    Z=              0.0000  Tot=              0.0000
 Quadrupole moment (field-independent basis, Debye-Ang):
   XX=            -17.1980   YY=            -13.4839   ZZ=            -12.7685
   XY=              1.0249   XZ=              0.0000   YZ=             -0.0000
 Traceless Quadrupole moment (field-independent basis, Debye-Ang):
   XX=             -2.7145   YY=              0.9996   ZZ=              1.7149
   XY=              1.0249   XZ=              0.0000   YZ=             -0.0000
 Octapole moment (field-independent basis, Debye-Ang**2):
  XXX=             -0.0000  YYY=              0.0000  ZZZ=              0.0000  XYY=             -0.0000
  XXY=              0.0000  XXZ=              0.0000  XZZ=             -0.0000  YZZ=              0.0000
  YYZ=              0.0000  XYZ=             -0.0000
 Hexadecapole moment (field-independent basis, Debye-Ang**3):
 XXXX=           -256.5978 YYYY=            -42.5567 ZZZZ=            -15.2750 XXXY=             21.5201
 XXXZ=              0.0000 YYYX=             10.4131 YYYZ=             -0.0000 ZZZX=              0.0000
 ZZZY=             -0.0000 XXYY=            -39.6512 XXZZ=            -37.0268 YYZZ=             -9.6386
 XXYZ=             -0.0000 YYXZ=              0.0000 ZZXY=              3.7495
 N-N= 1.372564918354D+01 E-N=-3.670901131361D+01  KE= 5.289901504962D+00
 Symmetry AG   KE= 1.714738334875D+00
 Symmetry BG   KE= 0.000000000000D+00
 Symmetry AU   KE= 0.000000000000D+00
 Symmetry BU   KE= 3.575163170086D+00
                          Isotropic Fermi Contact Couplings
        Atom                 a.u.       MegaHertz       Gauss      10(-4) cm-1
     1  H(1)               0.03230      72.18205      25.75635      24.07734
     2  H(1)               0.02157      48.20881      17.20210      16.08073
     3  H(1)               0.11707     261.65106      93.36360      87.27740
     4  H(1)               0.11561     258.38599      92.19854      86.18829
     5  H(1)              -0.00444      -9.91445      -3.53772      -3.30711
     6  H(1)               0.00444       9.91445       3.53772       3.30711
     7  H(1)              -0.11561    -258.38599     -92.19854     -86.18829
     8  H(1)              -0.11707    -261.65106     -93.36360     -87.27740
     9  H(1)              -0.02157     -48.20881     -17.20210     -16.08073
    10  H(1)              -0.03230     -72.18205     -25.75635     -24.07734
 --------------------------------------------------------
       Center         ----  Spin Dipole Couplings  ----
                      3XX-RR        3YY-RR        3ZZ-RR
 --------------------------------------------------------
     1   Atom        0.037335     -0.008603     -0.028732
     2   Atom        0.035818     -0.007544     -0.028274
     3   Atom       -0.011896      0.021788     -0.009892
     4   Atom       -0.010570      0.021603     -0.011033
     5   Atom        0.000328     -0.002540      0.002212
     6   Atom       -0.000328      0.002540     -0.002212
     7   Atom        0.010570     -0.021603      0.011033
     8   Atom        0.011896     -0.021788      0.009892
     9   Atom       -0.035818      0.007544      0.028274
    10   Atom       -0.037335      0.008603      0.028732
 --------------------------------------------------------
                        XY            XZ            YZ
 --------------------------------------------------------
     1   Atom       -0.012047     -0.000000     -0.000000
     2   Atom        0.000165     -0.000000      0.000000
     3   Atom       -0.002818     -0.000000     -0.000000
     4   Atom        0.007730      0.000000      0.000000
     5   Atom        0.013483     -0.000000     -0.000000
     6   Atom       -0.013483     -0.000000      0.000000
     7   Atom       -0.007730     -0.000000     -0.000000
     8   Atom        0.002818     -0.000000      0.000000
     9   Atom       -0.000165     -0.000000     -0.000000
    10   Atom        0.012047     -0.000000      0.000000
 --------------------------------------------------------


 ---------------------------------------------------------------------------------
              Anisotropic Spin Dipole Couplings in Principal Axis System
 ---------------------------------------------------------------------------------

       Atom             a.u.   MegaHertz   Gauss  10(-4) cm-1        Axes

              Baa    -0.0287   -15.330    -5.470    -5.113  0.0000  0.0000  1.0000
     1 H(1)   Bbb    -0.0116    -6.174    -2.203    -2.059  0.2392  0.9710 -0.0000
              Bcc     0.0403    21.503     7.673     7.173  0.9710 -0.2392  0.0000
 
              Baa    -0.0283   -15.085    -5.383    -5.032  0.0000  0.0000  1.0000
     2 H(1)   Bbb    -0.0075    -4.026    -1.436    -1.343 -0.0038  1.0000  0.0000
              Bcc     0.0358    19.111     6.819     6.375  1.0000  0.0038  0.0000
 
              Baa    -0.0121    -6.472    -2.309    -2.159  0.9966  0.0828  0.0000
     3 H(1)   Bbb    -0.0099    -5.278    -1.883    -1.760  0.0000  0.0000  1.0000
              Bcc     0.0220    11.750     4.193     3.919 -0.0828  0.9966  0.0000
 
              Baa    -0.0123    -6.579    -2.348    -2.195  0.9750 -0.2221  0.0000
     4 H(1)   Bbb    -0.0110    -5.887    -2.100    -1.964  0.0000  0.0000  1.0000
              Bcc     0.0234    12.466     4.448     4.158  0.2221  0.9750  0.0000
 
              Baa    -0.0147    -7.825    -2.792    -2.610 -0.6687  0.7436  0.0000
     5 H(1)   Bbb     0.0022     1.180     0.421     0.394  0.0000  0.0000  1.0000
              Bcc     0.0125     6.645     2.371     2.216  0.7436  0.6687 -0.0000
 
              Baa    -0.0125    -6.645    -2.371    -2.216  0.7436  0.6687  0.0000
     6 H(1)   Bbb    -0.0022    -1.180    -0.421    -0.394  0.0000  0.0000  1.0000
              Bcc     0.0147     7.825     2.792     2.610 -0.6687  0.7436  0.0000
 
              Baa    -0.0234   -12.466    -4.448    -4.158  0.2221  0.9750  0.0000
     7 H(1)   Bbb     0.0110     5.887     2.100     1.964  0.0000  0.0000  1.0000
              Bcc     0.0123     6.579     2.348     2.195  0.9750 -0.2221  0.0000
 
              Baa    -0.0220   -11.750    -4.193    -3.919 -0.0828  0.9966  0.0000
     8 H(1)   Bbb     0.0099     5.278     1.883     1.760  0.0000  0.0000  1.0000
              Bcc     0.0121     6.472     2.309     2.159  0.9966  0.0828  0.0000
 
              Baa    -0.0358   -19.111    -6.819    -6.375  1.0000  0.0038  0.0000
     9 H(1)   Bbb     0.0075     4.026     1.436     1.343 -0.0038  1.0000 -0.0000
              Bcc     0.0283    15.085     5.383     5.032  0.0000  0.0000  1.0000
 
              Baa    -0.0403   -21.503    -7.673    -7.173  0.9710 -0.2392  0.0000
    10 H(1)   Bbb     0.0116     6.174     2.203     2.059  0.2392  0.9710  0.0000
              Bcc     0.0287    15.330     5.470     5.113  0.0000  0.0000  1.0000
 

 ---------------------------------------------------------------------------------


 Test job not archived.
 1\1\GINC-SULU\Stability\UHF\Gen\H10\UNKNOWN\23-Feb-2017\0\\#uhf/gen sc
 f(tight,novaracc,noincfock,fulldiag) stable(crhf) guess=read geom=nocr
 owd test\\hf stability analysis of h10 triangular lattice, y= 0.717847
 36400909988\\0,1\H\H,1,1.0780404152\H,1,1.0780404152,2,96.5\H,2,1.0780
 404152,1,83.5,3,0.,0\H,3,1.0780404152,1,180.,2,0.,0\H,4,1.0780404152,2
 ,180.,1,0.,0\H,5,1.0780404152,3,180.,2,0.,0\H,6,1.0780404152,4,180.,1,
 0.,0\H,7,1.0780404152,5,180.,2,0.,0\H,8,1.0780404152,6,180.,1,0.,0\\Ve
 rsion=ES64L-G09RevE.01\HF=-4.8465982\MP2=-4.9430186\PUHF=-4.863092\PMP
 2-0=-4.9584182\S2=0.395422\S2-1=0.340205\S2A=0.04115\RMSD=3.743e-09\Di
 pole=0.,0.,0.\Quadrupole=-2.0181683,1.2750112,0.743157,0.,0.7620191,0.
 \PG=C02H [SGH(H10)]\\@


 IF YOU GIVE EVERYONE A PIECE OF YOUR MIND,
 PRETTY SOON IT WILL BE ALL GONE.
 Job cpu time:       0 days  0 hours  0 minutes  1.3 seconds.
 File lengths (MBytes):  RWF=     94 Int=      0 D2E=      0 Chk=      2 Scr=      2
 Normal termination of Gaussian 09 at Thu Feb 23 16:08:04 2017.
