 Entering Gaussian System, Link 0=g09
 AtFile(1): H.gbs
            H     0
            S   10   1.00
               1000.000000000000            0.000068713567
                316.227766000000            0.000169141320
                100.000000000000            0.000823394812
                 31.622776600000            0.003425569236
                 10.000000000000            0.013951996000
                  3.162277660000            0.056909313560
                  1.000000000000            0.198286399900
                  0.316227766000            0.496922426700
                  0.100000000000            0.369846276400
                  0.031622776600            0.003752720039
            ****
 Initial command:
 /projects/guscus/apps/gau/g09-e1/g09/l1.exe "/users/lcj1/gaussian/h10/2rows_uhf/ag2bu3/singlet/test/follow37.5/Gau-14776.inp" -scrdir="/users/lcj1/gaussian/h10/2rows_uhf/ag2bu3/singlet/test/follow37.5/"
 Entering Link 1 = /projects/guscus/apps/gau/g09-e1/g09/l1.exe PID=     14777.
  
 Copyright (c) 1988,1990,1992,1993,1995,1998,2003,2009,2015,
            Gaussian, Inc.  All Rights Reserved.
  
 This is part of the Gaussian(R) 09 program.  It is based on
 the Gaussian(R) 03 system (copyright 2003, Gaussian, Inc.),
 the Gaussian(R) 98 system (copyright 1998, Gaussian, Inc.),
 the Gaussian(R) 94 system (copyright 1995, Gaussian, Inc.),
 the Gaussian 92(TM) system (copyright 1992, Gaussian, Inc.),
 the Gaussian 90(TM) system (copyright 1990, Gaussian, Inc.),
 the Gaussian 88(TM) system (copyright 1988, Gaussian, Inc.),
 the Gaussian 86(TM) system (copyright 1986, Carnegie Mellon
 University), and the Gaussian 82(TM) system (copyright 1983,
 Carnegie Mellon University). Gaussian is a federally registered
 trademark of Gaussian, Inc.
  
 This software contains proprietary and confidential information,
 including trade secrets, belonging to Gaussian, Inc.
  
 This software is provided under written license and may be
 used, copied, transmitted, or stored only in accord with that
 written license.
  
 The following legend is applicable only to US Government
 contracts under FAR:
  
                    RESTRICTED RIGHTS LEGEND
  
 Use, reproduction and disclosure by the US Government is
 subject to restrictions as set forth in subparagraphs (a)
 and (c) of the Commercial Computer Software - Restricted
 Rights clause in FAR 52.227-19.
  
 Gaussian, Inc.
 340 Quinnipiac St., Bldg. 40, Wallingford CT 06492
  
  
 ---------------------------------------------------------------
 Warning -- This program may not be used in any manner that
 competes with the business of Gaussian, Inc. or will provide
 assistance to any competitor of Gaussian, Inc.  The licensee
 of this program is prohibited from giving any competitor of
 Gaussian, Inc. access to this program.  By using this program,
 the user acknowledges that Gaussian, Inc. is engaged in the
 business of creating and licensing software in the field of
 computational chemistry and represents and warrants to the
 licensee that it is not a competitor of Gaussian, Inc. and that
 it will not use this program in any manner prohibited above.
 ---------------------------------------------------------------
  

 Cite this work as:
 Gaussian 09, Revision E.01,
 M. J. Frisch, G. W. Trucks, H. B. Schlegel, G. E. Scuseria, 
 M. A. Robb, J. R. Cheeseman, G. Scalmani, V. Barone, B. Mennucci, 
 G. A. Petersson, H. Nakatsuji, M. Caricato, X. Li, H. P. Hratchian, 
 A. F. Izmaylov, J. Bloino, G. Zheng, J. L. Sonnenberg, M. Hada, 
 M. Ehara, K. Toyota, R. Fukuda, J. Hasegawa, M. Ishida, T. Nakajima, 
 Y. Honda, O. Kitao, H. Nakai, T. Vreven, J. A. Montgomery, Jr., 
 J. E. Peralta, F. Ogliaro, M. Bearpark, J. J. Heyd, E. Brothers, 
 K. N. Kudin, V. N. Staroverov, T. Keith, R. Kobayashi, J. Normand, 
 K. Raghavachari, A. Rendell, J. C. Burant, S. S. Iyengar, J. Tomasi, 
 M. Cossi, N. Rega, J. M. Millam, M. Klene, J. E. Knox, J. B. Cross, 
 V. Bakken, C. Adamo, J. Jaramillo, R. Gomperts, R. E. Stratmann, 
 O. Yazyev, A. J. Austin, R. Cammi, C. Pomelli, J. W. Ochterski, 
 R. L. Martin, K. Morokuma, V. G. Zakrzewski, G. A. Voth, 
 P. Salvador, J. J. Dannenberg, S. Dapprich, A. D. Daniels, 
 O. Farkas, J. B. Foresman, J. V. Ortiz, J. Cioslowski, 
 and D. J. Fox, Gaussian, Inc., Wallingford CT, 2013.
 
 ******************************************
 Gaussian 09:  ES64L-G09RevE.01 30-Nov-2015
                23-Feb-2017 
 ******************************************
 %chk=h10.chk
 ----------------------------------------------------------------------
 #uhf/gen scf(tight,novaracc,noincfock,fulldiag) stable(crhf) guess=rea
 d geom=nocrowd test
 ----------------------------------------------------------------------
 1/38=1/1;
 2/12=1,17=6,18=5,40=1/2;
 3/5=7,16=1,25=1,30=1,116=2/1,2,3;
 4/5=1/1;
 5/5=100002,16=1,32=2,38=6/2;
 8/6=1,10=90,11=11/1,4;
 9/8=4,13=1/2;
 6/7=2,8=2,9=2,10=2,28=1/1;
 99/5=1,9=1/99;
 ----------------------------------------------------------------------
 hf stability analysis of h10 triangular lattice, y= 1.3135898396745678
 ----------------------------------------------------------------------
 Symbolic Z-matrix:
 Charge =  0 Multiplicity = 1
 H
 H                    1     1.38517 
 H                    1     1.38517  2     37. 
 H                    2     1.38517  1     143.     3     0.       0
 H                    3     1.38517  1     180.     2     0.       0
 H                    4     1.38517  2     180.     1     0.       0
 H                    5     1.38517  3     180.     2     0.       0
 H                    6     1.38517  4     180.     1     0.       0
 H                    7     1.38517  5     180.     2     0.       0
 H                    8     1.38517  6     180.     1     0.       0
 
                          Input orientation:                          
 ---------------------------------------------------------------------
 Center     Atomic      Atomic             Coordinates (Angstroms)
 Number     Number       Type             X           Y           Z
 ---------------------------------------------------------------------
      1          1           0        0.000000    0.000000    0.000000
      2          1           0        0.000000    0.000000    1.385170
      3          1           0        0.833616    0.000000    1.106246
      4          1           0        0.833616    0.000000    2.491417
      5          1           0        1.667233    0.000000    2.212492
      6          1           0        1.667233    0.000000    3.597663
      7          1           0        2.500849    0.000000    3.318739
      8          1           0        2.500849    0.000000    4.703909
      9          1           0        3.334465    0.000000    4.424985
     10          1           0        3.334465    0.000000    5.810155
 ---------------------------------------------------------------------
                    Distance matrix (angstroms):
                    1          2          3          4          5
     1  H    0.000000
     2  H    1.385170   0.000000
     3  H    1.385170   0.879042   0.000000
     4  H    2.627180   1.385170   1.385170   0.000000
     5  H    2.770341   1.861216   1.385170   0.879042   0.000000
     6  H    3.965204   2.770341   2.627180   1.385170   1.385170
     7  H    4.155511   3.161160   2.770341   1.861216   1.385170
     8  H    5.327383   4.155511   3.965204   2.770341   2.627180
     9  H    5.540681   4.512109   4.155511   3.161160   2.770341
    10  H    6.698997   5.540681   5.327383   4.155511   3.965204
                    6          7          8          9         10
     6  H    0.000000
     7  H    0.879042   0.000000
     8  H    1.385170   1.385170   0.000000
     9  H    1.861216   1.385170   0.879042   0.000000
    10  H    2.770341   2.627180   1.385170   1.385170   0.000000
 Stoichiometry    H10
 Framework group  C2H[SGH(H10)]
 Deg. of freedom     9
 Full point group                 C2H     NOp   4
 Largest Abelian subgroup         C2H     NOp   4
 Largest concise Abelian subgroup C2      NOp   2
                         Standard orientation:                         
 ---------------------------------------------------------------------
 Center     Atomic      Atomic             Coordinates (Angstroms)
 Number     Number       Type             X           Y           Z
 ---------------------------------------------------------------------
      1          1           0        1.667233    2.905078    0.000000
      2          1           0        1.667233    1.519907    0.000000
      3          1           0        0.833616    1.798831    0.000000
      4          1           0        0.833616    0.413661    0.000000
      5          1           0        0.000000    0.692585    0.000000
      6          1           0       -0.000000   -0.692585    0.000000
      7          1           0       -0.833616   -0.413661    0.000000
      8          1           0       -0.833616   -1.798831    0.000000
      9          1           0       -1.667233   -1.519907    0.000000
     10          1           0       -1.667233   -2.905078    0.000000
 ---------------------------------------------------------------------
 Rotational constants (GHZ):    312.6584883     12.0638259     11.6156402
 General basis read from cards:  (5D, 7F)
 There are     5 symmetry adapted cartesian basis functions of AG  symmetry.
 There are     0 symmetry adapted cartesian basis functions of BG  symmetry.
 There are     0 symmetry adapted cartesian basis functions of AU  symmetry.
 There are     5 symmetry adapted cartesian basis functions of BU  symmetry.
 There are     5 symmetry adapted basis functions of AG  symmetry.
 There are     0 symmetry adapted basis functions of BG  symmetry.
 There are     0 symmetry adapted basis functions of AU  symmetry.
 There are     5 symmetry adapted basis functions of BU  symmetry.
    10 basis functions,   100 primitive gaussians,    10 cartesian basis functions
     5 alpha electrons        5 beta electrons
       nuclear repulsion energy        12.0095991100 Hartrees.
 NAtoms=   10 NActive=   10 NUniq=    5 SFac= 4.00D+00 NAtFMM=   60 NAOKFM=F Big=F
 Integral buffers will be    131072 words long.
 Regular integral format.
 Two-electron integral symmetry is turned on.
 One-electron integrals computed using PRISM.
 NBasis=    10 RedAO= T EigKep=  1.82D-01  NBF=     5     0     0     5
 NBsUse=    10 1.00D-06 EigRej= -1.00D+00 NBFU=     5     0     0     5
 Initial guess from the checkpoint file:  "h10.chk"
 B after Tr=     0.000000    0.000000    0.000000
         Rot=    0.999992   -0.000000    0.000000   -0.003879 Ang=  -0.44 deg.
 Initial guess orbital symmetries:
 Alpha Orbitals:
       Occupied  (BG) (BG) (BG) (BG) (BG)
       Virtual   (BG) (BG) (BG) (BG) (BG)
 Beta  Orbitals:
       Occupied  (BG) (BG) (BG) (BG) (BG)
       Virtual   (BG) (BG) (BG) (BG) (BG)
 Initial guess <Sx>= 0.0000 <Sy>= 0.0000 <Sz>= 0.0000 <S**2>= 1.1274 S= 0.6736
 Keep R1 and R2 ints in memory in symmetry-blocked form, NReq=876597.
 Requested convergence on RMS density matrix=1.00D-08 within 128 cycles.
 Requested convergence on MAX density matrix=1.00D-06.
 Requested convergence on             energy=1.00D-06.
 No special actions if energy rises.
 An orbital has undefined symmetry, so N**3 symmetry is turned off.
 Density matrix breaks symmetry, PCut= 1.00D-04
 Density matrix has no symmetry -- integrals replicated.
 Density matrix breaks symmetry, PCut= 1.00D-07
 Density matrix has no symmetry -- integrals replicated.
 Density matrix breaks symmetry, PCut= 1.00D-07
 Density matrix has no symmetry -- integrals replicated.
 Density matrix breaks symmetry, PCut= 1.00D-07
 Density matrix has no symmetry -- integrals replicated.
 Density matrix breaks symmetry, PCut= 1.00D-07
 Density matrix has no symmetry -- integrals replicated.
 Density matrix breaks symmetry, PCut= 1.00D-07
 Density matrix has no symmetry -- integrals replicated.
 Density matrix breaks symmetry, PCut= 1.00D-07
 Density matrix has no symmetry -- integrals replicated.
 Density matrix breaks symmetry, PCut= 1.00D-07
 Density matrix has no symmetry -- integrals replicated.
 Density matrix breaks symmetry, PCut= 1.00D-07
 Density matrix has no symmetry -- integrals replicated.
 Density matrix breaks symmetry, PCut= 1.00D-07
 Density matrix has no symmetry -- integrals replicated.
 Density matrix breaks symmetry, PCut= 1.00D-07
 Density matrix has no symmetry -- integrals replicated.
 Density matrix breaks symmetry, PCut= 1.00D-07
 Density matrix has no symmetry -- integrals replicated.
 Density matrix breaks symmetry, PCut= 1.00D-07
 Density matrix has no symmetry -- integrals replicated.
 Density matrix breaks symmetry, PCut= 1.00D-07
 Density matrix has no symmetry -- integrals replicated.
 SCF Done:  E(UHF) =  -4.93765688075     A.U. after   13 cycles
            NFock= 13  Conv=0.19D-08     -V/T= 1.8890
 <Sx>= 0.0000 <Sy>= 0.0000 <Sz>= 0.0000 <S**2>= 1.0996 S= 0.6617
 <L.S>= 0.000000000000E+00
 Annihilation of the first spin contaminant:
 S**2 before annihilation     1.0996,   after     0.8187
 Range of M.O.s used for correlation:     1    10
 NBasis=    10 NAE=     5 NBE=     5 NFC=     0 NFV=     0
 NROrb=     10 NOA=     5 NOB=     5 NVA=     5 NVB=     5
 Semi-Direct transformation.
 ModeAB=           2 MOrb=             5 LenV=     134110287
 LASXX=         1030 LTotXX=        1030 LenRXX=        1030
 LTotAB=        1825 MaxLAS=        2750 LenRXY=        2750
 NonZer=        2750 LenScr=      655360 LnRSAI=           0
 LnScr1=           0 LExtra=           0 Total=       659140
 MaxDsk=          -1 SrtSym=           F ITran=            3
 JobTyp=1 Pass  1:  I=   1 to   5.
 (rs|ai) integrals will be sorted in core.
 ModeAB=           2 MOrb=             5 LenV=     134110287
 LASXX=         1030 LTotXX=        1030 LenRXX=        2750
 LTotAB=         225 MaxLAS=        2750 LenRXY=         225
 NonZer=        2750 LenScr=      655360 LnRSAI=           0
 LnScr1=           0 LExtra=           0 Total=       658335
 MaxDsk=          -1 SrtSym=           F ITran=            3
 JobTyp=2 Pass  1:  I=   1 to   5.
 (rs|ai) integrals will be sorted in core.
 SymMOI:  orbitals are not symmetric.
 Spin components of T(2) and E(2):
     alpha-alpha T2 =       0.7126035114D-03 E2=     -0.1298096155D-02
     alpha-beta  T2 =       0.3055226852D-01 E2=     -0.5433458552D-01
     beta-beta   T2 =       0.7126035115D-03 E2=     -0.1298096155D-02
 ANorm=    0.1015862922D+01
 E2 =    -0.5693077783D-01 EUMP2 =    -0.49945876585835D+01
 (S**2,0)=  0.10996D+01           (S**2,1)=  0.10671D+01
 E(PUHF)=      -0.49635983595D+01        E(PMP2)=      -0.50202616875D+01
 Second order stability test of a single determinant UHF wave function:
 Stabil:  MDV=134217728
 ***********************************************************************
 Matrix         Lowest Root    Major Pairs
 ***********************************************************************



 Internal UHF    -0.0027815    5B=6B 5A=6A 4A=6A 4B=6B 1A=10A 1B=10B 3B=8B 3A=8A 
 2A=6A 2B=6B 3A=7A 3B=7B 2A=9A 2B=9B 4A=8A 4B=8B 3B=6B 3A=6A 4B=9B 4A=9A 5A=9A 5B
 =9B 5B=7B 5A=7A
 RUHF --> CUHF (A)0.1144785    Stable
 RUHF --> CUHF (B)0.1144785    Stable



 RUHF --> GHF    -0.0273721    5B=6A 5A=6B 5B=7A 5A=7B 4A=6B 4B=6A 4B=7A 4A=7B 3B
 =8A 3A=8B 1B=10A 1A=10B 2A=9B 2B=9A 5B=8A 5A=8B 3B=6A 3A=6B 4B=9A 4A=9B 2B=6A 2A
 =6B
 Not stable.
 ***********************************************************************

 **********************************************************************

            Population analysis using the SCF density.

 **********************************************************************

 Orbital symmetries:
 Alpha Orbitals:
       Occupied  (BG) (BG) (BG) (BG) (BG)
       Virtual   (BG) (BG) (BG) (BG) (BG)
 Beta  Orbitals:
       Occupied  (BG) (BG) (BG) (BG) (BG)
       Virtual   (BG) (BG) (BG) (BG) (BG)
 Unable to determine electronic state:  partially filled degenerate orbitals.
 Alpha  occ. eigenvalues --   -0.79064  -0.71327  -0.58839  -0.42973  -0.29645
 Alpha virt. eigenvalues --    0.11237   0.23751   0.24087   0.42137   0.60407
  Beta  occ. eigenvalues --   -0.79064  -0.71327  -0.58839  -0.42973  -0.29645
  Beta virt. eigenvalues --    0.11237   0.23751   0.24087   0.42137   0.60407
          Condensed to atoms (all electrons):
               1          2          3          4          5          6
     1  H    1.308455  -0.174945  -0.040757  -0.015937   0.008294   0.000944
     2  H   -0.174945   1.011703   0.488729  -0.154232  -0.155130   0.011642
     3  H   -0.040757   0.488729   0.658439  -0.077149  -0.128749  -0.000648
     4  H   -0.015937  -0.154232  -0.077149   0.907751   0.599875  -0.191616
     5  H    0.008294  -0.155130  -0.128749   0.599875   1.017295  -0.147825
     6  H    0.000944   0.011642  -0.000648  -0.191616  -0.147825   1.017295
     7  H    0.000252   0.010664   0.003192  -0.124766  -0.191616   0.599875
     8  H   -0.000033   0.000026   0.000628   0.003192  -0.000648  -0.128749
     9  H   -0.000046  -0.000437   0.000026   0.010664   0.011642  -0.155130
    10  H    0.000006  -0.000046  -0.000033   0.000252   0.000944   0.008294
               7          8          9         10
     1  H    0.000252  -0.000033  -0.000046   0.000006
     2  H    0.010664   0.000026  -0.000437  -0.000046
     3  H    0.003192   0.000628   0.000026  -0.000033
     4  H   -0.124766   0.003192   0.010664   0.000252
     5  H   -0.191616  -0.000648   0.011642   0.000944
     6  H    0.599875  -0.128749  -0.155130   0.008294
     7  H    0.907751  -0.077149  -0.154232  -0.015937
     8  H   -0.077149   0.658439   0.488729  -0.040757
     9  H   -0.154232   0.488729   1.011703  -0.174945
    10  H   -0.015937  -0.040757  -0.174945   1.308455
          Atomic-Atomic Spin Densities.
               1          2          3          4          5          6
     1  H    1.229181  -0.249973  -0.125983   0.008593   0.024269  -0.001176
     2  H   -0.249973   0.520073   0.062721   0.005482  -0.071484   0.002536
     3  H   -0.125983   0.062721  -0.173972   0.051750  -0.003401  -0.002023
     4  H    0.008593   0.005482   0.051750  -0.273805  -0.013669   0.053660
     5  H    0.024269  -0.071484  -0.003401  -0.013669   0.316924  -0.000000
     6  H   -0.001176   0.002536  -0.002023   0.053660  -0.000000  -0.316924
     7  H   -0.000948   0.004897  -0.001993   0.000000  -0.053660   0.013669
     8  H   -0.000003  -0.000148   0.000000   0.001993   0.002023   0.003401
     9  H    0.000057  -0.000000   0.000148  -0.004897  -0.002536   0.071484
    10  H   -0.000000  -0.000057   0.000003   0.000948   0.001176  -0.024269
               7          8          9         10
     1  H   -0.000948  -0.000003   0.000057  -0.000000
     2  H    0.004897  -0.000148  -0.000000  -0.000057
     3  H   -0.001993   0.000000   0.000148   0.000003
     4  H    0.000000   0.001993  -0.004897   0.000948
     5  H   -0.053660   0.002023  -0.002536   0.001176
     6  H    0.013669   0.003401   0.071484  -0.024269
     7  H    0.273805  -0.051750  -0.005482  -0.008593
     8  H   -0.051750   0.173972  -0.062721   0.125983
     9  H   -0.005482  -0.062721  -0.520073   0.249973
    10  H   -0.008593   0.125983   0.249973  -1.229181
 Mulliken charges and spin densities:
               1          2
     1  H   -0.086231   0.884016
     2  H   -0.037975   0.274048
     3  H    0.096322  -0.192750
     4  H    0.041965  -0.169944
     5  H   -0.014081   0.199642
     6  H   -0.014081  -0.199642
     7  H    0.041965   0.169944
     8  H    0.096322   0.192750
     9  H   -0.037975  -0.274048
    10  H   -0.086231  -0.884016
 Sum of Mulliken charges =  -0.00000  -0.00000
 Mulliken charges and spin densities with hydrogens summed into heavy atoms:
               1          2
 Electronic spatial extent (au):  <R**2>=            191.4323
 Charge=             -0.0000 electrons
 Dipole moment (field-independent basis, Debye):
    X=             -0.0000    Y=              0.0000    Z=             -0.0000  Tot=              0.0000
 Quadrupole moment (field-independent basis, Debye-Ang):
   XX=            -15.2993   YY=            -22.2336   ZZ=            -12.5925
   XY=             -6.9279   XZ=              0.0000   YZ=              0.0000
 Traceless Quadrupole moment (field-independent basis, Debye-Ang):
   XX=              1.4092   YY=             -5.5252   ZZ=              4.1160
   XY=             -6.9279   XZ=              0.0000   YZ=              0.0000
 Octapole moment (field-independent basis, Debye-Ang**2):
  XXX=             -0.0000  YYY=              0.0000  ZZZ=             -0.0000  XYY=              0.0000
  XXY=              0.0000  XXZ=             -0.0000  XZZ=             -0.0000  YZZ=             -0.0000
  YYZ=             -0.0000  XYZ=             -0.0000
 Hexadecapole moment (field-independent basis, Debye-Ang**3):
 XXXX=           -133.3407 YYYY=           -372.4113 ZZZZ=            -14.9942 XXXY=            -96.1336
 XXXZ=              0.0000 YYYX=           -143.8436 YYYZ=              0.0000 ZZZX=              0.0000
 ZZZY=              0.0000 XXYY=           -101.2622 XXZZ=            -23.4831 YYZZ=            -45.5867
 XXYZ=              0.0000 YYXZ=              0.0000 ZZXY=            -25.7028
 N-N= 1.200959910997D+01 E-N=-3.381140748563D+01  KE= 5.553859554432D+00
 Symmetry AG   KE= 2.397715900867D+00
 Symmetry BG   KE= 0.000000000000D+00
 Symmetry AU   KE= 0.000000000000D+00
 Symmetry BU   KE= 3.156143653565D+00
                          Isotropic Fermi Contact Couplings
        Atom                 a.u.       MegaHertz       Gauss      10(-4) cm-1
     1  H(1)               0.34595     773.18664     275.89221     257.90730
     2  H(1)               0.14124     315.66558     112.63733     105.29470
     3  H(1)              -0.04975    -111.19784     -39.67815     -37.09161
     4  H(1)              -0.07449    -166.47152     -59.40117     -55.52892
     5  H(1)               0.08523     190.48107      67.96838      63.53765
     6  H(1)              -0.08523    -190.48107     -67.96838     -63.53765
     7  H(1)               0.07449     166.47151      59.40117      55.52892
     8  H(1)               0.04975     111.19784      39.67815      37.09161
     9  H(1)              -0.14124    -315.66558    -112.63733    -105.29470
    10  H(1)              -0.34595    -773.18664    -275.89221    -257.90730
 --------------------------------------------------------
       Center         ----  Spin Dipole Couplings  ----
                      3XX-RR        3YY-RR        3ZZ-RR
 --------------------------------------------------------
     1   Atom       -0.002420     -0.011267      0.013687
     2   Atom       -0.036063      0.039314     -0.003251
     3   Atom        0.066938      0.000272     -0.067209
     4   Atom        0.045890     -0.011066     -0.034824
     5   Atom       -0.016937     -0.004381      0.021318
     6   Atom        0.016937      0.004381     -0.021318
     7   Atom       -0.045890      0.011066      0.034824
     8   Atom       -0.066938     -0.000272      0.067209
     9   Atom        0.036063     -0.039314      0.003251
    10   Atom        0.002420      0.011267     -0.013687
 --------------------------------------------------------
                        XY            XZ            YZ
 --------------------------------------------------------
     1   Atom       -0.020621     -0.000000      0.000000
     2   Atom        0.011072      0.000000     -0.000000
     3   Atom        0.005049     -0.000000     -0.000000
     4   Atom        0.000749      0.000000      0.000000
     5   Atom        0.028119     -0.000000     -0.000000
     6   Atom       -0.028119      0.000000      0.000000
     7   Atom       -0.000749      0.000000      0.000000
     8   Atom       -0.005049      0.000000      0.000000
     9   Atom       -0.011072     -0.000000      0.000000
    10   Atom        0.020621     -0.000000     -0.000000
 --------------------------------------------------------


 ---------------------------------------------------------------------------------
              Anisotropic Spin Dipole Couplings in Principal Axis System
 ---------------------------------------------------------------------------------

       Atom             a.u.   MegaHertz   Gauss  10(-4) cm-1        Axes

              Baa    -0.0279   -14.904    -5.318    -4.971  0.6286  0.7777  0.0000
     1 H(1)   Bbb     0.0137     7.303     2.606     2.436  0.0000  0.0000  1.0000
              Bcc     0.0142     7.601     2.712     2.536  0.7777 -0.6286  0.0000
 
              Baa    -0.0377   -20.091    -7.169    -6.702  0.9898 -0.1424  0.0000
     2 H(1)   Bbb    -0.0033    -1.735    -0.619    -0.579  0.0000  0.0000  1.0000
              Bcc     0.0409    21.826     7.788     7.280  0.1424  0.9898  0.0000
 
              Baa    -0.0672   -35.860   -12.796   -11.962  0.0000  0.0000  1.0000
     3 H(1)   Bbb    -0.0001    -0.058    -0.021    -0.019 -0.0751  0.9972 -0.0000
              Bcc     0.0673    35.918    12.816    11.981  0.9972  0.0751  0.0000
 
              Baa    -0.0348   -18.580    -6.630    -6.198  0.0000  0.0000  1.0000
     4 H(1)   Bbb    -0.0111    -5.910    -2.109    -1.971 -0.0131  0.9999 -0.0000
              Bcc     0.0459    24.490     8.739     8.169  0.9999  0.0131  0.0000
 
              Baa    -0.0395   -21.059    -7.515    -7.025  0.7804 -0.6253  0.0000
     5 H(1)   Bbb     0.0182     9.685     3.456     3.231  0.6253  0.7804 -0.0000
              Bcc     0.0213    11.374     4.059     3.794  0.0000  0.0000  1.0000
 
              Baa    -0.0213   -11.374    -4.059    -3.794  0.0000  0.0000  1.0000
     6 H(1)   Bbb    -0.0182    -9.685    -3.456    -3.231  0.6253  0.7804 -0.0000
              Bcc     0.0395    21.059     7.515     7.025  0.7804 -0.6253  0.0000
 
              Baa    -0.0459   -24.490    -8.739    -8.169  0.9999  0.0131  0.0000
     7 H(1)   Bbb     0.0111     5.910     2.109     1.971 -0.0131  0.9999 -0.0000
              Bcc     0.0348    18.580     6.630     6.198  0.0000  0.0000  1.0000
 
              Baa    -0.0673   -35.918   -12.816   -11.981  0.9972  0.0751  0.0000
     8 H(1)   Bbb     0.0001     0.058     0.021     0.019 -0.0751  0.9972 -0.0000
              Bcc     0.0672    35.860    12.796    11.962  0.0000  0.0000  1.0000
 
              Baa    -0.0409   -21.826    -7.788    -7.280  0.1424  0.9898  0.0000
     9 H(1)   Bbb     0.0033     1.735     0.619     0.579  0.0000  0.0000  1.0000
              Bcc     0.0377    20.091     7.169     6.702  0.9898 -0.1424  0.0000
 
              Baa    -0.0142    -7.601    -2.712    -2.536  0.7777 -0.6286  0.0000
    10 H(1)   Bbb    -0.0137    -7.303    -2.606    -2.436  0.0000  0.0000  1.0000
              Bcc     0.0279    14.904     5.318     4.971  0.6286  0.7777  0.0000
 

 ---------------------------------------------------------------------------------


 Test job not archived.
 1\1\GINC-SULU\Stability\UHF\Gen\H10\UNKNOWN\23-Feb-2017\0\\#uhf/gen sc
 f(tight,novaracc,noincfock,fulldiag) stable(crhf) guess=read geom=nocr
 owd test\\hf stability analysis of h10 triangular lattice, y= 1.313589
 8396745678\\0,1\H\H,1,1.3851703658\H,1,1.3851703658,2,37.\H,2,1.385170
 3658,1,143.,3,0.,0\H,3,1.3851703658,1,180.,2,0.,0\H,4,1.3851703658,2,1
 80.,1,0.,0\H,5,1.3851703658,3,180.,2,0.,0\H,6,1.3851703658,4,180.,1,0.
 ,0\H,7,1.3851703658,5,180.,2,0.,0\H,8,1.3851703658,6,180.,1,0.,0\\Vers
 ion=ES64L-G09RevE.01\HF=-4.9376569\MP2=-4.9945877\PUHF=-4.9635984\PMP2
 -0=-5.0202617\S2=1.099586\S2-1=1.06714\S2A=0.818676\RMSD=1.893e-09\Dip
 ole=0.,0.,0.\Quadrupole=1.0476997,3.0601285,-4.1078282,0.,-5.1507217,0
 .\PG=C02H [SGH(H10)]\\@


 LOVE IS BLIND, THAT'S WHY ALL THE WORLD LOVES A LOUVER.
 Job cpu time:       0 days  0 hours  0 minutes  1.2 seconds.
 File lengths (MBytes):  RWF=     94 Int=      0 D2E=      0 Chk=      2 Scr=      2
 Normal termination of Gaussian 09 at Thu Feb 23 16:13:58 2017.
