 Entering Gaussian System, Link 0=g09
 AtFile(1): H.gbs
            H     0
            S   10   1.00
               1000.000000000000            0.000068713567
                316.227766000000            0.000169141320
                100.000000000000            0.000823394812
                 31.622776600000            0.003425569236
                 10.000000000000            0.013951996000
                  3.162277660000            0.056909313560
                  1.000000000000            0.198286399900
                  0.316227766000            0.496922426700
                  0.100000000000            0.369846276400
                  0.031622776600            0.003752720039
            ****
 Initial command:
 /projects/guscus/apps/gau/g09-e1/g09/l1.exe "/users/lcj1/gaussian/h10/2rows_uhf/ag2bu3/singlet/test/follow37.5/Gau-9144.inp" -scrdir="/users/lcj1/gaussian/h10/2rows_uhf/ag2bu3/singlet/test/follow37.5/"
 Entering Link 1 = /projects/guscus/apps/gau/g09-e1/g09/l1.exe PID=      9145.
  
 Copyright (c) 1988,1990,1992,1993,1995,1998,2003,2009,2015,
            Gaussian, Inc.  All Rights Reserved.
  
 This is part of the Gaussian(R) 09 program.  It is based on
 the Gaussian(R) 03 system (copyright 2003, Gaussian, Inc.),
 the Gaussian(R) 98 system (copyright 1998, Gaussian, Inc.),
 the Gaussian(R) 94 system (copyright 1995, Gaussian, Inc.),
 the Gaussian 92(TM) system (copyright 1992, Gaussian, Inc.),
 the Gaussian 90(TM) system (copyright 1990, Gaussian, Inc.),
 the Gaussian 88(TM) system (copyright 1988, Gaussian, Inc.),
 the Gaussian 86(TM) system (copyright 1986, Carnegie Mellon
 University), and the Gaussian 82(TM) system (copyright 1983,
 Carnegie Mellon University). Gaussian is a federally registered
 trademark of Gaussian, Inc.
  
 This software contains proprietary and confidential information,
 including trade secrets, belonging to Gaussian, Inc.
  
 This software is provided under written license and may be
 used, copied, transmitted, or stored only in accord with that
 written license.
  
 The following legend is applicable only to US Government
 contracts under FAR:
  
                    RESTRICTED RIGHTS LEGEND
  
 Use, reproduction and disclosure by the US Government is
 subject to restrictions as set forth in subparagraphs (a)
 and (c) of the Commercial Computer Software - Restricted
 Rights clause in FAR 52.227-19.
  
 Gaussian, Inc.
 340 Quinnipiac St., Bldg. 40, Wallingford CT 06492
  
  
 ---------------------------------------------------------------
 Warning -- This program may not be used in any manner that
 competes with the business of Gaussian, Inc. or will provide
 assistance to any competitor of Gaussian, Inc.  The licensee
 of this program is prohibited from giving any competitor of
 Gaussian, Inc. access to this program.  By using this program,
 the user acknowledges that Gaussian, Inc. is engaged in the
 business of creating and licensing software in the field of
 computational chemistry and represents and warrants to the
 licensee that it is not a competitor of Gaussian, Inc. and that
 it will not use this program in any manner prohibited above.
 ---------------------------------------------------------------
  

 Cite this work as:
 Gaussian 09, Revision E.01,
 M. J. Frisch, G. W. Trucks, H. B. Schlegel, G. E. Scuseria, 
 M. A. Robb, J. R. Cheeseman, G. Scalmani, V. Barone, B. Mennucci, 
 G. A. Petersson, H. Nakatsuji, M. Caricato, X. Li, H. P. Hratchian, 
 A. F. Izmaylov, J. Bloino, G. Zheng, J. L. Sonnenberg, M. Hada, 
 M. Ehara, K. Toyota, R. Fukuda, J. Hasegawa, M. Ishida, T. Nakajima, 
 Y. Honda, O. Kitao, H. Nakai, T. Vreven, J. A. Montgomery, Jr., 
 J. E. Peralta, F. Ogliaro, M. Bearpark, J. J. Heyd, E. Brothers, 
 K. N. Kudin, V. N. Staroverov, T. Keith, R. Kobayashi, J. Normand, 
 K. Raghavachari, A. Rendell, J. C. Burant, S. S. Iyengar, J. Tomasi, 
 M. Cossi, N. Rega, J. M. Millam, M. Klene, J. E. Knox, J. B. Cross, 
 V. Bakken, C. Adamo, J. Jaramillo, R. Gomperts, R. E. Stratmann, 
 O. Yazyev, A. J. Austin, R. Cammi, C. Pomelli, J. W. Ochterski, 
 R. L. Martin, K. Morokuma, V. G. Zakrzewski, G. A. Voth, 
 P. Salvador, J. J. Dannenberg, S. Dapprich, A. D. Daniels, 
 O. Farkas, J. B. Foresman, J. V. Ortiz, J. Cioslowski, 
 and D. J. Fox, Gaussian, Inc., Wallingford CT, 2013.
 
 ******************************************
 Gaussian 09:  ES64L-G09RevE.01 30-Nov-2015
                23-Feb-2017 
 ******************************************
 %chk=h10.chk
 ----------------------------------------------------------------------
 #uhf/gen scf(tight,novaracc,noincfock,fulldiag) stable(crhf) guess=rea
 d geom=nocrowd test
 ----------------------------------------------------------------------
 1/38=1/1;
 2/12=1,17=6,18=5,40=1/2;
 3/5=7,16=1,25=1,30=1,116=2/1,2,3;
 4/5=1/1;
 5/5=100002,16=1,32=2,38=6/2;
 8/6=1,10=90,11=11/1,4;
 9/8=4,13=1/2;
 6/7=2,8=2,9=2,10=2,28=1/1;
 99/5=1,9=1/99;
 ----------------------------------------------------------------------
 hf stability analysis of h10 triangular lattice, y= 0.7800001708434697
 3
 ----------------------------------------------------------------------
 Symbolic Z-matrix:
 Charge =  0 Multiplicity = 1
 H
 H                    1     1.07531 
 H                    1     1.07531  2     87. 
 H                    2     1.07531  1     93.      3     0.       0
 H                    3     1.07531  1     180.     2     0.       0
 H                    4     1.07531  2     180.     1     0.       0
 H                    5     1.07531  3     180.     2     0.       0
 H                    6     1.07531  4     180.     1     0.       0
 H                    7     1.07531  5     180.     2     0.       0
 H                    8     1.07531  6     180.     1     0.       0
 
                          Input orientation:                          
 ---------------------------------------------------------------------
 Center     Atomic      Atomic             Coordinates (Angstroms)
 Number     Number       Type             X           Y           Z
 ---------------------------------------------------------------------
      1          1           0        0.000000    0.000000    0.000000
      2          1           0        0.000000    0.000000    1.075307
      3          1           0        1.073833    0.000000    0.056277
      4          1           0        1.073833    0.000000    1.131584
      5          1           0        2.147667    0.000000    0.112554
      6          1           0        2.147667    0.000000    1.187861
      7          1           0        3.221500    0.000000    0.168832
      8          1           0        3.221500    0.000000    1.244139
      9          1           0        4.295333    0.000000    0.225109
     10          1           0        4.295333    0.000000    1.300416
 ---------------------------------------------------------------------
                    Distance matrix (angstroms):
                    1          2          3          4          5
     1  H    0.000000
     2  H    1.075307   0.000000
     3  H    1.075307   1.480385   0.000000
     4  H    1.560000   1.075307   1.075307   0.000000
     5  H    2.150614   2.353586   1.075307   1.480385   0.000000
     6  H    2.454279   2.150614   1.560000   1.075307   1.075307
     7  H    3.225921   3.346604   2.150614   2.353586   1.075307
     8  H    3.453396   3.225921   2.454279   2.150614   1.560000
     9  H    4.301228   4.378667   3.225921   3.346604   2.150614
    10  H    4.487869   4.301228   3.453396   3.225921   2.454279
                    6          7          8          9         10
     6  H    0.000000
     7  H    1.480385   0.000000
     8  H    1.075307   1.075307   0.000000
     9  H    2.353586   1.075307   1.480385   0.000000
    10  H    2.150614   1.560000   1.075307   1.075307   0.000000
 Stoichiometry    H10
 Framework group  C2H[SGH(H10)]
 Deg. of freedom     9
 Full point group                 C2H     NOp   4
 Largest Abelian subgroup         C2H     NOp   4
 Largest concise Abelian subgroup C2      NOp   2
                         Standard orientation:                         
 ---------------------------------------------------------------------
 Center     Atomic      Atomic             Coordinates (Angstroms)
 Number     Number       Type             X           Y           Z
 ---------------------------------------------------------------------
      1          1           0        2.147667    0.650208    0.000000
      2          1           0        2.147667   -0.425099    0.000000
      3          1           0        1.073833    0.593931    0.000000
      4          1           0        1.073833   -0.481376    0.000000
      5          1           0        0.000000    0.537654    0.000000
      6          1           0       -0.000000   -0.537654   -0.000000
      7          1           0       -1.073833    0.481376    0.000000
      8          1           0       -1.073833   -0.593931    0.000000
      9          1           0       -2.147667    0.425099    0.000000
     10          1           0       -2.147667   -0.650208    0.000000
 ---------------------------------------------------------------------
 Rotational constants (GHZ):    174.0155650     21.6754073     19.2745644
 General basis read from cards:  (5D, 7F)
 There are     5 symmetry adapted cartesian basis functions of AG  symmetry.
 There are     0 symmetry adapted cartesian basis functions of BG  symmetry.
 There are     0 symmetry adapted cartesian basis functions of AU  symmetry.
 There are     5 symmetry adapted cartesian basis functions of BU  symmetry.
 There are     5 symmetry adapted basis functions of AG  symmetry.
 There are     0 symmetry adapted basis functions of BG  symmetry.
 There are     0 symmetry adapted basis functions of AU  symmetry.
 There are     5 symmetry adapted basis functions of BU  symmetry.
    10 basis functions,   100 primitive gaussians,    10 cartesian basis functions
     5 alpha electrons        5 beta electrons
       nuclear repulsion energy        13.7456330367 Hartrees.
 NAtoms=   10 NActive=   10 NUniq=    5 SFac= 4.00D+00 NAtFMM=   60 NAOKFM=F Big=F
 Integral buffers will be    131072 words long.
 Regular integral format.
 Two-electron integral symmetry is turned on.
 One-electron integrals computed using PRISM.
 NBasis=    10 RedAO= T EigKep=  1.22D-01  NBF=     5     0     0     5
 NBsUse=    10 1.00D-06 EigRej= -1.00D+00 NBFU=     5     0     0     5
 Initial guess from the checkpoint file:  "h10.chk"
 B after Tr=    -0.000000   -0.000000    0.000000
         Rot=    0.999992   -0.000000   -0.000000   -0.003879 Ang=  -0.44 deg.
 Initial guess orbital symmetries:
 Alpha Orbitals:
       Occupied  (BG) (BG) (BG) (BG) (BG)
       Virtual   (BG) (BG) (BG) (BG) (BG)
 Beta  Orbitals:
       Occupied  (BG) (BG) (BG) (BG) (BG)
       Virtual   (BG) (BG) (BG) (BG) (BG)
 Initial guess <Sx>= 0.0000 <Sy>= 0.0000 <Sz>= 0.0000 <S**2>= 0.3891 S= 0.2995
 Keep R1 and R2 ints in memory in symmetry-blocked form, NReq=879439.
 Requested convergence on RMS density matrix=1.00D-08 within 128 cycles.
 Requested convergence on MAX density matrix=1.00D-06.
 Requested convergence on             energy=1.00D-06.
 No special actions if energy rises.
 An orbital has undefined symmetry, so N**3 symmetry is turned off.
 Density matrix breaks symmetry, PCut= 1.00D-04
 Density matrix has no symmetry -- integrals replicated.
 Density matrix breaks symmetry, PCut= 1.00D-07
 Density matrix has no symmetry -- integrals replicated.
 Density matrix breaks symmetry, PCut= 1.00D-07
 Density matrix has no symmetry -- integrals replicated.
 Density matrix breaks symmetry, PCut= 1.00D-07
 Density matrix has no symmetry -- integrals replicated.
 Density matrix breaks symmetry, PCut= 1.00D-07
 Density matrix has no symmetry -- integrals replicated.
 Density matrix breaks symmetry, PCut= 1.00D-07
 Density matrix has no symmetry -- integrals replicated.
 Density matrix breaks symmetry, PCut= 1.00D-07
 Density matrix has no symmetry -- integrals replicated.
 Density matrix breaks symmetry, PCut= 1.00D-07
 Density matrix has no symmetry -- integrals replicated.
 Density matrix breaks symmetry, PCut= 1.00D-07
 Density matrix has no symmetry -- integrals replicated.
 Density matrix breaks symmetry, PCut= 1.00D-07
 Density matrix has no symmetry -- integrals replicated.
 Density matrix breaks symmetry, PCut= 1.00D-07
 Density matrix has no symmetry -- integrals replicated.
 Density matrix breaks symmetry, PCut= 1.00D-07
 Density matrix has no symmetry -- integrals replicated.
 Density matrix breaks symmetry, PCut= 1.00D-07
 Density matrix has no symmetry -- integrals replicated.
 Density matrix breaks symmetry, PCut= 1.00D-07
 Density matrix has no symmetry -- integrals replicated.
 Density matrix breaks symmetry, PCut= 1.00D-07
 Density matrix has no symmetry -- integrals replicated.
 Density matrix breaks symmetry, PCut= 1.00D-07
 Density matrix has no symmetry -- integrals replicated.
 SCF Done:  E(UHF) =  -4.84405106040     A.U. after   15 cycles
            NFock= 15  Conv=0.75D-08     -V/T= 1.9141
 <Sx>= 0.0000 <Sy>= 0.0000 <Sz>= 0.0000 <S**2>= 0.3896 S= 0.2997
 <L.S>= 0.000000000000E+00
 Annihilation of the first spin contaminant:
 S**2 before annihilation     0.3896,   after     0.0421
 Range of M.O.s used for correlation:     1    10
 NBasis=    10 NAE=     5 NBE=     5 NFC=     0 NFV=     0
 NROrb=     10 NOA=     5 NOB=     5 NVA=     5 NVB=     5
 Semi-Direct transformation.
 ModeAB=           2 MOrb=             5 LenV=     134107123
 LASXX=         1030 LTotXX=        1030 LenRXX=        1030
 LTotAB=        1825 MaxLAS=        2750 LenRXY=        2750
 NonZer=        2750 LenScr=      655360 LnRSAI=           0
 LnScr1=           0 LExtra=           0 Total=       659140
 MaxDsk=          -1 SrtSym=           F ITran=            3
 JobTyp=1 Pass  1:  I=   1 to   5.
 (rs|ai) integrals will be sorted in core.
 ModeAB=           2 MOrb=             5 LenV=     134107123
 LASXX=         1030 LTotXX=        1030 LenRXX=        2750
 LTotAB=         225 MaxLAS=        2750 LenRXY=         225
 NonZer=        2750 LenScr=      655360 LnRSAI=           0
 LnScr1=           0 LExtra=           0 Total=       658335
 MaxDsk=          -1 SrtSym=           F ITran=            3
 JobTyp=2 Pass  1:  I=   1 to   5.
 (rs|ai) integrals will be sorted in core.
 SymMOI:  orbitals are not symmetric.
 Spin components of T(2) and E(2):
     alpha-alpha T2 =       0.4855094913D-02 E2=     -0.6348996883D-02
     alpha-beta  T2 =       0.5957245427D-01 E2=     -0.8440461819D-01
     beta-beta   T2 =       0.4855094869D-02 E2=     -0.6348996847D-02
 ANorm=    0.1034061238D+01
 E2 =    -0.9710261192D-01 EUMP2 =    -0.49411536723198D+01
 (S**2,0)=  0.38956D+00           (S**2,1)=  0.33441D+00
 E(PUHF)=      -0.48605132430D+01        E(PMP2)=      -0.49565110155D+01
 Second order stability test of a single determinant UHF wave function:
 Stabil:  MDV=134217728
 ***********************************************************************
 Matrix         Lowest Root    Major Pairs
 ***********************************************************************
 Internal UHF    -0.1347028    5A=6A 5B=6B
 RUHF --> CUHF (A)-0.0153913    5A=6A
 RUHF --> CUHF (B)-0.0153913    5B=6B
 RUHF --> GHF    -0.14793      5B=6A 5A=6B
 Not stable.
 ***********************************************************************

 **********************************************************************

            Population analysis using the SCF density.

 **********************************************************************

 Orbital symmetries:
 Alpha Orbitals:
       Occupied  (BG) (BG) (BG) (BG) (BG)
       Virtual   (BG) (BG) (BG) (BG) (BG)
 Beta  Orbitals:
       Occupied  (BG) (BG) (BG) (BG) (BG)
       Virtual   (BG) (BG) (BG) (BG) (BG)
 Unable to determine electronic state:  partially filled degenerate orbitals.
 Alpha  occ. eigenvalues --   -0.87634  -0.72786  -0.54346  -0.43222  -0.28304
 Alpha virt. eigenvalues --   -0.01533   0.20791   0.33379   0.51855   0.91423
  Beta  occ. eigenvalues --   -0.87634  -0.72786  -0.54346  -0.43222  -0.28304
  Beta virt. eigenvalues --   -0.01533   0.20791   0.33379   0.51855   0.91423
          Condensed to atoms (all electrons):
               1          2          3          4          5          6
     1  H    0.919596   0.448175  -0.120345  -0.193243  -0.027926  -0.040902
     2  H    0.448175   0.857835  -0.175049  -0.114073  -0.057645  -0.012915
     3  H   -0.120345  -0.175049   1.071218   0.202376   0.278975  -0.111043
     4  H   -0.193243  -0.114073   0.202376   1.141062  -0.081598   0.242350
     5  H   -0.027926  -0.057645   0.278975  -0.081598   0.794578  -0.037876
     6  H   -0.040902  -0.012915  -0.111043   0.242350  -0.037876   0.794578
     7  H    0.020078   0.009966  -0.062085  -0.114368   0.242350  -0.081598
     8  H    0.009973   0.018226  -0.092811  -0.062085  -0.111043   0.278975
     9  H   -0.001465  -0.001396   0.018226   0.009966  -0.012915  -0.057645
    10  H   -0.001500  -0.001465   0.009973   0.020078  -0.040902  -0.027926
               7          8          9         10
     1  H    0.020078   0.009973  -0.001465  -0.001500
     2  H    0.009966   0.018226  -0.001396  -0.001465
     3  H   -0.062085  -0.092811   0.018226   0.009973
     4  H   -0.114368  -0.062085   0.009966   0.020078
     5  H    0.242350  -0.111043  -0.012915  -0.040902
     6  H   -0.081598   0.278975  -0.057645  -0.027926
     7  H    1.141062   0.202376  -0.114073  -0.193243
     8  H    0.202376   1.071218  -0.175049  -0.120345
     9  H   -0.114073  -0.175049   0.857835   0.448175
    10  H   -0.193243  -0.120345   0.448175   0.919596
          Atomic-Atomic Spin Densities.
               1          2          3          4          5          6
     1  H    0.083130  -0.006830   0.025830  -0.068983   0.024187  -0.002919
     2  H   -0.006830   0.097749  -0.078402   0.039268  -0.007096   0.024259
     3  H    0.025830  -0.078402   0.429564  -0.107117   0.071289  -0.091834
     4  H   -0.068983   0.039268  -0.107117   0.432518  -0.103070   0.056379
     5  H    0.024187  -0.007096   0.071289  -0.103070   0.005374  -0.000000
     6  H   -0.002919   0.024259  -0.091834   0.056379  -0.000000  -0.005374
     7  H    0.000312  -0.000780  -0.000583  -0.000000  -0.056379   0.103070
     8  H   -0.000837   0.000150  -0.000000   0.000583   0.091834  -0.071289
     9  H    0.000009  -0.000000  -0.000150   0.000780  -0.024259   0.007096
    10  H   -0.000000  -0.000009   0.000837  -0.000312   0.002919  -0.024187
               7          8          9         10
     1  H    0.000312  -0.000837   0.000009  -0.000000
     2  H   -0.000780   0.000150  -0.000000  -0.000009
     3  H   -0.000583  -0.000000  -0.000150   0.000837
     4  H   -0.000000   0.000583   0.000780  -0.000312
     5  H   -0.056379   0.091834  -0.024259   0.002919
     6  H    0.103070  -0.071289   0.007096  -0.024187
     7  H   -0.432518   0.107117  -0.039268   0.068983
     8  H    0.107117  -0.429564   0.078402  -0.025830
     9  H   -0.039268   0.078402  -0.097749   0.006830
    10  H    0.068983  -0.025830   0.006830  -0.083130
 Mulliken charges and spin densities:
               1          2
     1  H   -0.012442   0.053899
     2  H    0.028342   0.068310
     3  H   -0.019434   0.249434
     4  H   -0.050466   0.250047
     5  H    0.054001   0.004800
     6  H    0.054001  -0.004800
     7  H   -0.050466  -0.250047
     8  H   -0.019434  -0.249434
     9  H    0.028342  -0.068310
    10  H   -0.012442  -0.053899
 Sum of Mulliken charges =  -0.00000  -0.00000
 Mulliken charges and spin densities with hydrogens summed into heavy atoms:
               1          2
 Electronic spatial extent (au):  <R**2>=            125.1425
 Charge=             -0.0000 electrons
 Dipole moment (field-independent basis, Debye):
    X=              0.0000    Y=              0.0000    Z=             -0.0000  Tot=              0.0000
 Quadrupole moment (field-independent basis, Debye-Ang):
   XX=            -17.2905   YY=            -13.3076   ZZ=            -12.7607
   XY=             -0.4850   XZ=              0.0000   YZ=             -0.0000
 Traceless Quadrupole moment (field-independent basis, Debye-Ang):
   XX=             -2.8376   YY=              1.1453   ZZ=              1.6923
   XY=             -0.4850   XZ=              0.0000   YZ=             -0.0000
 Octapole moment (field-independent basis, Debye-Ang**2):
  XXX=              0.0000  YYY=              0.0000  ZZZ=             -0.0000  XYY=              0.0000
  XXY=              0.0000  XXZ=             -0.0000  XZZ=              0.0000  YZZ=              0.0000
  YYZ=             -0.0000  XYZ=             -0.0000
 Hexadecapole moment (field-independent basis, Debye-Ang**3):
 XXXX=           -259.2525 YYYY=            -40.3941 ZZZZ=            -15.2602 XXXY=            -10.0924
 XXXZ=              0.0000 YYYX=             -4.7186 YYYZ=             -0.0000 ZZZX=              0.0000
 ZZZY=             -0.0000 XXYY=            -38.0195 XXZZ=            -37.1886 YYZZ=             -9.2552
 XXYZ=              0.0000 YYXZ=              0.0000 ZZXY=             -1.7353
 N-N= 1.374563303673D+01 E-N=-3.675258139209D+01  KE= 5.299050310455D+00
 Symmetry AG   KE= 1.714018962569D+00
 Symmetry BG   KE= 0.000000000000D+00
 Symmetry AU   KE= 0.000000000000D+00
 Symmetry BU   KE= 3.585031347887D+00
                          Isotropic Fermi Contact Couplings
        Atom                 a.u.       MegaHertz       Gauss      10(-4) cm-1
     1  H(1)               0.02410      53.87142      19.22266      17.96957
     2  H(1)               0.02893      64.64662      23.06752      21.56379
     3  H(1)               0.11674     260.91349      93.10042      87.03137
     4  H(1)               0.11725     262.03946      93.50219      87.40695
     5  H(1)               0.00185       4.13912       1.47694       1.38066
     6  H(1)              -0.00185      -4.13912      -1.47694      -1.38066
     7  H(1)              -0.11725    -262.03946     -93.50219     -87.40695
     8  H(1)              -0.11674    -260.91349     -93.10042     -87.03137
     9  H(1)              -0.02893     -64.64662     -23.06752     -21.56379
    10  H(1)              -0.02410     -53.87142     -19.22266     -17.96957
 --------------------------------------------------------
       Center         ----  Spin Dipole Couplings  ----
                      3XX-RR        3YY-RR        3ZZ-RR
 --------------------------------------------------------
     1   Atom        0.037108     -0.008575     -0.028533
     2   Atom        0.037812     -0.009049     -0.028764
     3   Atom       -0.012237      0.022674     -0.010438
     4   Atom       -0.012786      0.022768     -0.009982
     5   Atom       -0.000061      0.001154     -0.001093
     6   Atom        0.000061     -0.001154      0.001093
     7   Atom        0.012786     -0.022768      0.009982
     8   Atom        0.012237     -0.022674      0.010438
     9   Atom       -0.037812      0.009049      0.028764
    10   Atom       -0.037108      0.008575      0.028533
 --------------------------------------------------------
                        XY            XZ            YZ
 --------------------------------------------------------
     1   Atom       -0.003267      0.000000      0.000000
     2   Atom        0.008825      0.000000     -0.000000
     3   Atom       -0.006433      0.000000      0.000000
     4   Atom        0.004098      0.000000     -0.000000
     5   Atom        0.013559      0.000000      0.000000
     6   Atom       -0.013559      0.000000     -0.000000
     7   Atom       -0.004098      0.000000      0.000000
     8   Atom        0.006433      0.000000     -0.000000
     9   Atom       -0.008825      0.000000      0.000000
    10   Atom        0.003267      0.000000     -0.000000
 --------------------------------------------------------


 ---------------------------------------------------------------------------------
              Anisotropic Spin Dipole Couplings in Principal Axis System
 ---------------------------------------------------------------------------------

       Atom             a.u.   MegaHertz   Gauss  10(-4) cm-1        Axes

              Baa    -0.0285   -15.224    -5.432    -5.078  0.0000  0.0000  1.0000
     1 H(1)   Bbb    -0.0088    -4.699    -1.677    -1.568  0.0710  0.9975 -0.0000
              Bcc     0.0373    19.923     7.109     6.646  0.9975 -0.0710  0.0000
 
              Baa    -0.0288   -15.347    -5.476    -5.119  0.0000  0.0000  1.0000
     2 H(1)   Bbb    -0.0107    -5.685    -2.029    -1.896 -0.1791  0.9838  0.0000
              Bcc     0.0394    21.032     7.505     7.016  0.9838  0.1791  0.0000
 
              Baa    -0.0134    -7.141    -2.548    -2.382  0.9845  0.1756  0.0000
     3 H(1)   Bbb    -0.0104    -5.569    -1.987    -1.858  0.0000  0.0000  1.0000
              Bcc     0.0238    12.710     4.535     4.240 -0.1756  0.9845  0.0000
 
              Baa    -0.0133    -7.071    -2.523    -2.359  0.9936 -0.1130  0.0000
     4 H(1)   Bbb    -0.0100    -5.326    -1.900    -1.777  0.0000  0.0000  1.0000
              Bcc     0.0232    12.397     4.423     4.135  0.1130  0.9936  0.0000
 
              Baa    -0.0130    -6.950    -2.480    -2.318  0.7227 -0.6911  0.0000
     5 H(1)   Bbb    -0.0011    -0.583    -0.208    -0.195  0.0000  0.0000  1.0000
              Bcc     0.0141     7.533     2.688     2.513  0.6911  0.7227  0.0000
 
              Baa    -0.0141    -7.533    -2.688    -2.513  0.6911  0.7227  0.0000
     6 H(1)   Bbb     0.0011     0.583     0.208     0.195  0.0000  0.0000  1.0000
              Bcc     0.0130     6.950     2.480     2.318  0.7227 -0.6911  0.0000
 
              Baa    -0.0232   -12.397    -4.423    -4.135  0.1130  0.9936  0.0000
     7 H(1)   Bbb     0.0100     5.326     1.900     1.777  0.0000  0.0000  1.0000
              Bcc     0.0133     7.071     2.523     2.359  0.9936 -0.1130  0.0000
 
              Baa    -0.0238   -12.710    -4.535    -4.240 -0.1756  0.9845  0.0000
     8 H(1)   Bbb     0.0104     5.569     1.987     1.858  0.0000  0.0000  1.0000
              Bcc     0.0134     7.141     2.548     2.382  0.9845  0.1756  0.0000
 
              Baa    -0.0394   -21.032    -7.505    -7.016  0.9838  0.1791  0.0000
     9 H(1)   Bbb     0.0107     5.685     2.029     1.896 -0.1791  0.9838 -0.0000
              Bcc     0.0288    15.347     5.476     5.119  0.0000  0.0000  1.0000
 
              Baa    -0.0373   -19.923    -7.109    -6.646  0.9975 -0.0710  0.0000
    10 H(1)   Bbb     0.0088     4.699     1.677     1.568  0.0710  0.9975  0.0000
              Bcc     0.0285    15.224     5.432     5.078  0.0000  0.0000  1.0000
 

 ---------------------------------------------------------------------------------


 Test job not archived.
 1\1\GINC-SULU\Stability\UHF\Gen\H10\UNKNOWN\23-Feb-2017\0\\#uhf/gen sc
 f(tight,novaracc,noincfock,fulldiag) stable(crhf) guess=read geom=nocr
 owd test\\hf stability analysis of h10 triangular lattice, y= 0.780000
 17084346973\\0,1\H\H,1,1.0753070212\H,1,1.0753070212,2,87.\H,2,1.07530
 70212,1,93.,3,0.,0\H,3,1.0753070212,1,180.,2,0.,0\H,4,1.0753070212,2,1
 80.,1,0.,0\H,5,1.0753070212,3,180.,2,0.,0\H,6,1.0753070212,4,180.,1,0.
 ,0\H,7,1.0753070212,5,180.,2,0.,0\H,8,1.0753070212,6,180.,1,0.,0\\Vers
 ion=ES64L-G09RevE.01\HF=-4.8440511\MP2=-4.9411537\PUHF=-4.8605132\PMP2
 -0=-4.956511\S2=0.389556\S2-1=0.334412\S2A=0.042098\RMSD=7.535e-09\Dip
 ole=0.,0.,0.\Quadrupole=-2.1096565,1.2581475,0.8515091,0.,-0.3606103,0
 .\PG=C02H [SGH(H10)]\\@


 BLESSED ARE THOSE WHO NOUGHT EXPECT,
 FOR THEY SHALL NOT BE DISAPPOINTED..  WALCOT - ODE TO PITT
 Job cpu time:       0 days  0 hours  0 minutes  1.3 seconds.
 File lengths (MBytes):  RWF=     94 Int=      0 D2E=      0 Chk=      2 Scr=      2
 Normal termination of Gaussian 09 at Thu Feb 23 16:09:01 2017.
