 Entering Gaussian System, Link 0=g09
 AtFile(1): H.gbs
            H     0
            S   10   1.00
               1000.000000000000            0.000068713567
                316.227766000000            0.000169141320
                100.000000000000            0.000823394812
                 31.622776600000            0.003425569236
                 10.000000000000            0.013951996000
                  3.162277660000            0.056909313560
                  1.000000000000            0.198286399900
                  0.316227766000            0.496922426700
                  0.100000000000            0.369846276400
                  0.031622776600            0.003752720039
            ****
 Initial command:
 /projects/guscus/apps/gau/g09-e1/g09/l1.exe "/users/lcj1/gaussian/h10/2rows_uhf/ag2bu3/singlet/test/follow37.5/Gau-10647.inp" -scrdir="/users/lcj1/gaussian/h10/2rows_uhf/ag2bu3/singlet/test/follow37.5/"
 Entering Link 1 = /projects/guscus/apps/gau/g09-e1/g09/l1.exe PID=     10648.
  
 Copyright (c) 1988,1990,1992,1993,1995,1998,2003,2009,2015,
            Gaussian, Inc.  All Rights Reserved.
  
 This is part of the Gaussian(R) 09 program.  It is based on
 the Gaussian(R) 03 system (copyright 2003, Gaussian, Inc.),
 the Gaussian(R) 98 system (copyright 1998, Gaussian, Inc.),
 the Gaussian(R) 94 system (copyright 1995, Gaussian, Inc.),
 the Gaussian 92(TM) system (copyright 1992, Gaussian, Inc.),
 the Gaussian 90(TM) system (copyright 1990, Gaussian, Inc.),
 the Gaussian 88(TM) system (copyright 1988, Gaussian, Inc.),
 the Gaussian 86(TM) system (copyright 1986, Carnegie Mellon
 University), and the Gaussian 82(TM) system (copyright 1983,
 Carnegie Mellon University). Gaussian is a federally registered
 trademark of Gaussian, Inc.
  
 This software contains proprietary and confidential information,
 including trade secrets, belonging to Gaussian, Inc.
  
 This software is provided under written license and may be
 used, copied, transmitted, or stored only in accord with that
 written license.
  
 The following legend is applicable only to US Government
 contracts under FAR:
  
                    RESTRICTED RIGHTS LEGEND
  
 Use, reproduction and disclosure by the US Government is
 subject to restrictions as set forth in subparagraphs (a)
 and (c) of the Commercial Computer Software - Restricted
 Rights clause in FAR 52.227-19.
  
 Gaussian, Inc.
 340 Quinnipiac St., Bldg. 40, Wallingford CT 06492
  
  
 ---------------------------------------------------------------
 Warning -- This program may not be used in any manner that
 competes with the business of Gaussian, Inc. or will provide
 assistance to any competitor of Gaussian, Inc.  The licensee
 of this program is prohibited from giving any competitor of
 Gaussian, Inc. access to this program.  By using this program,
 the user acknowledges that Gaussian, Inc. is engaged in the
 business of creating and licensing software in the field of
 computational chemistry and represents and warrants to the
 licensee that it is not a competitor of Gaussian, Inc. and that
 it will not use this program in any manner prohibited above.
 ---------------------------------------------------------------
  

 Cite this work as:
 Gaussian 09, Revision E.01,
 M. J. Frisch, G. W. Trucks, H. B. Schlegel, G. E. Scuseria, 
 M. A. Robb, J. R. Cheeseman, G. Scalmani, V. Barone, B. Mennucci, 
 G. A. Petersson, H. Nakatsuji, M. Caricato, X. Li, H. P. Hratchian, 
 A. F. Izmaylov, J. Bloino, G. Zheng, J. L. Sonnenberg, M. Hada, 
 M. Ehara, K. Toyota, R. Fukuda, J. Hasegawa, M. Ishida, T. Nakajima, 
 Y. Honda, O. Kitao, H. Nakai, T. Vreven, J. A. Montgomery, Jr., 
 J. E. Peralta, F. Ogliaro, M. Bearpark, J. J. Heyd, E. Brothers, 
 K. N. Kudin, V. N. Staroverov, T. Keith, R. Kobayashi, J. Normand, 
 K. Raghavachari, A. Rendell, J. C. Burant, S. S. Iyengar, J. Tomasi, 
 M. Cossi, N. Rega, J. M. Millam, M. Klene, J. E. Knox, J. B. Cross, 
 V. Bakken, C. Adamo, J. Jaramillo, R. Gomperts, R. E. Stratmann, 
 O. Yazyev, A. J. Austin, R. Cammi, C. Pomelli, J. W. Ochterski, 
 R. L. Martin, K. Morokuma, V. G. Zakrzewski, G. A. Voth, 
 P. Salvador, J. J. Dannenberg, S. Dapprich, A. D. Daniels, 
 O. Farkas, J. B. Foresman, J. V. Ortiz, J. Cioslowski, 
 and D. J. Fox, Gaussian, Inc., Wallingford CT, 2013.
 
 ******************************************
 Gaussian 09:  ES64L-G09RevE.01 30-Nov-2015
                23-Feb-2017 
 ******************************************
 %chk=h10.chk
 ----------------------------------------------------------------------
 #uhf/gen scf(tight,novaracc,noincfock,fulldiag) stable(crhf) guess=rea
 d geom=nocrowd test
 ----------------------------------------------------------------------
 1/38=1/1;
 2/12=1,17=6,18=5,40=1/2;
 3/5=7,16=1,25=1,30=1,116=2/1,2,3;
 4/5=1/1;
 5/5=100002,16=1,32=2,38=6/2;
 8/6=1,10=90,11=11/1,4;
 9/8=4,13=1/2;
 6/7=2,8=2,9=2,10=2,28=1/1;
 99/5=1,9=1/99;
 ----------------------------------------------------------------------
 hf stability analysis of h10 triangular lattice, y= 0.8792984807723166
 5
 ----------------------------------------------------------------------
 Symbolic Z-matrix:
 Charge =  0 Multiplicity = 1
 H
 H                    1     1.0974 
 H                    1     1.0974   2     73.5 
 H                    2     1.0974   1     106.5    3     0.       0
 H                    3     1.0974   1     180.     2     0.       0
 H                    4     1.0974   2     180.     1     0.       0
 H                    5     1.0974   3     180.     2     0.       0
 H                    6     1.0974   4     180.     1     0.       0
 H                    7     1.0974   5     180.     2     0.       0
 H                    8     1.0974   6     180.     1     0.       0
 
                          Input orientation:                          
 ---------------------------------------------------------------------
 Center     Atomic      Atomic             Coordinates (Angstroms)
 Number     Number       Type             X           Y           Z
 ---------------------------------------------------------------------
      1          1           0        0.000000    0.000000    0.000000
      2          1           0        0.000000    0.000000    1.097403
      3          1           0        1.052212    0.000000    0.311679
      4          1           0        1.052212    0.000000    1.409082
      5          1           0        2.104424    0.000000    0.623359
      6          1           0        2.104424    0.000000    1.720762
      7          1           0        3.156635    0.000000    0.935038
      8          1           0        3.156635    0.000000    2.032441
      9          1           0        4.208847    0.000000    1.246717
     10          1           0        4.208847    0.000000    2.344121
 ---------------------------------------------------------------------
                    Distance matrix (angstroms):
                    1          2          3          4          5
     1  H    0.000000
     2  H    1.097403   0.000000
     3  H    1.097403   1.313207   0.000000
     4  H    1.758597   1.097403   1.097403   0.000000
     5  H    2.194806   2.157155   1.097403   1.313207   0.000000
     6  H    2.718386   2.194806   1.758597   1.097403   1.097403
     7  H    3.292209   3.160808   2.194806   2.157155   1.097403
     8  H    3.754353   3.292209   2.718386   2.194806   1.758597
     9  H    4.389613   4.211495   3.292209   3.160808   2.194806
    10  H    4.817603   4.389613   3.754353   3.292209   2.718386
                    6          7          8          9         10
     6  H    0.000000
     7  H    1.313207   0.000000
     8  H    1.097403   1.097403   0.000000
     9  H    2.157155   1.097403   1.313207   0.000000
    10  H    2.194806   1.758597   1.097403   1.097403   0.000000
 Stoichiometry    H10
 Framework group  C2H[SGH(H10)]
 Deg. of freedom     9
 Full point group                 C2H     NOp   4
 Largest Abelian subgroup         C2H     NOp   4
 Largest concise Abelian subgroup C2      NOp   2
                         Standard orientation:                         
 ---------------------------------------------------------------------
 Center     Atomic      Atomic             Coordinates (Angstroms)
 Number     Number       Type             X           Y           Z
 ---------------------------------------------------------------------
      1          1           0        2.104424    1.172060    0.000000
      2          1           0        2.104424    0.074657    0.000000
      3          1           0        1.052212    0.860381    0.000000
      4          1           0        1.052212   -0.237022    0.000000
      5          1           0        0.000000    0.548702    0.000000
      6          1           0       -0.000000   -0.548702    0.000000
      7          1           0       -1.052212    0.237022    0.000000
      8          1           0       -1.052212   -0.860381    0.000000
      9          1           0       -2.104424   -0.074657    0.000000
     10          1           0       -2.104424   -1.172060    0.000000
 ---------------------------------------------------------------------
 Rotational constants (GHZ):    183.2306801     20.5852980     18.5061946
 General basis read from cards:  (5D, 7F)
 There are     5 symmetry adapted cartesian basis functions of AG  symmetry.
 There are     0 symmetry adapted cartesian basis functions of BG  symmetry.
 There are     0 symmetry adapted cartesian basis functions of AU  symmetry.
 There are     5 symmetry adapted cartesian basis functions of BU  symmetry.
 There are     5 symmetry adapted basis functions of AG  symmetry.
 There are     0 symmetry adapted basis functions of BG  symmetry.
 There are     0 symmetry adapted basis functions of AU  symmetry.
 There are     5 symmetry adapted basis functions of BU  symmetry.
    10 basis functions,   100 primitive gaussians,    10 cartesian basis functions
     5 alpha electrons        5 beta electrons
       nuclear repulsion energy        13.5870500388 Hartrees.
 NAtoms=   10 NActive=   10 NUniq=    5 SFac= 4.00D+00 NAtFMM=   60 NAOKFM=F Big=F
 Integral buffers will be    131072 words long.
 Regular integral format.
 Two-electron integral symmetry is turned on.
 One-electron integrals computed using PRISM.
 NBasis=    10 RedAO= T EigKep=  1.41D-01  NBF=     5     0     0     5
 NBsUse=    10 1.00D-06 EigRej= -1.00D+00 NBFU=     5     0     0     5
 Initial guess from the checkpoint file:  "h10.chk"
 B after Tr=    -0.000000   -0.000000    0.000000
         Rot=    0.999992    0.000000   -0.000000   -0.003879 Ang=  -0.44 deg.
 Initial guess orbital symmetries:
 Alpha Orbitals:
       Occupied  (BG) (BG) (BG) (BG) (BG)
       Virtual   (BG) (BG) (BG) (BG) (BG)
 Beta  Orbitals:
       Occupied  (BG) (BG) (BG) (BG) (BG)
       Virtual   (BG) (BG) (BG) (BG) (BG)
 Initial guess <Sx>= 0.0000 <Sy>= 0.0000 <Sz>= 0.0000 <S**2>= 0.4361 S= 0.3283
 Keep R1 and R2 ints in memory in symmetry-blocked form, NReq=879411.
 Requested convergence on RMS density matrix=1.00D-08 within 128 cycles.
 Requested convergence on MAX density matrix=1.00D-06.
 Requested convergence on             energy=1.00D-06.
 No special actions if energy rises.
 An orbital has undefined symmetry, so N**3 symmetry is turned off.
 Density matrix breaks symmetry, PCut= 1.00D-04
 Density matrix has no symmetry -- integrals replicated.
 Density matrix breaks symmetry, PCut= 1.00D-07
 Density matrix has no symmetry -- integrals replicated.
 Density matrix breaks symmetry, PCut= 1.00D-07
 Density matrix has no symmetry -- integrals replicated.
 Density matrix breaks symmetry, PCut= 1.00D-07
 Density matrix has no symmetry -- integrals replicated.
 Density matrix breaks symmetry, PCut= 1.00D-07
 Density matrix has no symmetry -- integrals replicated.
 Density matrix breaks symmetry, PCut= 1.00D-07
 Density matrix has no symmetry -- integrals replicated.
 Density matrix breaks symmetry, PCut= 1.00D-07
 Density matrix has no symmetry -- integrals replicated.
 Density matrix breaks symmetry, PCut= 1.00D-07
 Density matrix has no symmetry -- integrals replicated.
 Density matrix breaks symmetry, PCut= 1.00D-07
 Density matrix has no symmetry -- integrals replicated.
 Density matrix breaks symmetry, PCut= 1.00D-07
 Density matrix has no symmetry -- integrals replicated.
 Density matrix breaks symmetry, PCut= 1.00D-07
 Density matrix has no symmetry -- integrals replicated.
 Density matrix breaks symmetry, PCut= 1.00D-07
 Density matrix has no symmetry -- integrals replicated.
 Density matrix breaks symmetry, PCut= 1.00D-07
 Density matrix has no symmetry -- integrals replicated.
 Density matrix breaks symmetry, PCut= 1.00D-07
 Density matrix has no symmetry -- integrals replicated.
 Density matrix breaks symmetry, PCut= 1.00D-07
 Density matrix has no symmetry -- integrals replicated.
 Density matrix breaks symmetry, PCut= 1.00D-07
 Density matrix has no symmetry -- integrals replicated.
 Density matrix breaks symmetry, PCut= 1.00D-07
 Density matrix has no symmetry -- integrals replicated.
 SCF Done:  E(UHF) =  -4.86152863126     A.U. after   16 cycles
            NFock= 16  Conv=0.67D-08     -V/T= 1.9288
 <Sx>= 0.0000 <Sy>= 0.0000 <Sz>= 0.0000 <S**2>= 0.4390 S= 0.3301
 <L.S>= 0.000000000000E+00
 Annihilation of the first spin contaminant:
 S**2 before annihilation     0.4390,   after     0.0342
 Range of M.O.s used for correlation:     1    10
 NBasis=    10 NAE=     5 NBE=     5 NFC=     0 NFV=     0
 NROrb=     10 NOA=     5 NOB=     5 NVA=     5 NVB=     5
 Semi-Direct transformation.
 ModeAB=           2 MOrb=             5 LenV=     134107291
 LASXX=         1030 LTotXX=        1030 LenRXX=        1030
 LTotAB=        1825 MaxLAS=        2750 LenRXY=        2750
 NonZer=        2750 LenScr=      655360 LnRSAI=           0
 LnScr1=           0 LExtra=           0 Total=       659140
 MaxDsk=          -1 SrtSym=           F ITran=            3
 JobTyp=1 Pass  1:  I=   1 to   5.
 (rs|ai) integrals will be sorted in core.
 ModeAB=           2 MOrb=             5 LenV=     134107291
 LASXX=         1030 LTotXX=        1030 LenRXX=        2750
 LTotAB=         225 MaxLAS=        2750 LenRXY=         225
 NonZer=        2750 LenScr=      655360 LnRSAI=           0
 LnScr1=           0 LExtra=           0 Total=       658335
 MaxDsk=          -1 SrtSym=           F ITran=            3
 JobTyp=2 Pass  1:  I=   1 to   5.
 (rs|ai) integrals will be sorted in core.
 SymMOI:  orbitals are not symmetric.
 Spin components of T(2) and E(2):
     alpha-alpha T2 =       0.4661453333D-02 E2=     -0.6186868608D-02
     alpha-beta  T2 =       0.5559449753D-01 E2=     -0.8004868091D-01
     beta-beta   T2 =       0.4661453346D-02 E2=     -0.6186868618D-02
 ANorm=    0.1031948353D+01
 E2 =    -0.9242241814D-01 EUMP2 =    -0.49539510494018D+01
 (S**2,0)=  0.43900D+00           (S**2,1)=  0.38341D+00
 E(PUHF)=      -0.48783194948D+01        E(PMP2)=      -0.49697191297D+01
 Second order stability test of a single determinant UHF wave function:
 Stabil:  MDV=134217728
 ***********************************************************************
 Matrix         Lowest Root    Major Pairs
 ***********************************************************************
 Internal UHF    -0.0965848    5B=6B 5A=6A
 RUHF --> CUHF (A)0.0081395    Stable
 RUHF --> CUHF (B)0.0081395    Stable
 RUHF --> GHF    -0.1071549    5A=6B 5B=6A
 Not stable.
 ***********************************************************************

 **********************************************************************

            Population analysis using the SCF density.

 **********************************************************************

 Orbital symmetries:
 Alpha Orbitals:
       Occupied  (BG) (BG) (BG) (BG) (BG)
       Virtual   (BG) (BG) (BG) (BG) (BG)
 Beta  Orbitals:
       Occupied  (BG) (BG) (BG) (BG) (BG)
       Virtual   (BG) (BG) (BG) (BG) (BG)
 Unable to determine electronic state:  partially filled degenerate orbitals.
 Alpha  occ. eigenvalues --   -0.87279  -0.73014  -0.54648  -0.41724  -0.29141
 Alpha virt. eigenvalues --   -0.00441   0.21752   0.29686   0.52811   0.79160
  Beta  occ. eigenvalues --   -0.87279  -0.73014  -0.54648  -0.41724  -0.29141
  Beta virt. eigenvalues --   -0.00441   0.21752   0.29686   0.52811   0.79160
          Condensed to atoms (all electrons):
               1          2          3          4          5          6
     1  H    1.008777   0.390238  -0.070492  -0.197223  -0.058434  -0.010708
     2  H    0.390238   0.735346  -0.113383  -0.047205  -0.094753   0.012160
     3  H   -0.070492  -0.113383   0.895611   0.128050   0.323851  -0.136340
     4  H   -0.197223  -0.047205   0.128050   1.232815   0.004892   0.150209
     5  H   -0.058434  -0.094753   0.323851   0.004892   0.861311  -0.088675
     6  H   -0.010708   0.012160  -0.136340   0.150209  -0.088675   0.861311
     7  H    0.019689   0.005565  -0.046539  -0.150957   0.150209   0.004892
     8  H    0.006803   0.012211  -0.047379  -0.046539  -0.136340   0.323851
     9  H   -0.000979  -0.000864   0.012211   0.005565   0.012160  -0.094753
    10  H   -0.001205  -0.000979   0.006803   0.019689  -0.010708  -0.058434
               7          8          9         10
     1  H    0.019689   0.006803  -0.000979  -0.001205
     2  H    0.005565   0.012211  -0.000864  -0.000979
     3  H   -0.046539  -0.047379   0.012211   0.006803
     4  H   -0.150957  -0.046539   0.005565   0.019689
     5  H    0.150209  -0.136340   0.012160  -0.010708
     6  H    0.004892   0.323851  -0.094753  -0.058434
     7  H    1.232815   0.128050  -0.047205  -0.197223
     8  H    0.128050   0.895611  -0.113383  -0.070492
     9  H   -0.047205  -0.113383   0.735346   0.390238
    10  H   -0.197223  -0.070492   0.390238   1.008777
          Atomic-Atomic Spin Densities.
               1          2          3          4          5          6
     1  H    0.050836  -0.015220   0.018712  -0.049401   0.021195   0.000170
     2  H   -0.015220   0.152129  -0.101992   0.083651  -0.025447   0.022214
     3  H    0.018712  -0.101992   0.397426  -0.132539   0.115629  -0.064278
     4  H   -0.049401   0.083651  -0.132539   0.438431  -0.129877   0.041714
     5  H    0.021195  -0.025447   0.115629  -0.129877   0.061074   0.000000
     6  H    0.000170   0.022214  -0.064278   0.041714   0.000000  -0.061074
     7  H    0.000863  -0.000824  -0.000764   0.000000  -0.041714   0.129877
     8  H   -0.000711   0.000304   0.000000   0.000764   0.064278  -0.115629
     9  H    0.000055   0.000000  -0.000304   0.000824  -0.022214   0.025447
    10  H    0.000000  -0.000055   0.000711  -0.000863  -0.000170  -0.021195
               7          8          9         10
     1  H    0.000863  -0.000711   0.000055   0.000000
     2  H   -0.000824   0.000304   0.000000  -0.000055
     3  H   -0.000764   0.000000  -0.000304   0.000711
     4  H    0.000000   0.000764   0.000824  -0.000863
     5  H   -0.041714   0.064278  -0.022214  -0.000170
     6  H    0.129877  -0.115629   0.025447  -0.021195
     7  H   -0.438431   0.132539  -0.083651   0.049401
     8  H    0.132539  -0.397426   0.101992  -0.018712
     9  H   -0.083651   0.101992  -0.152129   0.015220
    10  H    0.049401  -0.018712   0.015220  -0.050836
 Mulliken charges and spin densities:
               1          2
     1  H   -0.086465   0.026499
     2  H    0.101665   0.114760
     3  H    0.047607   0.232599
     4  H   -0.099296   0.252704
     5  H    0.036488   0.042753
     6  H    0.036488  -0.042753
     7  H   -0.099296  -0.252704
     8  H    0.047607  -0.232599
     9  H    0.101665  -0.114760
    10  H   -0.086465  -0.026499
 Sum of Mulliken charges =   0.00000  -0.00000
 Mulliken charges and spin densities with hydrogens summed into heavy atoms:
               1          2
 Electronic spatial extent (au):  <R**2>=            129.3994
 Charge=              0.0000 electrons
 Dipole moment (field-independent basis, Debye):
    X=             -0.0000    Y=             -0.0000    Z=              0.0000  Tot=              0.0000
 Quadrupole moment (field-independent basis, Debye-Ang):
   XX=            -16.5550   YY=            -14.5220   ZZ=            -12.8191
   XY=             -2.1553   XZ=              0.0000   YZ=              0.0000
 Traceless Quadrupole moment (field-independent basis, Debye-Ang):
   XX=             -1.9230   YY=              0.1101   ZZ=              1.8129
   XY=             -2.1553   XZ=              0.0000   YZ=              0.0000
 Octapole moment (field-independent basis, Debye-Ang**2):
  XXX=             -0.0000  YYY=             -0.0000  ZZZ=              0.0000  XYY=             -0.0000
  XXY=             -0.0000  XXZ=              0.0000  XZZ=             -0.0000  YZZ=             -0.0000
  YYZ=              0.0000  XYZ=              0.0000
 Hexadecapole moment (field-independent basis, Debye-Ang**3):
 XXXX=           -239.2297 YYYY=            -58.6652 ZZZZ=            -15.3719 XXXY=            -48.9671
 XXXZ=              0.0000 YYYX=            -29.0960 YYYZ=              0.0000 ZZZX=              0.0000
 ZZZY=              0.0000 XXYY=            -49.0114 XXZZ=            -35.8993 YYZZ=            -12.2895
 XXYZ=              0.0000 YYXZ=              0.0000 ZZXY=             -9.3347
 N-N= 1.358705003882D+01 E-N=-3.641510509340D+01  KE= 5.234055142141D+00
 Symmetry AG   KE= 1.723343379907D+00
 Symmetry BG   KE= 0.000000000000D+00
 Symmetry AU   KE= 0.000000000000D+00
 Symmetry BU   KE= 3.510711762233D+00
                          Isotropic Fermi Contact Couplings
        Atom                 a.u.       MegaHertz       Gauss      10(-4) cm-1
     1  H(1)               0.01420      31.72643      11.32078      10.58280
     2  H(1)               0.04539     101.43567      36.19477      33.83530
     3  H(1)               0.10781     240.95331      85.97813      80.37337
     4  H(1)               0.11761     262.84877      93.79097      87.67691
     5  H(1)               0.01793      40.07234      14.29881      13.36669
     6  H(1)              -0.01793     -40.07234     -14.29881     -13.36669
     7  H(1)              -0.11761    -262.84877     -93.79097     -87.67691
     8  H(1)              -0.10781    -240.95331     -85.97813     -80.37337
     9  H(1)              -0.04539    -101.43567     -36.19477     -33.83530
    10  H(1)              -0.01420     -31.72643     -11.32078     -10.58280
 --------------------------------------------------------
       Center         ----  Spin Dipole Couplings  ----
                      3XX-RR        3YY-RR        3ZZ-RR
 --------------------------------------------------------
     1   Atom        0.029218     -0.001954     -0.027264
     2   Atom        0.032652     -0.004722     -0.027930
     3   Atom       -0.000894      0.015708     -0.014815
     4   Atom       -0.005831      0.015314     -0.009483
     5   Atom       -0.003354      0.006593     -0.003239
     6   Atom        0.003354     -0.006593      0.003239
     7   Atom        0.005831     -0.015314      0.009483
     8   Atom        0.000894     -0.015708      0.014815
     9   Atom       -0.032652      0.004722      0.027930
    10   Atom       -0.029218      0.001954      0.027264
 --------------------------------------------------------
                        XY            XZ            YZ
 --------------------------------------------------------
     1   Atom        0.007332      0.000000      0.000000
     2   Atom        0.020351      0.000000      0.000000
     3   Atom       -0.009845      0.000000      0.000000
     4   Atom       -0.000456      0.000000      0.000000
     5   Atom        0.011171      0.000000      0.000000
     6   Atom       -0.011171      0.000000      0.000000
     7   Atom        0.000456      0.000000      0.000000
     8   Atom        0.009845      0.000000      0.000000
     9   Atom       -0.020351      0.000000      0.000000
    10   Atom       -0.007332      0.000000      0.000000
 --------------------------------------------------------


 ---------------------------------------------------------------------------------
              Anisotropic Spin Dipole Couplings in Principal Axis System
 ---------------------------------------------------------------------------------

       Atom             a.u.   MegaHertz   Gauss  10(-4) cm-1        Axes

              Baa    -0.0273   -14.547    -5.191    -4.852  0.0000  0.0000  1.0000
     1 H(1)   Bbb    -0.0036    -1.917    -0.684    -0.639 -0.2181  0.9759  0.0000
              Bcc     0.0309    16.464     5.875     5.492  0.9759  0.2181  0.0000
 
              Baa    -0.0279   -14.902    -5.317    -4.971  0.0000  0.0000  1.0000
     2 H(1)   Bbb    -0.0137    -7.291    -2.602    -2.432 -0.4023  0.9155  0.0000
              Bcc     0.0416    22.193     7.919     7.403  0.9155  0.4023  0.0000
 
              Baa    -0.0148    -7.904    -2.820    -2.637  0.0000  0.0000  1.0000
     3 H(1)   Bbb    -0.0055    -2.919    -1.041    -0.974  0.9068  0.4215  0.0000
              Bcc     0.0203    10.823     3.862     3.610 -0.4215  0.9068  0.0000
 
              Baa    -0.0095    -5.060    -1.805    -1.688  0.0000  0.0000  1.0000
     4 H(1)   Bbb    -0.0058    -3.116    -1.112    -1.040  0.9998  0.0216  0.0000
              Bcc     0.0153     8.176     2.917     2.727 -0.0216  0.9998  0.0000
 
              Baa    -0.0106    -5.660    -2.020    -1.888  0.8387 -0.5446  0.0000
     5 H(1)   Bbb    -0.0032    -1.728    -0.617    -0.577  0.0000  0.0000  1.0000
              Bcc     0.0138     7.389     2.636     2.465  0.5446  0.8387  0.0000
 
              Baa    -0.0138    -7.389    -2.636    -2.465  0.5446  0.8387  0.0000
     6 H(1)   Bbb     0.0032     1.728     0.617     0.577  0.0000  0.0000  1.0000
              Bcc     0.0106     5.660     2.020     1.888  0.8387 -0.5446  0.0000
 
              Baa    -0.0153    -8.176    -2.917    -2.727 -0.0216  0.9998  0.0000
     7 H(1)   Bbb     0.0058     3.116     1.112     1.040  0.9998  0.0216  0.0000
              Bcc     0.0095     5.060     1.805     1.688  0.0000  0.0000  1.0000
 
              Baa    -0.0203   -10.823    -3.862    -3.610 -0.4215  0.9068  0.0000
     8 H(1)   Bbb     0.0055     2.919     1.041     0.974  0.9068  0.4215  0.0000
              Bcc     0.0148     7.904     2.820     2.637  0.0000  0.0000  1.0000
 
              Baa    -0.0416   -22.193    -7.919    -7.403  0.9155  0.4023  0.0000
     9 H(1)   Bbb     0.0137     7.291     2.602     2.432 -0.4023  0.9155  0.0000
              Bcc     0.0279    14.902     5.317     4.971  0.0000  0.0000  1.0000
 
              Baa    -0.0309   -16.464    -5.875    -5.492  0.9759  0.2181  0.0000
    10 H(1)   Bbb     0.0036     1.917     0.684     0.639 -0.2181  0.9759  0.0000
              Bcc     0.0273    14.547     5.191     4.852  0.0000  0.0000  1.0000
 

 ---------------------------------------------------------------------------------


 Test job not archived.
 1\1\GINC-SULU\Stability\UHF\Gen\H10\UNKNOWN\23-Feb-2017\0\\#uhf/gen sc
 f(tight,novaracc,noincfock,fulldiag) stable(crhf) guess=read geom=nocr
 owd test\\hf stability analysis of h10 triangular lattice, y= 0.879298
 48077231665\\0,1\H\H,1,1.0974031572\H,1,1.0974031572,2,73.5\H,2,1.0974
 031572,1,106.5,3,0.,0\H,3,1.0974031572,1,180.,2,0.,0\H,4,1.0974031572,
 2,180.,1,0.,0\H,5,1.0974031572,3,180.,2,0.,0\H,6,1.0974031572,4,180.,1
 ,0.,0\H,7,1.0974031572,5,180.,2,0.,0\H,8,1.0974031572,6,180.,1,0.,0\\V
 ersion=ES64L-G09RevE.01\HF=-4.8615286\MP2=-4.953951\PUHF=-4.8783195\PM
 P2-0=-4.9697191\S2=0.438995\S2-1=0.383413\S2A=0.034248\RMSD=6.749e-09\
 Dipole=0.,0.,0.\Quadrupole=-1.429678,1.3478579,0.0818201,0.,-1.6024198
 ,0.\PG=C02H [SGH(H10)]\\@


 EXPERIMENTALISTS THINK SILICON IS REALLY FUN TO USE
     ITS PLACE IN NOVEL COMPOUNDS IS CERTAIN TO AMUSE
 THEY SIT ALL DAY IN LABORATORIES MAKING ALL THIS SLUDGE
     "LOADED WITH THE SILICON THEY SAY", TO ME IT LOOKS LIKE FUDGE.
 FOR HAPPY THOUGH THEY BE WITH CRUD, I'D LIKE TO KNOW A LITTLE
      ABOUT THE PI BONDS ON THE EDGE AND SIGMAS IN THE MIDDLE.

 SO LETS DERIVE A WAVEFUNCTION.....6-31G*
     USE AN OPTIMAL GEOMETRY AND SEE WHERE ELECTRONS ARE.
 BUT WHAT OF CORRELATION?  ASKS THE WIRY LITTLE SKEPTIC.
     WE'LL THROW IN PERTURBATION AS AN ELECTRON ANTISEPTIC.
 AND WHEN THE PROGRAM GIVES US ANSWERS IN THEM WE CAN TRUST
     SINCE NOBODY CAN MAKE THE STUFF, WE HAVE NO CHOICE, WE MUST.

 SO THEORY GUYS HAVE GOT IT MADE, IN ROOMS FREE OF POLLUTION.
     INSTEAD OF PROBLEMS WITH THE REFLUX, THEY HAVE ONLY SOLUTIONS.
 AND WHEN THE FEDS ANNOUNCE THE LIST OF CARCINOGENIC TERRORS,
     THE THEORISTS SIT SAFELY AT THEIR TERMINALS FIXING ERRORS.
 IN OTHER WORDS, EXPERIMENTALISTS WILL LIKELY DIE OF CANCER
     FROM WORKING HARD YET FRUITLESSLY...TILL THEORY GIVES THE ANSWER.
          -- THOMAS A. HOLME, 1983
 Job cpu time:       0 days  0 hours  0 minutes  1.3 seconds.
 File lengths (MBytes):  RWF=     94 Int=      0 D2E=      0 Chk=      2 Scr=      2
 Normal termination of Gaussian 09 at Thu Feb 23 16:10:23 2017.
