 Entering Gaussian System, Link 0=g09
 AtFile(1): H.gbs
            H     0
            S   10   1.00
               1000.000000000000            0.000068713567
                316.227766000000            0.000169141320
                100.000000000000            0.000823394812
                 31.622776600000            0.003425569236
                 10.000000000000            0.013951996000
                  3.162277660000            0.056909313560
                  1.000000000000            0.198286399900
                  0.316227766000            0.496922426700
                  0.100000000000            0.369846276400
                  0.031622776600            0.003752720039
            ****
 Initial command:
 /projects/guscus/apps/gau/g09-e1/g09/l1.exe "/users/lcj1/gaussian/h10/2rows_uhf/ag2bu3/singlet/test/follow37.5/Gau-8814.inp" -scrdir="/users/lcj1/gaussian/h10/2rows_uhf/ag2bu3/singlet/test/follow37.5/"
 Entering Link 1 = /projects/guscus/apps/gau/g09-e1/g09/l1.exe PID=      8815.
  
 Copyright (c) 1988,1990,1992,1993,1995,1998,2003,2009,2015,
            Gaussian, Inc.  All Rights Reserved.
  
 This is part of the Gaussian(R) 09 program.  It is based on
 the Gaussian(R) 03 system (copyright 2003, Gaussian, Inc.),
 the Gaussian(R) 98 system (copyright 1998, Gaussian, Inc.),
 the Gaussian(R) 94 system (copyright 1995, Gaussian, Inc.),
 the Gaussian 92(TM) system (copyright 1992, Gaussian, Inc.),
 the Gaussian 90(TM) system (copyright 1990, Gaussian, Inc.),
 the Gaussian 88(TM) system (copyright 1988, Gaussian, Inc.),
 the Gaussian 86(TM) system (copyright 1986, Carnegie Mellon
 University), and the Gaussian 82(TM) system (copyright 1983,
 Carnegie Mellon University). Gaussian is a federally registered
 trademark of Gaussian, Inc.
  
 This software contains proprietary and confidential information,
 including trade secrets, belonging to Gaussian, Inc.
  
 This software is provided under written license and may be
 used, copied, transmitted, or stored only in accord with that
 written license.
  
 The following legend is applicable only to US Government
 contracts under FAR:
  
                    RESTRICTED RIGHTS LEGEND
  
 Use, reproduction and disclosure by the US Government is
 subject to restrictions as set forth in subparagraphs (a)
 and (c) of the Commercial Computer Software - Restricted
 Rights clause in FAR 52.227-19.
  
 Gaussian, Inc.
 340 Quinnipiac St., Bldg. 40, Wallingford CT 06492
  
  
 ---------------------------------------------------------------
 Warning -- This program may not be used in any manner that
 competes with the business of Gaussian, Inc. or will provide
 assistance to any competitor of Gaussian, Inc.  The licensee
 of this program is prohibited from giving any competitor of
 Gaussian, Inc. access to this program.  By using this program,
 the user acknowledges that Gaussian, Inc. is engaged in the
 business of creating and licensing software in the field of
 computational chemistry and represents and warrants to the
 licensee that it is not a competitor of Gaussian, Inc. and that
 it will not use this program in any manner prohibited above.
 ---------------------------------------------------------------
  

 Cite this work as:
 Gaussian 09, Revision E.01,
 M. J. Frisch, G. W. Trucks, H. B. Schlegel, G. E. Scuseria, 
 M. A. Robb, J. R. Cheeseman, G. Scalmani, V. Barone, B. Mennucci, 
 G. A. Petersson, H. Nakatsuji, M. Caricato, X. Li, H. P. Hratchian, 
 A. F. Izmaylov, J. Bloino, G. Zheng, J. L. Sonnenberg, M. Hada, 
 M. Ehara, K. Toyota, R. Fukuda, J. Hasegawa, M. Ishida, T. Nakajima, 
 Y. Honda, O. Kitao, H. Nakai, T. Vreven, J. A. Montgomery, Jr., 
 J. E. Peralta, F. Ogliaro, M. Bearpark, J. J. Heyd, E. Brothers, 
 K. N. Kudin, V. N. Staroverov, T. Keith, R. Kobayashi, J. Normand, 
 K. Raghavachari, A. Rendell, J. C. Burant, S. S. Iyengar, J. Tomasi, 
 M. Cossi, N. Rega, J. M. Millam, M. Klene, J. E. Knox, J. B. Cross, 
 V. Bakken, C. Adamo, J. Jaramillo, R. Gomperts, R. E. Stratmann, 
 O. Yazyev, A. J. Austin, R. Cammi, C. Pomelli, J. W. Ochterski, 
 R. L. Martin, K. Morokuma, V. G. Zakrzewski, G. A. Voth, 
 P. Salvador, J. J. Dannenberg, S. Dapprich, A. D. Daniels, 
 O. Farkas, J. B. Foresman, J. V. Ortiz, J. Cioslowski, 
 and D. J. Fox, Gaussian, Inc., Wallingford CT, 2013.
 
 ******************************************
 Gaussian 09:  ES64L-G09RevE.01 30-Nov-2015
                23-Feb-2017 
 ******************************************
 %chk=h10.chk
 ----------------------------------------------------------------------
 #uhf/gen scf(tight,novaracc,noincfock,fulldiag) stable(crhf) guess=rea
 d geom=nocrowd test
 ----------------------------------------------------------------------
 1/38=1/1;
 2/12=1,17=6,18=5,40=1/2;
 3/5=7,16=1,25=1,30=1,116=2/1,2,3;
 4/5=1/1;
 5/5=100002,16=1,32=2,38=6/2;
 8/6=1,10=90,11=11/1,4;
 9/8=4,13=1/2;
 6/7=2,8=2,9=2,10=2,28=1/1;
 99/5=1,9=1/99;
 ----------------------------------------------------------------------
 hf stability analysis of h10 triangular lattice, y= 0.7598357022583297
 5
 ----------------------------------------------------------------------
 Symbolic Z-matrix:
 Charge =  0 Multiplicity = 1
 H
 H                    1     1.07457 
 H                    1     1.07457  2     90. 
 H                    2     1.07457  1     90.      3     0.       0
 H                    3     1.07457  1     180.     2     0.       0
 H                    4     1.07457  2     180.     1     0.       0
 H                    5     1.07457  3     180.     2     0.       0
 H                    6     1.07457  4     180.     1     0.       0
 H                    7     1.07457  5     180.     2     0.       0
 H                    8     1.07457  6     180.     1     0.       0
 
                          Input orientation:                          
 ---------------------------------------------------------------------
 Center     Atomic      Atomic             Coordinates (Angstroms)
 Number     Number       Type             X           Y           Z
 ---------------------------------------------------------------------
      1          1           0        0.000000    0.000000    0.000000
      2          1           0        0.000000    0.000000    1.074570
      3          1           0        1.074570    0.000000    0.000000
      4          1           0        1.074570    0.000000    1.074570
      5          1           0        2.149140    0.000000    0.000000
      6          1           0        2.149140    0.000000    1.074570
      7          1           0        3.223710    0.000000    0.000000
      8          1           0        3.223710    0.000000    1.074570
      9          1           0        4.298280    0.000000    0.000000
     10          1           0        4.298280    0.000000    1.074570
 ---------------------------------------------------------------------
                    Distance matrix (angstroms):
                    1          2          3          4          5
     1  H    0.000000
     2  H    1.074570   0.000000
     3  H    1.074570   1.519671   0.000000
     4  H    1.519671   1.074570   1.074570   0.000000
     5  H    2.149140   2.402811   1.074570   1.519671   0.000000
     6  H    2.402811   2.149140   1.519671   1.074570   1.074570
     7  H    3.223710   3.398088   2.149140   2.402811   1.074570
     8  H    3.398088   3.223710   2.402811   2.149140   1.519671
     9  H    4.298280   4.430565   3.223710   3.398088   2.149140
    10  H    4.430565   4.298280   3.398088   3.223710   2.402811
                    6          7          8          9         10
     6  H    0.000000
     7  H    1.519671   0.000000
     8  H    1.074570   1.074570   0.000000
     9  H    2.402811   1.074570   1.519671   0.000000
    10  H    2.149140   1.519671   1.074570   1.074570   0.000000
 Stoichiometry    H10
 Framework group  D2H[C2"(H.H),SG(H8)]
 Deg. of freedom     5
 Full point group                 D2H     NOp   8
 Largest Abelian subgroup         D2H     NOp   8
 Largest concise Abelian subgroup D2      NOp   4
                         Standard orientation:                         
 ---------------------------------------------------------------------
 Center     Atomic      Atomic             Coordinates (Angstroms)
 Number     Number       Type             X           Y           Z
 ---------------------------------------------------------------------
      1          1           0        0.000000    2.149140    0.537285
      2          1           0        0.000000    2.149140   -0.537285
      3          1           0        0.000000    1.074570    0.537285
      4          1           0        0.000000    1.074570   -0.537285
      5          1           0        0.000000    0.000000    0.537285
      6          1           0        0.000000   -0.000000   -0.537285
      7          1           0       -0.000000   -1.074570    0.537285
      8          1           0       -0.000000   -1.074570   -0.537285
      9          1           0       -0.000000   -2.149140    0.537285
     10          1           0       -0.000000   -2.149140   -0.537285
 ---------------------------------------------------------------------
 Rotational constants (GHZ):    173.7091423     21.7136428     19.3010158
 General basis read from cards:  (5D, 7F)
 There are     3 symmetry adapted cartesian basis functions of AG  symmetry.
 There are     0 symmetry adapted cartesian basis functions of B1G symmetry.
 There are     0 symmetry adapted cartesian basis functions of B2G symmetry.
 There are     2 symmetry adapted cartesian basis functions of B3G symmetry.
 There are     0 symmetry adapted cartesian basis functions of AU  symmetry.
 There are     3 symmetry adapted cartesian basis functions of B1U symmetry.
 There are     2 symmetry adapted cartesian basis functions of B2U symmetry.
 There are     0 symmetry adapted cartesian basis functions of B3U symmetry.
 There are     3 symmetry adapted basis functions of AG  symmetry.
 There are     0 symmetry adapted basis functions of B1G symmetry.
 There are     0 symmetry adapted basis functions of B2G symmetry.
 There are     2 symmetry adapted basis functions of B3G symmetry.
 There are     0 symmetry adapted basis functions of AU  symmetry.
 There are     3 symmetry adapted basis functions of B1U symmetry.
 There are     2 symmetry adapted basis functions of B2U symmetry.
 There are     0 symmetry adapted basis functions of B3U symmetry.
    10 basis functions,   100 primitive gaussians,    10 cartesian basis functions
     5 alpha electrons        5 beta electrons
       nuclear repulsion energy        13.7510399886 Hartrees.
 NAtoms=   10 NActive=   10 NUniq=    3 SFac= 4.00D+00 NAtFMM=   60 NAOKFM=F Big=F
 Integral buffers will be    131072 words long.
 Regular integral format.
 Two-electron integral symmetry is turned on.
 One-electron integrals computed using PRISM.
 NBasis=    10 RedAO= T EigKep=  1.02D-01  NBF=     3     0     0     2     0     3     2     0
 NBsUse=    10 1.00D-06 EigRej= -1.00D+00 NBFU=     3     0     0     2     0     3     2     0
 Initial guess from the checkpoint file:  "h10.chk"
 B after Tr=    -0.000000   -0.000000   -0.000000
         Rot=   -0.498057    0.501935    0.498057    0.501935 Ang= 239.74 deg.
 Initial guess orbital symmetries:
 Alpha Orbitals:
       Occupied  (B3G) (B3G) (B3G) (B3G) (B3G)
       Virtual   (B3G) (B3G) (B3G) (B3G) (B3G)
 Beta  Orbitals:
       Occupied  (B3G) (B3G) (B3G) (B3G) (B3G)
       Virtual   (B3G) (B3G) (B3G) (B3G) (B3G)
 Initial guess <Sx>= 0.0000 <Sy>= 0.0000 <Sz>= 0.0000 <S**2>= 0.3880 S= 0.2988
 Keep R1 and R2 ints in memory in symmetry-blocked form, NReq=879419.
 Requested convergence on RMS density matrix=1.00D-08 within 128 cycles.
 Requested convergence on MAX density matrix=1.00D-06.
 Requested convergence on             energy=1.00D-06.
 No special actions if energy rises.
 An orbital has undefined symmetry, so N**3 symmetry is turned off.
 Density matrix breaks symmetry, PCut= 1.00D-04
 Density matrix has no symmetry -- integrals replicated.
 Density matrix breaks symmetry, PCut= 1.00D-07
 Density matrix has no symmetry -- integrals replicated.
 Density matrix breaks symmetry, PCut= 1.00D-07
 Density matrix has no symmetry -- integrals replicated.
 Density matrix breaks symmetry, PCut= 1.00D-07
 Density matrix has no symmetry -- integrals replicated.
 Density matrix breaks symmetry, PCut= 1.00D-07
 Density matrix has no symmetry -- integrals replicated.
 Density matrix breaks symmetry, PCut= 1.00D-07
 Density matrix has no symmetry -- integrals replicated.
 Density matrix breaks symmetry, PCut= 1.00D-07
 Density matrix has no symmetry -- integrals replicated.
 Density matrix breaks symmetry, PCut= 1.00D-07
 Density matrix has no symmetry -- integrals replicated.
 Density matrix breaks symmetry, PCut= 1.00D-07
 Density matrix has no symmetry -- integrals replicated.
 Density matrix breaks symmetry, PCut= 1.00D-07
 Density matrix has no symmetry -- integrals replicated.
 Density matrix breaks symmetry, PCut= 1.00D-07
 Density matrix has no symmetry -- integrals replicated.
 Density matrix breaks symmetry, PCut= 1.00D-07
 Density matrix has no symmetry -- integrals replicated.
 Density matrix breaks symmetry, PCut= 1.00D-07
 Density matrix has no symmetry -- integrals replicated.
 Density matrix breaks symmetry, PCut= 1.00D-07
 Density matrix has no symmetry -- integrals replicated.
 Density matrix breaks symmetry, PCut= 1.00D-07
 Density matrix has no symmetry -- integrals replicated.
 Density matrix breaks symmetry, PCut= 1.00D-07
 Density matrix has no symmetry -- integrals replicated.
 SCF Done:  E(UHF) =  -4.84334434523     A.U. after   15 cycles
            NFock= 15  Conv=0.53D-08     -V/T= 1.9136
 <Sx>= 0.0000 <Sy>= 0.0000 <Sz>= 0.0000 <S**2>= 0.3880 S= 0.2987
 <L.S>= 0.000000000000E+00
 Annihilation of the first spin contaminant:
 S**2 before annihilation     0.3880,   after     0.0424
 Range of M.O.s used for correlation:     1    10
 NBasis=    10 NAE=     5 NBE=     5 NFC=     0 NFV=     0
 NROrb=     10 NOA=     5 NOB=     5 NVA=     5 NVB=     5
 Semi-Direct transformation.
 ModeAB=           2 MOrb=             5 LenV=     134106879
 LASXX=         1030 LTotXX=        1030 LenRXX=        1030
 LTotAB=        1825 MaxLAS=        2750 LenRXY=        2750
 NonZer=        2750 LenScr=      655360 LnRSAI=           0
 LnScr1=           0 LExtra=           0 Total=       659140
 MaxDsk=          -1 SrtSym=           F ITran=            3
 JobTyp=1 Pass  1:  I=   1 to   5.
 (rs|ai) integrals will be sorted in core.
 ModeAB=           2 MOrb=             5 LenV=     134106879
 LASXX=         1030 LTotXX=        1030 LenRXX=        2750
 LTotAB=         225 MaxLAS=        2750 LenRXY=         225
 NonZer=        2750 LenScr=      655360 LnRSAI=           0
 LnScr1=           0 LExtra=           0 Total=       658335
 MaxDsk=          -1 SrtSym=           F ITran=            3
 JobTyp=2 Pass  1:  I=   1 to   5.
 (rs|ai) integrals will be sorted in core.
 SymMOI:  orbitals are not symmetric.
 Spin components of T(2) and E(2):
     alpha-alpha T2 =       0.4862450330D-02 E2=     -0.6354807923D-02
     alpha-beta  T2 =       0.5973636730D-01 E2=     -0.8458257199D-01
     beta-beta   T2 =       0.4862450330D-02 E2=     -0.6354807923D-02
 ANorm=    0.1034147605D+01
 E2 =    -0.9729218784D-01 EUMP2 =    -0.49406365330647D+01
 (S**2,0)=  0.38799D+00           (S**2,1)=  0.33287D+00
 E(PUHF)=      -0.48597986900D+01        E(PMP2)=      -0.49559830996D+01
 Second order stability test of a single determinant UHF wave function:
 Stabil:  MDV=134217728
 ***********************************************************************
 Matrix         Lowest Root    Major Pairs
 ***********************************************************************
 Internal UHF    -0.1360674    5A=6A 5B=6B
 RUHF --> CUHF (A)-0.0161806    5A=6A
 RUHF --> CUHF (B)-0.0161806    5B=6B
 RUHF --> GHF    -0.1493876    5B=6A 5A=6B
 Not stable.
 ***********************************************************************

 **********************************************************************

            Population analysis using the SCF density.

 **********************************************************************

 Orbital symmetries:
 Alpha Orbitals:
       Occupied  (B3G) (B3G) (B3G) (?A) (B3G)
       Virtual   (?A) (?A) (B3G) (?A) (?A)
 Beta  Orbitals:
       Occupied  (B3G) (B3G) (B3G) (?A) (B3G)
       Virtual   (?A) (?A) (B3G) (?A) (?A)
 Unable to determine electronic state:  partially filled degenerate orbitals.
 Alpha  occ. eigenvalues --   -0.87643  -0.72774  -0.54335  -0.43271  -0.28273
 Alpha virt. eigenvalues --   -0.01564   0.20757   0.33513   0.51824   0.91888
  Beta  occ. eigenvalues --   -0.87643  -0.72774  -0.54335  -0.43271  -0.28273
  Beta virt. eigenvalues --   -0.01564   0.20757   0.33513   0.51824   0.91888
          Condensed to atoms (all electrons):
               1          2          3          4          5          6
     1  H    0.889335   0.450343  -0.119414  -0.185275  -0.020280  -0.049156
     2  H    0.450343   0.889335  -0.185275  -0.119414  -0.049156  -0.020280
     3  H   -0.119414  -0.185275   1.107848   0.205182   0.261540  -0.097508
     4  H   -0.185275  -0.119414   0.205182   1.107848  -0.097508   0.261540
     5  H   -0.020280  -0.049156   0.261540  -0.097508   0.792036  -0.035870
     6  H   -0.049156  -0.020280  -0.097508   0.261540  -0.035870   0.792036
     7  H    0.019272   0.010119  -0.062705  -0.103730   0.261540  -0.097508
     8  H    0.010119   0.019272  -0.103730  -0.062705  -0.097508   0.261540
     9  H   -0.001486  -0.001466   0.019272   0.010119  -0.020280  -0.049156
    10  H   -0.001466  -0.001486   0.010119   0.019272  -0.049156  -0.020280
               7          8          9         10
     1  H    0.019272   0.010119  -0.001486  -0.001466
     2  H    0.010119   0.019272  -0.001466  -0.001486
     3  H   -0.062705  -0.103730   0.019272   0.010119
     4  H   -0.103730  -0.062705   0.010119   0.019272
     5  H    0.261540  -0.097508  -0.020280  -0.049156
     6  H   -0.097508   0.261540  -0.049156  -0.020280
     7  H    1.107848   0.205182  -0.119414  -0.185275
     8  H    0.205182   1.107848  -0.185275  -0.119414
     9  H   -0.119414  -0.185275   0.889335   0.450343
    10  H   -0.185275  -0.119414   0.450343   0.889335
          Atomic-Atomic Spin Densities.
               1          2          3          4          5          6
     1  H    0.090064  -0.006560   0.031934  -0.073661   0.024333  -0.004742
     2  H   -0.006560   0.090064  -0.073661   0.031934  -0.004742   0.024333
     3  H    0.031934  -0.073661   0.431672  -0.106207   0.063174  -0.097496
     4  H   -0.073661   0.031934  -0.106207   0.431672  -0.097496   0.063174
     5  H    0.024333  -0.004742   0.063174  -0.097496   0.000000  -0.000000
     6  H   -0.004742   0.024333  -0.097496   0.063174  -0.000000  -0.000000
     7  H    0.000215  -0.000813   0.000000  -0.000000  -0.063174   0.097496
     8  H   -0.000813   0.000215  -0.000000  -0.000000   0.097496  -0.063174
     9  H   -0.000000   0.000000  -0.000215   0.000813  -0.024333   0.004742
    10  H   -0.000000   0.000000   0.000813  -0.000215   0.004742  -0.024333
               7          8          9         10
     1  H    0.000215  -0.000813  -0.000000  -0.000000
     2  H   -0.000813   0.000215   0.000000   0.000000
     3  H    0.000000  -0.000000  -0.000215   0.000813
     4  H   -0.000000  -0.000000   0.000813  -0.000215
     5  H   -0.063174   0.097496  -0.024333   0.004742
     6  H    0.097496  -0.063174   0.004742  -0.024333
     7  H   -0.431672   0.106207  -0.031934   0.073661
     8  H    0.106207  -0.431672   0.073661  -0.031934
     9  H   -0.031934   0.073661  -0.090064   0.006560
    10  H    0.073661  -0.031934   0.006560  -0.090064
 Mulliken charges and spin densities:
               1          2
     1  H    0.008007   0.060770
     2  H    0.008007   0.060770
     3  H   -0.035328   0.250014
     4  H   -0.035328   0.250014
     5  H    0.054642   0.000000
     6  H    0.054642  -0.000000
     7  H   -0.035328  -0.250014
     8  H   -0.035328  -0.250014
     9  H    0.008007  -0.060770
    10  H    0.008007  -0.060770
 Sum of Mulliken charges =   0.00000  -0.00000
 Mulliken charges and spin densities with hydrogens summed into heavy atoms:
               1          2
 Electronic spatial extent (au):  <R**2>=            124.9958
 Charge=             -0.0000 electrons
 Dipole moment (field-independent basis, Debye):
    X=              0.0000    Y=              0.0000    Z=             -0.0000  Tot=              0.0000
 Quadrupole moment (field-independent basis, Debye-Ang):
   XX=            -12.7585   YY=            -17.3154   ZZ=            -13.2587
   XY=             -0.0000   XZ=              0.0000   YZ=             -0.0000
 Traceless Quadrupole moment (field-independent basis, Debye-Ang):
   XX=              1.6857   YY=             -2.8712   ZZ=              1.1855
   XY=             -0.0000   XZ=              0.0000   YZ=             -0.0000
 Octapole moment (field-independent basis, Debye-Ang**2):
  XXX=              0.0000  YYY=              0.0000  ZZZ=             -0.0000  XYY=              0.0000
  XXY=              0.0000  XXZ=             -0.0000  XZZ=              0.0000  YZZ=              0.0000
  YYZ=             -0.0000  XYZ=             -0.0000
 Hexadecapole moment (field-independent basis, Debye-Ang**3):
 XXXX=            -15.2561 YYYY=           -259.9771 ZZZZ=            -39.8172 XXXY=             -0.0000
 XXXZ=              0.0000 YYYX=             -0.0000 YYYZ=             -0.0000 ZZZX=              0.0000
 ZZZY=             -0.0000 XXYY=            -37.2324 XXZZ=             -9.1514 YYZZ=            -37.5649
 XXYZ=             -0.0000 YYXZ=              0.0000 ZZXY=             -0.0000
 N-N= 1.375103998862D+01 E-N=-3.676442956556D+01  KE= 5.301577688215D+00
 Symmetry AG   KE= 1.541375481017D+00
 Symmetry B1G  KE= 0.000000000000D+00
 Symmetry B2G  KE= 0.000000000000D+00
 Symmetry B3G  KE= 1.724740906521D-01
 Symmetry AU   KE= 0.000000000000D+00
 Symmetry B1U  KE= 1.151928647076D+00
 Symmetry B2U  KE= 2.435799469470D+00
 Symmetry B3U  KE= 0.000000000000D+00
                          Isotropic Fermi Contact Couplings
        Atom                 a.u.       MegaHertz       Gauss      10(-4) cm-1
     1  H(1)               0.02640      59.00460      21.05431      19.68182
     2  H(1)               0.02640      59.00460      21.05431      19.68182
     3  H(1)               0.11718     261.88567      93.44731      87.35566
     4  H(1)               0.11718     261.88567      93.44732      87.35566
     5  H(1)               0.00000       0.00000       0.00000       0.00000
     6  H(1)              -0.00000      -0.00000      -0.00000      -0.00000
     7  H(1)              -0.11718    -261.88567     -93.44732     -87.35566
     8  H(1)              -0.11718    -261.88567     -93.44731     -87.35566
     9  H(1)              -0.02640     -59.00460     -21.05431     -19.68182
    10  H(1)              -0.02640     -59.00460     -21.05431     -19.68182
 --------------------------------------------------------
       Center         ----  Spin Dipole Couplings  ----
                      3XX-RR        3YY-RR        3ZZ-RR
 --------------------------------------------------------
     1   Atom       -0.028689      0.037703     -0.009014
     2   Atom       -0.028689      0.037703     -0.009014
     3   Atom       -0.010141     -0.012864      0.023005
     4   Atom       -0.010141     -0.012864      0.023005
     5   Atom        0.000000     -0.000000      0.000000
     6   Atom       -0.000000      0.000000     -0.000000
     7   Atom        0.010141      0.012864     -0.023005
     8   Atom        0.010141      0.012864     -0.023005
     9   Atom        0.028689     -0.037703      0.009014
    10   Atom        0.028689     -0.037703      0.009014
 --------------------------------------------------------
                        XY            XZ            YZ
 --------------------------------------------------------
     1   Atom       -0.000000     -0.000000     -0.006029
     2   Atom       -0.000000     -0.000000      0.006029
     3   Atom       -0.000000     -0.000000     -0.005258
     4   Atom       -0.000000      0.000000      0.005258
     5   Atom       -0.000000     -0.000000      0.013567
     6   Atom       -0.000000      0.000000     -0.013567
     7   Atom        0.000000     -0.000000     -0.005258
     8   Atom       -0.000000      0.000000      0.005258
     9   Atom       -0.000000     -0.000000     -0.006029
    10   Atom       -0.000000      0.000000      0.006029
 --------------------------------------------------------


 ---------------------------------------------------------------------------------
              Anisotropic Spin Dipole Couplings in Principal Axis System
 ---------------------------------------------------------------------------------

       Atom             a.u.   MegaHertz   Gauss  10(-4) cm-1        Axes

              Baa    -0.0287   -15.307    -5.462    -5.106  1.0000  0.0000  0.0000
     1 H(1)   Bbb    -0.0098    -5.218    -1.862    -1.741 -0.0000  0.1260  0.9920
              Bcc     0.0385    20.525     7.324     6.846 -0.0000  0.9920 -0.1260
 
              Baa    -0.0287   -15.307    -5.462    -5.106  1.0000  0.0000  0.0000
     2 H(1)   Bbb    -0.0098    -5.218    -1.862    -1.741 -0.0000 -0.1260  0.9920
              Bcc     0.0385    20.525     7.324     6.846 -0.0000  0.9920  0.1260
 
              Baa    -0.0136    -7.266    -2.593    -2.424  0.0000  0.9898  0.1421
     3 H(1)   Bbb    -0.0101    -5.411    -1.931    -1.805  1.0000 -0.0000  0.0000
              Bcc     0.0238    12.677     4.524     4.229 -0.0000 -0.1421  0.9898
 
              Baa    -0.0136    -7.266    -2.593    -2.424  0.0000  0.9898 -0.1421
     4 H(1)   Bbb    -0.0101    -5.411    -1.931    -1.805  1.0000 -0.0000  0.0000
              Bcc     0.0238    12.677     4.524     4.229  0.0000  0.1421  0.9898
 
              Baa    -0.0136    -7.239    -2.583    -2.415  0.0000  0.7071 -0.7071
     5 H(1)   Bbb     0.0000     0.000     0.000     0.000  1.0000  0.0000  0.0000
              Bcc     0.0136     7.239     2.583     2.415 -0.0000  0.7071  0.7071
 
              Baa    -0.0136    -7.239    -2.583    -2.415  0.0000  0.7071  0.7071
     6 H(1)   Bbb    -0.0000    -0.000    -0.000    -0.000  1.0000  0.0000 -0.0000
              Bcc     0.0136     7.239     2.583     2.415 -0.0000  0.7071 -0.7071
 
              Baa    -0.0238   -12.677    -4.524    -4.229  0.0000  0.1421  0.9898
     7 H(1)   Bbb     0.0101     5.411     1.931     1.805  1.0000 -0.0000 -0.0000
              Bcc     0.0136     7.266     2.593     2.424  0.0000  0.9898 -0.1421
 
              Baa    -0.0238   -12.677    -4.524    -4.229 -0.0000 -0.1421  0.9898
     8 H(1)   Bbb     0.0101     5.411     1.931     1.805  1.0000  0.0000  0.0000
              Bcc     0.0136     7.266     2.593     2.424 -0.0000  0.9898  0.1421
 
              Baa    -0.0385   -20.525    -7.324    -6.846  0.0000  0.9920  0.1260
     9 H(1)   Bbb     0.0098     5.218     1.862     1.741  0.0000 -0.1260  0.9920
              Bcc     0.0287    15.307     5.462     5.106  1.0000 -0.0000 -0.0000
 
              Baa    -0.0385   -20.525    -7.324    -6.846  0.0000  0.9920 -0.1260
    10 H(1)   Bbb     0.0098     5.218     1.862     1.741 -0.0000  0.1260  0.9920
              Bcc     0.0287    15.307     5.462     5.106  1.0000 -0.0000  0.0000
 

 ---------------------------------------------------------------------------------


 Test job not archived.
 1\1\GINC-SULU\Stability\UHF\Gen\H10\UNKNOWN\23-Feb-2017\0\\#uhf/gen sc
 f(tight,novaracc,noincfock,fulldiag) stable(crhf) guess=read geom=nocr
 owd test\\hf stability analysis of h10 triangular lattice, y= 0.759835
 70225832975\\0,1\H\H,1,1.0745699318\H,1,1.0745699318,2,90.\H,2,1.07456
 99318,1,90.,3,0.,0\H,3,1.0745699318,1,180.,2,0.,0\H,4,1.0745699318,2,1
 80.,1,0.,0\H,5,1.0745699318,3,180.,2,0.,0\H,6,1.0745699318,4,180.,1,0.
 ,0\H,7,1.0745699318,5,180.,2,0.,0\H,8,1.0745699318,6,180.,1,0.,0\\Vers
 ion=ES64L-G09RevE.01\HF=-4.8433443\MP2=-4.9406365\PUHF=-4.8597987\PMP2
 -0=-4.9559831\S2=0.387993\S2-1=0.332868\S2A=0.042353\RMSD=5.349e-09\Di
 pole=0.,0.,0.\Quadrupole=-2.1346699,1.2532859,0.8813841,0.,0.,0.\PG=D0
 2H [C2"(H1.H1),SG(H8)]\\@


 NATURE GIVES TO EVERY TIME AND SEASON SOME BEAUTY OF ITS OWN.

                                                    --DICKENS
 Job cpu time:       0 days  0 hours  0 minutes  1.2 seconds.
 File lengths (MBytes):  RWF=     94 Int=      0 D2E=      0 Chk=      2 Scr=      2
 Normal termination of Gaussian 09 at Thu Feb 23 16:08:43 2017.
