 Entering Gaussian System, Link 0=g09
 AtFile(1): H.gbs
            H     0
            S   10   1.00
               1000.000000000000            0.000068713567
                316.227766000000            0.000169141320
                100.000000000000            0.000823394812
                 31.622776600000            0.003425569236
                 10.000000000000            0.013951996000
                  3.162277660000            0.056909313560
                  1.000000000000            0.198286399900
                  0.316227766000            0.496922426700
                  0.100000000000            0.369846276400
                  0.031622776600            0.003752720039
            ****
 Initial command:
 /projects/guscus/apps/gau/g09-e1/g09/l1.exe "/users/lcj1/gaussian/h12/rhfstability/cross/mix/Gau-21096.inp" -scrdir="/users/lcj1/gaussian/h12/rhfstability/cross/mix/"
 Entering Link 1 = /projects/guscus/apps/gau/g09-e1/g09/l1.exe PID=     21097.
  
 Copyright (c) 1988,1990,1992,1993,1995,1998,2003,2009,2015,
            Gaussian, Inc.  All Rights Reserved.
  
 This is part of the Gaussian(R) 09 program.  It is based on
 the Gaussian(R) 03 system (copyright 2003, Gaussian, Inc.),
 the Gaussian(R) 98 system (copyright 1998, Gaussian, Inc.),
 the Gaussian(R) 94 system (copyright 1995, Gaussian, Inc.),
 the Gaussian 92(TM) system (copyright 1992, Gaussian, Inc.),
 the Gaussian 90(TM) system (copyright 1990, Gaussian, Inc.),
 the Gaussian 88(TM) system (copyright 1988, Gaussian, Inc.),
 the Gaussian 86(TM) system (copyright 1986, Carnegie Mellon
 University), and the Gaussian 82(TM) system (copyright 1983,
 Carnegie Mellon University). Gaussian is a federally registered
 trademark of Gaussian, Inc.
  
 This software contains proprietary and confidential information,
 including trade secrets, belonging to Gaussian, Inc.
  
 This software is provided under written license and may be
 used, copied, transmitted, or stored only in accord with that
 written license.
  
 The following legend is applicable only to US Government
 contracts under FAR:
  
                    RESTRICTED RIGHTS LEGEND
  
 Use, reproduction and disclosure by the US Government is
 subject to restrictions as set forth in subparagraphs (a)
 and (c) of the Commercial Computer Software - Restricted
 Rights clause in FAR 52.227-19.
  
 Gaussian, Inc.
 340 Quinnipiac St., Bldg. 40, Wallingford CT 06492
  
  
 ---------------------------------------------------------------
 Warning -- This program may not be used in any manner that
 competes with the business of Gaussian, Inc. or will provide
 assistance to any competitor of Gaussian, Inc.  The licensee
 of this program is prohibited from giving any competitor of
 Gaussian, Inc. access to this program.  By using this program,
 the user acknowledges that Gaussian, Inc. is engaged in the
 business of creating and licensing software in the field of
 computational chemistry and represents and warrants to the
 licensee that it is not a competitor of Gaussian, Inc. and that
 it will not use this program in any manner prohibited above.
 ---------------------------------------------------------------
  

 Cite this work as:
 Gaussian 09, Revision E.01,
 M. J. Frisch, G. W. Trucks, H. B. Schlegel, G. E. Scuseria, 
 M. A. Robb, J. R. Cheeseman, G. Scalmani, V. Barone, B. Mennucci, 
 G. A. Petersson, H. Nakatsuji, M. Caricato, X. Li, H. P. Hratchian, 
 A. F. Izmaylov, J. Bloino, G. Zheng, J. L. Sonnenberg, M. Hada, 
 M. Ehara, K. Toyota, R. Fukuda, J. Hasegawa, M. Ishida, T. Nakajima, 
 Y. Honda, O. Kitao, H. Nakai, T. Vreven, J. A. Montgomery, Jr., 
 J. E. Peralta, F. Ogliaro, M. Bearpark, J. J. Heyd, E. Brothers, 
 K. N. Kudin, V. N. Staroverov, T. Keith, R. Kobayashi, J. Normand, 
 K. Raghavachari, A. Rendell, J. C. Burant, S. S. Iyengar, J. Tomasi, 
 M. Cossi, N. Rega, J. M. Millam, M. Klene, J. E. Knox, J. B. Cross, 
 V. Bakken, C. Adamo, J. Jaramillo, R. Gomperts, R. E. Stratmann, 
 O. Yazyev, A. J. Austin, R. Cammi, C. Pomelli, J. W. Ochterski, 
 R. L. Martin, K. Morokuma, V. G. Zakrzewski, G. A. Voth, 
 P. Salvador, J. J. Dannenberg, S. Dapprich, A. D. Daniels, 
 O. Farkas, J. B. Foresman, J. V. Ortiz, J. Cioslowski, 
 and D. J. Fox, Gaussian, Inc., Wallingford CT, 2013.
 
 ******************************************
 Gaussian 09:  ES64L-G09RevE.01 30-Nov-2015
                13-Feb-2017 
 ******************************************
 %chk=h12.chk
 ----------------------------------------------------------------------
 #rhf/gen scf(tight,novaracc,noincfock,fulldiag) stable(crhf) guess=mix
  geom=nocrowd test
 ----------------------------------------------------------------------
 1/38=1/1;
 2/12=1,17=6,18=5,40=1/2;
 3/5=7,16=1,25=1,30=1,116=1/1,2,3;
 4/13=-1/1;
 5/5=100002,16=1,32=2,38=1/2;
 8/6=1,10=90,11=11/1,4;
 9/8=4,13=1/2;
 6/7=2,8=2,9=2,10=2,28=1/1;
 99/5=1,9=1/99;
 ----------------------------------------------------------------------
 hf stability analysis of h10 triangular lattice, y= 0.7868496627299574
 9
 ----------------------------------------------------------------------
 Symbolic Z-matrix:
 Charge =  0 Multiplicity = 1
 H
 H                    1     1.07588 
 H                    1     1.07588  2     86. 
 H                    2     1.07588  1     94.      3     0.       0
 H                    4     1.07588  2     180.     3     0.       0
 H                    5     1.07588  4     180.     3     0.       0
 H                    3     1.07588  1     180.     4     0.       0
 H                    7     1.07588  3     180.     4     0.       0
 H                    3     1.07588  4     180.     1     0.       0
 H                    7     1.07588  5     180.     3     0.       0
 H                    4     1.07588  3     180.     1     0.       0
 H                    5     1.07588  7     180.     3     0.       0
 
                          Input orientation:                          
 ---------------------------------------------------------------------
 Center     Atomic      Atomic             Coordinates (Angstroms)
 Number     Number       Type             X           Y           Z
 ---------------------------------------------------------------------
      1          1           0        0.000000    0.000000    0.000000
      2          1           0        0.000000    0.000000    1.075881
      3          1           0        1.073260    0.000000    0.075050
      4          1           0        1.073260    0.000000    1.150931
      5          1           0        2.146521    0.000000    1.225980
      6          1           0        3.219781    0.000000    1.301030
      7          1           0        2.146521    0.000000    0.150099
      8          1           0        3.219781    0.000000    0.225149
      9          1           0        1.073260    0.000000   -1.000831
     10          1           0        2.146521    0.000000   -0.925782
     11          1           0        1.073260    0.000000    2.226812
     12          1           0        2.146521    0.000000    2.301862
 ---------------------------------------------------------------------
                    Distance matrix (angstroms):
                    1          2          3          4          5
     1  H    0.000000
     2  H    1.075881   0.000000
     3  H    1.075881   1.467498   0.000000
     4  H    1.573699   1.075881   1.075881   0.000000
     5  H    2.471959   2.151762   1.573699   1.075881   0.000000
     6  H    3.472703   3.227643   2.471959   2.151762   1.075881
     7  H    2.151762   2.337653   1.075881   1.467498   1.075881
     8  H    3.227643   3.330275   2.151762   2.337653   1.467498
     9  H    1.467498   2.337653   1.075881   2.151762   2.471959
    10  H    2.337653   2.934997   1.467498   2.337653   2.151762
    11  H    2.471959   1.573699   2.151762   1.075881   1.467498
    12  H    3.147399   2.471959   2.471959   1.573699   1.075881
                    6          7          8          9         10
     6  H    0.000000
     7  H    1.573699   0.000000
     8  H    1.075881   1.075881   0.000000
     9  H    3.147399   1.573699   2.471959   0.000000
    10  H    2.471959   1.075881   1.573699   1.075881   0.000000
    11  H    2.337653   2.337653   2.934997   3.227643   3.330275
    12  H    1.467498   2.151762   2.337653   3.472703   3.227643
                   11         12
    11  H    0.000000
    12  H    1.075881   0.000000
 Stoichiometry    H12
 Framework group  D2H[C2'(H.H),C2"(H.H),SG(H8)]
 Deg. of freedom     6
 Full point group                 D2H     NOp   8
 Largest Abelian subgroup         D2H     NOp   8
 Largest concise Abelian subgroup D2      NOp   4
                         Standard orientation:                         
 ---------------------------------------------------------------------
 Center     Atomic      Atomic             Coordinates (Angstroms)
 Number     Number       Type             X           Y           Z
 ---------------------------------------------------------------------
      1          1           0        0.000000    0.733749    1.573699
      2          1           0       -0.000000    1.467498    0.786850
      3          1           0        0.000000    0.000000    0.786850
      4          1           0       -0.000000    0.733749    0.000000
      5          1           0        0.000000   -0.000000   -0.786850
      6          1           0       -0.000000   -0.733749   -1.573699
      7          1           0       -0.000000   -0.733749   -0.000000
      8          1           0       -0.000000   -1.467498   -0.786850
      9          1           0       -0.000000   -0.733749    1.573699
     10          1           0       -0.000000   -1.467498    0.786850
     11          1           0        0.000000    1.467498   -0.786850
     12          1           0        0.000000    0.733749   -1.573699
 ---------------------------------------------------------------------
 Rotational constants (GHZ):     42.3364201     36.8150898     19.6915903
 General basis read from cards:  (5D, 7F)
 There are     4 symmetry adapted cartesian basis functions of AG  symmetry.
 There are     0 symmetry adapted cartesian basis functions of B1G symmetry.
 There are     0 symmetry adapted cartesian basis functions of B2G symmetry.
 There are     2 symmetry adapted cartesian basis functions of B3G symmetry.
 There are     0 symmetry adapted cartesian basis functions of AU  symmetry.
 There are     3 symmetry adapted cartesian basis functions of B1U symmetry.
 There are     3 symmetry adapted cartesian basis functions of B2U symmetry.
 There are     0 symmetry adapted cartesian basis functions of B3U symmetry.
 There are     4 symmetry adapted basis functions of AG  symmetry.
 There are     0 symmetry adapted basis functions of B1G symmetry.
 There are     0 symmetry adapted basis functions of B2G symmetry.
 There are     2 symmetry adapted basis functions of B3G symmetry.
 There are     0 symmetry adapted basis functions of AU  symmetry.
 There are     3 symmetry adapted basis functions of B1U symmetry.
 There are     3 symmetry adapted basis functions of B2U symmetry.
 There are     0 symmetry adapted basis functions of B3U symmetry.
    12 basis functions,   120 primitive gaussians,    12 cartesian basis functions
     6 alpha electrons        6 beta electrons
       nuclear repulsion energy        20.2138988391 Hartrees.
 NAtoms=   12 NActive=   12 NUniq=    4 SFac= 4.00D+00 NAtFMM=   60 NAOKFM=F Big=F
 Integral buffers will be    131072 words long.
 Regular integral format.
 Two-electron integral symmetry is turned on.
 One-electron integrals computed using PRISM.
 NBasis=    12 RedAO= T EigKep=  1.37D-01  NBF=     4     0     0     2     0     3     3     0
 NBsUse=    12 1.00D-06 EigRej= -1.00D+00 NBFU=     4     0     0     2     0     3     3     0
 ExpMin= 3.16D-02 ExpMax= 1.00D+03 ExpMxC= 1.00D+01 IAcc=3 IRadAn=         5 AccDes= 0.00D+00
 Harris functional with IExCor=  205 and IRadAn=       5 diagonalized for initial guess.
 HarFok:  IExCor=  205 AccDes= 0.00D+00 IRadAn=         5 IDoV= 1 UseB2=F ITyADJ=14
 ICtDFT=  3500011 ScaDFX=  1.000000  1.000000  1.000000  1.000000
 FoFCou: FMM=F IPFlag=           0 FMFlag=      100000 FMFlg1=           0
         NFxFlg=           0 DoJE=T BraDBF=F KetDBF=T FulRan=T
         wScrn=  0.000000 ICntrl=     500 IOpCl=  0 I1Cent=   200000004 NGrid=           0
         NMat0=    1 NMatS0=      1 NMatT0=    0 NMatD0=    1 NMtDS0=    0 NMtDT0=    0
 Petite list used in FoFCou.
 Mixing orbitals, IMix= 1 IMixAn=  0 NRI=1 NE=    6 Coef=  7.07106781D-01  7.07106781D-01
 Initial guess orbital symmetries:
       Occupied  (AG) (B1U) (B2U) (B3G) (AG) (?A)
       Virtual   (?A) (B1U) (B1U) (B2U) (B3G) (AG)
 Keep R1 ints in memory in symmetry-blocked form, NReq=904238.
 Requested convergence on RMS density matrix=1.00D-08 within 128 cycles.
 Requested convergence on MAX density matrix=1.00D-06.
 Requested convergence on             energy=1.00D-06.
 No special actions if energy rises.
 An orbital has undefined symmetry, so N**3 symmetry is turned off.
 Density matrix breaks symmetry, PCut= 1.00D-04
 Density matrix has no symmetry -- integrals replicated.
 Density matrix breaks symmetry, PCut= 1.00D-07
 Density matrix has no symmetry -- integrals replicated.
 Density matrix breaks symmetry, PCut= 1.00D-07
 Density matrix has no symmetry -- integrals replicated.
 Density matrix breaks symmetry, PCut= 1.00D-07
 Density matrix has no symmetry -- integrals replicated.
 Density matrix breaks symmetry, PCut= 1.00D-07
 Density matrix has no symmetry -- integrals replicated.
 Density matrix breaks symmetry, PCut= 1.00D-07
 Density matrix has no symmetry -- integrals replicated.
 Density matrix breaks symmetry, PCut= 1.00D-07
 Density matrix has no symmetry -- integrals replicated.
 Density matrix breaks symmetry, PCut= 1.00D-07
 Density matrix has no symmetry -- integrals replicated.
 Density matrix breaks symmetry, PCut= 1.00D-07
 Density matrix has no symmetry -- integrals replicated.
 Density matrix breaks symmetry, PCut= 1.00D-07
 Density matrix has no symmetry -- integrals replicated.
 Density matrix breaks symmetry, PCut= 1.00D-07
 Density matrix has no symmetry -- integrals replicated.
 Density matrix breaks symmetry, PCut= 1.00D-07
 Density matrix has no symmetry -- integrals replicated.
 SCF Done:  E(RHF) =  -5.91288925481     A.U. after   13 cycles
            NFock= 13  Conv=0.22D-08     -V/T= 1.9498
 Range of M.O.s used for correlation:     1    12
 NBasis=    12 NAE=     6 NBE=     6 NFC=     0 NFV=     0
 NROrb=     12 NOA=     6 NOB=     6 NVA=     6 NVB=     6
 Semi-Direct transformation.
 ModeAB=           2 MOrb=             6 LenV=     134084613
 LASXX=         2181 LTotXX=        2181 LenRXX=        2181
 LTotAB=        2934 MaxLAS=        5616 LenRXY=        5616
 NonZer=        5616 LenScr=      655360 LnRSAI=           0
 LnScr1=           0 LExtra=           0 Total=       663157
 MaxDsk=          -1 SrtSym=           F ITran=            3
 JobTyp=0 Pass  1:  I=   1 to   6.
 (rs|ai) integrals will be sorted in core.
 SymMOI:  orbitals are not symmetric.
 Spin components of T(2) and E(2):
     alpha-alpha T2 =       0.1033200790D-01 E2=     -0.1292540636D-01
     alpha-beta  T2 =       0.8118000263D-01 E2=     -0.1128887218D+00
     beta-beta   T2 =       0.1033200790D-01 E2=     -0.1292540636D-01
 ANorm=    0.1049687581D+01
 E2 =    -0.1387395345D+00 EUMP2 =    -0.60516287893496D+01
 Second order stability test of a single determinant RHF wave function:
 Stabil:  MDV=134217728
 ***********************************************************************
 Matrix         Lowest Root    Major Pairs
 ***********************************************************************
 Internal RHF     0.1508334    Stable
 RRHF --> CRHF    0.1492792    Stable
 RRHF --> RUHF   -0.0245867    6A=8B
 Not stable.
 ***********************************************************************

 **********************************************************************

            Population analysis using the SCF density.

 **********************************************************************

 Orbital symmetries:
       Occupied  (AG) (B1U) (B2U) (B3G) (AG) (AG)
       Virtual   (B2U) (B1U) (B1U) (B2U) (B3G) (AG)
 The electronic state is 1-AG.
 Alpha  occ. eigenvalues --   -0.97193  -0.73976  -0.71273  -0.45105  -0.39578
 Alpha  occ. eigenvalues --   -0.34033
 Alpha virt. eigenvalues --    0.10482   0.11948   0.30380   0.40306   0.44218
 Alpha virt. eigenvalues --    0.84570
          Condensed to atoms (all electrons):
               1          2          3          4          5          6
     1  H    0.836825   0.217660   0.121834  -0.128490  -0.014409   0.016515
     2  H    0.217660   0.931507  -0.171512   0.104691  -0.113198   0.005351
     3  H    0.121834  -0.171512   1.000574   0.088226   0.171281  -0.014409
     4  H   -0.128490   0.104691   0.088226   0.936526   0.088226  -0.102207
     5  H   -0.014409  -0.113198   0.171281   0.088226   1.000574   0.121834
     6  H    0.016515   0.005351  -0.014409  -0.102207   0.121834   0.836825
     7  H   -0.102207  -0.023930   0.088226   0.169235   0.088226  -0.128490
     8  H    0.005351   0.023329  -0.113198  -0.023930  -0.171512   0.217660
     9  H    0.100628  -0.040691   0.121834  -0.102207  -0.014409   0.005887
    10  H   -0.040691   0.010228  -0.171512  -0.023930  -0.113198  -0.032460
    11  H   -0.032460   0.114547  -0.113198   0.104691  -0.171512  -0.040691
    12  H    0.005887  -0.032460  -0.014409  -0.128490   0.121834   0.100628
               7          8          9         10         11         12
     1  H   -0.102207   0.005351   0.100628  -0.040691  -0.032460   0.005887
     2  H   -0.023930   0.023329  -0.040691   0.010228   0.114547  -0.032460
     3  H    0.088226  -0.113198   0.121834  -0.171512  -0.113198  -0.014409
     4  H    0.169235  -0.023930  -0.102207  -0.023930   0.104691  -0.128490
     5  H    0.088226  -0.171512  -0.014409  -0.113198  -0.171512   0.121834
     6  H   -0.128490   0.217660   0.005887  -0.032460  -0.040691   0.100628
     7  H    0.936526   0.104691  -0.128490   0.104691  -0.023930  -0.102207
     8  H    0.104691   0.931507  -0.032460   0.114547   0.010228  -0.040691
     9  H   -0.128490  -0.032460   0.836825   0.217660   0.005351   0.016515
    10  H    0.104691   0.114547   0.217660   0.931507   0.023329   0.005351
    11  H   -0.023930   0.010228   0.005351   0.023329   0.931507   0.217660
    12  H   -0.102207  -0.040691   0.016515   0.005351   0.217660   0.836825
 Mulliken charges:
               1
     1  H    0.013558
     2  H   -0.025521
     3  H    0.006266
     4  H    0.017660
     5  H    0.006266
     6  H    0.013558
     7  H    0.017660
     8  H   -0.025521
     9  H    0.013558
    10  H   -0.025521
    11  H   -0.025521
    12  H    0.013558
 Sum of Mulliken charges =   0.00000
 Mulliken charges with hydrogens summed into heavy atoms:
               1
 Electronic spatial extent (au):  <R**2>=            130.5109
 Charge=             -0.0000 electrons
 Dipole moment (field-independent basis, Debye):
    X=              0.0000    Y=             -0.0000    Z=             -0.0000  Tot=              0.0000
 Quadrupole moment (field-independent basis, Debye-Ang):
   XX=            -15.2940   YY=            -19.9164   ZZ=            -18.0156
   XY=             -0.0000   XZ=              0.0000   YZ=             -0.0000
 Traceless Quadrupole moment (field-independent basis, Debye-Ang):
   XX=              2.4480   YY=             -2.1744   ZZ=             -0.2736
   XY=             -0.0000   XZ=              0.0000   YZ=             -0.0000
 Octapole moment (field-independent basis, Debye-Ang**2):
  XXX=              0.0000  YYY=             -0.0000  ZZZ=             -0.0000  XYY=              0.0000
  XXY=             -0.0000  XXZ=             -0.0000  XZZ=              0.0000  YZZ=             -0.0000
  YYZ=             -0.0000  XYZ=              0.0000
 Hexadecapole moment (field-independent basis, Debye-Ang**3):
 XXXX=            -18.1704 YYYY=           -135.1610 ZZZZ=           -140.3379 XXXY=             -0.0000
 XXXZ=              0.0000 YYYX=             -0.0000 YYYZ=              0.0000 ZZZX=              0.0000
 ZZZY=              0.0000 XXYY=            -23.4337 XXZZ=            -25.2364 YYZZ=            -47.2827
 XXYZ=              0.0000 YYXZ=              0.0000 ZZXY=             -0.0000
 N-N= 2.021389883915D+01 E-N=-5.125608515419D+01  KE= 6.225680743961D+00
 Symmetry AG   KE= 3.427173334764D+00
 Symmetry B1G  KE= 0.000000000000D+00
 Symmetry B2G  KE= 0.000000000000D+00
 Symmetry B3G  KE= 1.223577475332D+00
 Symmetry AU   KE= 0.000000000000D+00
 Symmetry B1U  KE= 7.745123696115D-01
 Symmetry B2U  KE= 8.004175642534D-01
 Symmetry B3U  KE= 0.000000000000D+00

 Test job not archived.
 1\1\GINC-SULU\Stability\RHF\Gen\H12\LCJ1\13-Feb-2017\0\\#rhf/gen scf(t
 ight,novaracc,noincfock,fulldiag) stable(crhf) guess=mix geom=nocrowd 
 test\\hf stability analysis of h10 triangular lattice, y= 0.7868496627
 2995749\\0,1\H\H,1,1.0758811287\H,1,1.0758811287,2,86.\H,2,1.075881128
 7,1,94.,3,0.,0\H,4,1.0758811287,2,180.,3,0.,0\H,5,1.0758811287,4,180.,
 3,0.,0\H,3,1.0758811287,1,180.,4,0.,0\H,7,1.0758811287,3,180.,4,0.,0\H
 ,3,1.0758811287,4,180.,1,0.,0\H,7,1.0758811287,5,180.,3,0.,0\H,4,1.075
 8811287,3,180.,1,0.,0\H,5,1.0758811287,7,180.,3,0.,0\\Version=ES64L-G0
 9RevE.01\State=1-AG\HF=-5.9128893\MP2=-6.0516288\RMSD=2.188e-09\Dipole
 =0.,0.,0.\Quadrupole=-0.959314,1.8200509,-0.8607369,0.,0.7048588,0.\PG
 =D02H [C2'(H1.H1),C2"(H1.H1),SG(H8)]\\@


 You can't act like a skunk without someone's getting wind of it.
 -- Lorene Workman
 Job cpu time:       0 days  0 hours  0 minutes  1.4 seconds.
 File lengths (MBytes):  RWF=     84 Int=      0 D2E=      0 Chk=      2 Scr=      2
 Normal termination of Gaussian 09 at Mon Feb 13 17:38:09 2017.
