 Entering Gaussian System, Link 0=g09
 AtFile(1): H.gbs
            H     0
            S   10   1.00
               1000.000000000000            0.000068713567
                316.227766000000            0.000169141320
                100.000000000000            0.000823394812
                 31.622776600000            0.003425569236
                 10.000000000000            0.013951996000
                  3.162277660000            0.056909313560
                  1.000000000000            0.198286399900
                  0.316227766000            0.496922426700
                  0.100000000000            0.369846276400
                  0.031622776600            0.003752720039
            ****
 Initial command:
 /projects/guscus/apps/gau/g09-e1/g09/l1.exe "/users/lcj1/gaussian/h10/rhfstability/2rows/cart/currentjob/Gau-585.inp" -scrdir="/users/lcj1/gaussian/h10/rhfstability/2rows/cart/currentjob/"
 Entering Link 1 = /projects/guscus/apps/gau/g09-e1/g09/l1.exe PID=       586.
  
 Copyright (c) 1988,1990,1992,1993,1995,1998,2003,2009,2015,
            Gaussian, Inc.  All Rights Reserved.
  
 This is part of the Gaussian(R) 09 program.  It is based on
 the Gaussian(R) 03 system (copyright 2003, Gaussian, Inc.),
 the Gaussian(R) 98 system (copyright 1998, Gaussian, Inc.),
 the Gaussian(R) 94 system (copyright 1995, Gaussian, Inc.),
 the Gaussian 92(TM) system (copyright 1992, Gaussian, Inc.),
 the Gaussian 90(TM) system (copyright 1990, Gaussian, Inc.),
 the Gaussian 88(TM) system (copyright 1988, Gaussian, Inc.),
 the Gaussian 86(TM) system (copyright 1986, Carnegie Mellon
 University), and the Gaussian 82(TM) system (copyright 1983,
 Carnegie Mellon University). Gaussian is a federally registered
 trademark of Gaussian, Inc.
  
 This software contains proprietary and confidential information,
 including trade secrets, belonging to Gaussian, Inc.
  
 This software is provided under written license and may be
 used, copied, transmitted, or stored only in accord with that
 written license.
  
 The following legend is applicable only to US Government
 contracts under FAR:
  
                    RESTRICTED RIGHTS LEGEND
  
 Use, reproduction and disclosure by the US Government is
 subject to restrictions as set forth in subparagraphs (a)
 and (c) of the Commercial Computer Software - Restricted
 Rights clause in FAR 52.227-19.
  
 Gaussian, Inc.
 340 Quinnipiac St., Bldg. 40, Wallingford CT 06492
  
  
 ---------------------------------------------------------------
 Warning -- This program may not be used in any manner that
 competes with the business of Gaussian, Inc. or will provide
 assistance to any competitor of Gaussian, Inc.  The licensee
 of this program is prohibited from giving any competitor of
 Gaussian, Inc. access to this program.  By using this program,
 the user acknowledges that Gaussian, Inc. is engaged in the
 business of creating and licensing software in the field of
 computational chemistry and represents and warrants to the
 licensee that it is not a competitor of Gaussian, Inc. and that
 it will not use this program in any manner prohibited above.
 ---------------------------------------------------------------
  

 Cite this work as:
 Gaussian 09, Revision E.01,
 M. J. Frisch, G. W. Trucks, H. B. Schlegel, G. E. Scuseria, 
 M. A. Robb, J. R. Cheeseman, G. Scalmani, V. Barone, B. Mennucci, 
 G. A. Petersson, H. Nakatsuji, M. Caricato, X. Li, H. P. Hratchian, 
 A. F. Izmaylov, J. Bloino, G. Zheng, J. L. Sonnenberg, M. Hada, 
 M. Ehara, K. Toyota, R. Fukuda, J. Hasegawa, M. Ishida, T. Nakajima, 
 Y. Honda, O. Kitao, H. Nakai, T. Vreven, J. A. Montgomery, Jr., 
 J. E. Peralta, F. Ogliaro, M. Bearpark, J. J. Heyd, E. Brothers, 
 K. N. Kudin, V. N. Staroverov, T. Keith, R. Kobayashi, J. Normand, 
 K. Raghavachari, A. Rendell, J. C. Burant, S. S. Iyengar, J. Tomasi, 
 M. Cossi, N. Rega, J. M. Millam, M. Klene, J. E. Knox, J. B. Cross, 
 V. Bakken, C. Adamo, J. Jaramillo, R. Gomperts, R. E. Stratmann, 
 O. Yazyev, A. J. Austin, R. Cammi, C. Pomelli, J. W. Ochterski, 
 R. L. Martin, K. Morokuma, V. G. Zakrzewski, G. A. Voth, 
 P. Salvador, J. J. Dannenberg, S. Dapprich, A. D. Daniels, 
 O. Farkas, J. B. Foresman, J. V. Ortiz, J. Cioslowski, 
 and D. J. Fox, Gaussian, Inc., Wallingford CT, 2013.
 
 ******************************************
 Gaussian 09:  ES64L-G09RevE.01 30-Nov-2015
                10-Feb-2017 
 ******************************************
 %chk=h10.chk
 ----------------------------------------------------------------------
 # rhf/gen scf(tight,novaracc,noincfock,fulldiag) stable(crhf) guess=mi
 x geom=nocrowd test
 ----------------------------------------------------------------------
 1/38=1/1;
 2/12=1,17=6,18=5,40=1/2;
 3/5=7,16=1,25=1,30=1,116=1/1,2,3;
 4/13=-1/1;
 5/5=100002,16=1,32=2,38=1/2;
 8/6=1,10=90,11=11/1,4;
 9/8=4,13=1/2;
 6/7=2,8=2,9=2,10=2,28=1/1;
 99/5=1,9=1/99;
 ----------------------------------------------------------------------
 scf stability calculation for a triangular configuration of 10 H atoms
  (made up of 8 iscosceles triangles)
 ----------------------------------------------------------------------
 Symbolic Z-matrix:
 Charge =  0 Multiplicity = 1
 H                     0.79634   0.        4.35 
 H                     0.39817   0.        2.9 
 H                     1.19452   0.        2.9 
 H                     0.        0.        1.45 
 H                     0.79634   0.        1.45 
 H                    -0.39817   0.        0. 
 H                     0.39817   0.        0. 
 H                    -0.79634   0.       -1.45 
 H                     0.        0.       -1.45 
 H                    -0.39817   0.       -2.9 
 
                          Input orientation:                          
 ---------------------------------------------------------------------
 Center     Atomic      Atomic             Coordinates (Angstroms)
 Number     Number       Type             X           Y           Z
 ---------------------------------------------------------------------
      1          1           0        0.796344    0.000000    4.350000
      2          1           0        0.398172    0.000000    2.900000
      3          1           0        1.194516    0.000000    2.900000
      4          1           0        0.000000    0.000000    1.450000
      5          1           0        0.796344    0.000000    1.450000
      6          1           0       -0.398172    0.000000    0.000000
      7          1           0        0.398172    0.000000    0.000000
      8          1           0       -0.796344    0.000000   -1.450000
      9          1           0        0.000000    0.000000   -1.450000
     10          1           0       -0.398172    0.000000   -2.900000
 ---------------------------------------------------------------------
                    Distance matrix (angstroms):
                    1          2          3          4          5
     1  H    0.000000
     2  H    1.503676   0.000000
     3  H    1.503676   0.796344   0.000000
     4  H    3.007352   1.503676   1.878661   0.000000
     5  H    2.900000   1.503676   1.503676   0.796344   0.000000
     6  H    4.511027   3.007352   3.308573   1.503676   1.878661
     7  H    4.368185   2.900000   3.007352   1.503676   1.503676
     8  H    6.014703   4.511027   4.783934   3.007352   3.308573
     9  H    5.854414   4.368185   4.511027   2.900000   3.007352
    10  H    7.347746   5.854414   6.014703   4.368185   4.511027
                    6          7          8          9         10
     6  H    0.000000
     7  H    0.796344   0.000000
     8  H    1.503676   1.878661   0.000000
     9  H    1.503676   1.503676   0.796344   0.000000
    10  H    2.900000   3.007352   1.503676   1.503676   0.000000
 Stoichiometry    H10
 Framework group  C2H[SGH(H10)]
 Deg. of freedom     9
 Full point group                 C2H     NOp   4
 Largest Abelian subgroup         C2H     NOp   4
 Largest concise Abelian subgroup C2      NOp   2
                         Standard orientation:                         
 ---------------------------------------------------------------------
 Center     Atomic      Atomic             Coordinates (Angstroms)
 Number     Number       Type             X           Y           Z
 ---------------------------------------------------------------------
      1          1           0        1.535835    3.337447    0.000000
      2          1           0        0.767917    2.044643    0.000000
      3          1           0        1.535835    1.833771    0.000000
      4          1           0        0.000000    0.751838    0.000000
      5          1           0        0.767917    0.540967    0.000000
      6          1           0       -0.767917   -0.540967    0.000000
      7          1           0       -0.000000   -0.751838    0.000000
      8          1           0       -1.535835   -1.833771    0.000000
      9          1           0       -0.767917   -2.044643    0.000000
     10          1           0       -1.535835   -3.337447    0.000000
 ---------------------------------------------------------------------
 Rotational constants (GHZ):    372.5373919     10.1248081      9.8569172
 General basis read from cards:  (5D, 7F)
 There are     5 symmetry adapted cartesian basis functions of AG  symmetry.
 There are     0 symmetry adapted cartesian basis functions of BG  symmetry.
 There are     0 symmetry adapted cartesian basis functions of AU  symmetry.
 There are     5 symmetry adapted cartesian basis functions of BU  symmetry.
 There are     5 symmetry adapted basis functions of AG  symmetry.
 There are     0 symmetry adapted basis functions of BG  symmetry.
 There are     0 symmetry adapted basis functions of AU  symmetry.
 There are     5 symmetry adapted basis functions of BU  symmetry.
    10 basis functions,   100 primitive gaussians,    10 cartesian basis functions
     5 alpha electrons        5 beta electrons
       nuclear repulsion energy        11.5556421359 Hartrees.
 NAtoms=   10 NActive=   10 NUniq=    5 SFac= 4.00D+00 NAtFMM=   60 NAOKFM=F Big=F
 Integral buffers will be    131072 words long.
 Regular integral format.
 Two-electron integral symmetry is turned on.
 One-electron integrals computed using PRISM.
 NBasis=    10 RedAO= T EigKep=  1.74D-01  NBF=     5     0     0     5
 NBsUse=    10 1.00D-06 EigRej= -1.00D+00 NBFU=     5     0     0     5
 ExpMin= 3.16D-02 ExpMax= 1.00D+03 ExpMxC= 1.00D+01 IAcc=3 IRadAn=         5 AccDes= 0.00D+00
 Harris functional with IExCor=  205 and IRadAn=       5 diagonalized for initial guess.
 HarFok:  IExCor=  205 AccDes= 0.00D+00 IRadAn=         5 IDoV= 1 UseB2=F ITyADJ=14
 ICtDFT=  3500011 ScaDFX=  1.000000  1.000000  1.000000  1.000000
 FoFCou: FMM=F IPFlag=           0 FMFlag=      100000 FMFlg1=           0
         NFxFlg=           0 DoJE=T BraDBF=F KetDBF=T FulRan=T
         wScrn=  0.000000 ICntrl=     500 IOpCl=  0 I1Cent=   200000004 NGrid=           0
         NMat0=    1 NMatS0=      1 NMatT0=    0 NMatD0=    1 NMtDS0=    0 NMtDT0=    0
 Petite list used in FoFCou.
 Mixing orbitals, IMix= 1 IMixAn=  0 NRI=1 NE=    5 Coef=  7.07106781D-01  7.07106781D-01
 Initial guess orbital symmetries:
       Occupied  (AG) (BU) (AG) (BU) (?A)
       Virtual   (?A) (BU) (AG) (BU) (AG)
 Keep R1 ints in memory in symmetry-blocked form, NReq=875059.
 Requested convergence on RMS density matrix=1.00D-08 within 128 cycles.
 Requested convergence on MAX density matrix=1.00D-06.
 Requested convergence on             energy=1.00D-06.
 No special actions if energy rises.
 An orbital has undefined symmetry, so N**3 symmetry is turned off.
 Density matrix breaks symmetry, PCut= 1.00D-04
 Density matrix has no symmetry -- integrals replicated.
 Density matrix breaks symmetry, PCut= 1.00D-07
 Density matrix has no symmetry -- integrals replicated.
 Density matrix breaks symmetry, PCut= 1.00D-07
 Density matrix has no symmetry -- integrals replicated.
 EnCoef did    23 forward-backward iterations
 Density matrix breaks symmetry, PCut= 1.00D-07
 Density matrix has no symmetry -- integrals replicated.
 Density matrix breaks symmetry, PCut= 1.00D-07
 Density matrix has no symmetry -- integrals replicated.
 Density matrix breaks symmetry, PCut= 1.00D-07
 Density matrix has no symmetry -- integrals replicated.
 Density matrix breaks symmetry, PCut= 1.00D-07
 Density matrix has no symmetry -- integrals replicated.
 Density matrix breaks symmetry, PCut= 1.00D-07
 Density matrix has no symmetry -- integrals replicated.
 Rare condition: small coef for last iteration:  0.000D+00
 Density matrix breaks symmetry, PCut= 1.00D-07
 Density matrix has no symmetry -- integrals replicated.
 Density matrix breaks symmetry, PCut= 1.00D-07
 Density matrix has no symmetry -- integrals replicated.
 Density matrix breaks symmetry, PCut= 1.00D-07
 Density matrix has no symmetry -- integrals replicated.
 Density matrix breaks symmetry, PCut= 1.00D-07
 Density matrix has no symmetry -- integrals replicated.
 Density matrix breaks symmetry, PCut= 1.00D-07
 Density matrix has no symmetry -- integrals replicated.
 Density matrix breaks symmetry, PCut= 1.00D-07
 Density matrix has no symmetry -- integrals replicated.
 Density matrix breaks symmetry, PCut= 1.00D-07
 Density matrix has no symmetry -- integrals replicated.
 SCF Done:  E(RHF) =  -4.85533711967     A.U. after   16 cycles
            NFock= 16  Conv=0.24D-08     -V/T= 1.9348
 Range of M.O.s used for correlation:     1    10
 NBasis=    10 NAE=     5 NBE=     5 NFC=     0 NFV=     0
 NROrb=     10 NOA=     5 NOB=     5 NVA=     5 NVB=     5

 **** Warning!!: The smallest alpha delta epsilon is  0.98192037D-01

 Semi-Direct transformation.
 ModeAB=           2 MOrb=             5 LenV=     134111587
 LASXX=         1030 LTotXX=        1030 LenRXX=        1030
 LTotAB=        1450 MaxLAS=        2750 LenRXY=        2750
 NonZer=        2750 LenScr=      655360 LnRSAI=           0
 LnScr1=           0 LExtra=           0 Total=       659140
 MaxDsk=          -1 SrtSym=           F ITran=            3
 JobTyp=0 Pass  1:  I=   1 to   5.
 (rs|ai) integrals will be sorted in core.
 SymMOI:  orbitals are not symmetric.
 Spin components of T(2) and E(2):
     alpha-alpha T2 =       0.7721223086D-03 E2=     -0.1291138135D-02
     alpha-beta  T2 =       0.1563203838D+01 E2=     -0.3563236355D+00
     beta-beta   T2 =       0.7721223086D-03 E2=     -0.1291138135D-02
 ANorm=    0.1601483088D+01
 E2 =    -0.3589059117D+00 EUMP2 =    -0.52142430314083D+01
 Second order stability test of a single determinant RHF wave function:
 Stabil:  MDV=134217728
 ***********************************************************************
 Matrix         Lowest Root    Major Pairs
 ***********************************************************************
 Internal RHF     0.1286453    Stable
 RRHF --> CRHF    0.0163493    Stable
 RRHF --> RUHF   -0.475424     5A=6B
 Not stable.
 ***********************************************************************

 **********************************************************************

            Population analysis using the SCF density.

 **********************************************************************

 Orbital symmetries:
       Occupied  (AG) (BU) (AG) (BU) (AG)
       Virtual   (BU) (BU) (AG) (BU) (AG)
 The electronic state is 1-AG.
 Alpha  occ. eigenvalues --   -0.79208  -0.71947  -0.60706  -0.46579  -0.13718
 Alpha virt. eigenvalues --   -0.03898   0.15847   0.27442   0.44238   0.60239
          Condensed to atoms (all electrons):
               1          2          3          4          5          6
     1  H    1.290648  -0.054281  -0.073618  -0.000827  -0.015624   0.000760
     2  H   -0.054281   0.661891   0.494592  -0.101685  -0.062317   0.001677
     3  H   -0.073618   0.494592   0.715588  -0.087009  -0.089214   0.002992
     4  H   -0.000827  -0.101685  -0.087009   0.797490   0.557963  -0.115635
     5  H   -0.015624  -0.062317  -0.089214   0.557963   0.793196  -0.093903
     6  H    0.000760   0.001677   0.002992  -0.115635  -0.093903   0.793196
     7  H    0.002314  -0.004658  -0.002094  -0.073655  -0.115635   0.557963
     8  H   -0.000170   0.000712   0.000464  -0.002094   0.002992  -0.089214
     9  H   -0.000184   0.000853   0.000712  -0.004658   0.001677  -0.062317
    10  H    0.000043  -0.000184  -0.000170   0.002314   0.000760  -0.015624
               7          8          9         10
     1  H    0.002314  -0.000170  -0.000184   0.000043
     2  H   -0.004658   0.000712   0.000853  -0.000184
     3  H   -0.002094   0.000464   0.000712  -0.000170
     4  H   -0.073655  -0.002094  -0.004658   0.002314
     5  H   -0.115635   0.002992   0.001677   0.000760
     6  H    0.557963  -0.089214  -0.062317  -0.015624
     7  H    0.797490  -0.087009  -0.101685  -0.000827
     8  H   -0.087009   0.715588   0.494592  -0.073618
     9  H   -0.101685   0.494592   0.661891  -0.054281
    10  H   -0.000827  -0.073618  -0.054281   1.290648
 Mulliken charges:
               1
     1  H   -0.149060
     2  H    0.063401
     3  H    0.037757
     4  H    0.027796
     5  H    0.020107
     6  H    0.020107
     7  H    0.027796
     8  H    0.037757
     9  H    0.063401
    10  H   -0.149060
 Sum of Mulliken charges =   0.00000
 Mulliken charges with hydrogens summed into heavy atoms:
               1
 Electronic spatial extent (au):  <R**2>=            223.8946
 Charge=              0.0000 electrons
 Dipole moment (field-independent basis, Debye):
    X=              0.0000    Y=             -0.0000    Z=             -0.0000  Tot=              0.0000
 Quadrupole moment (field-independent basis, Debye-Ang):
   XX=            -14.5036   YY=            -29.4168   ZZ=            -12.8700
   XY=             -8.1747   XZ=             -0.0000   YZ=             -0.0000
 Traceless Quadrupole moment (field-independent basis, Debye-Ang):
   XX=              4.4265   YY=            -10.4867   ZZ=              6.0601
   XY=             -8.1747   XZ=             -0.0000   YZ=             -0.0000
 Octapole moment (field-independent basis, Debye-Ang**2):
  XXX=              0.0000  YYY=             -0.0000  ZZZ=             -0.0000  XYY=             -0.0000
  XXY=              0.0000  XXZ=             -0.0000  XZZ=              0.0000  YZZ=             -0.0000
  YYZ=             -0.0000  XYZ=             -0.0000
 Hexadecapole moment (field-independent basis, Debye-Ang**3):
 XXXX=           -112.7670 YYYY=           -586.2652 ZZZZ=            -15.5305 XXXY=           -101.8653
 XXXZ=             -0.0000 YYYX=           -195.4916 YYYZ=             -0.0000 ZZZX=             -0.0000
 ZZZY=             -0.0000 XXYY=           -124.4321 XXZZ=            -21.0338 YYZZ=            -61.0559
 XXYZ=             -0.0000 YYXZ=             -0.0000 ZZXY=            -28.3524
 N-N= 1.155564213585D+01 E-N=-3.257272199788D+01  KE= 5.193931360390D+00
 Symmetry AG   KE= 2.970683690812D+00
 Symmetry BG   KE= 0.000000000000D+00
 Symmetry AU   KE= 0.000000000000D+00
 Symmetry BU   KE= 2.223247669578D+00

 Test job not archived.
 1\1\GINC-SULU\Stability\RHF\Gen\H10\LCJ1\10-Feb-2017\0\\# rhf/gen scf(
 tight,novaracc,noincfock,fulldiag) stable(crhf) guess=mix geom=nocrowd
  test\\scf stability calculation for a triangular configuration of 10 
 H atoms (made up of 8 iscosceles triangles)\\0,1\H,0,0.796344,0.,4.35\
 H,0,0.398172,0.,2.9\H,0,1.194516,0.,2.9\H,0,0.,0.,1.45\H,0,0.796344,0.
 ,1.45\H,0,-0.398172,0.,0.\H,0,0.398172,0.,0.\H,0,-0.796344,0.,-1.45\H,
 0,0.,0.,-1.45\H,0,-0.398172,0.,-2.9\\Version=ES64L-G09RevE.01\State=1-
 AG\HF=-4.8553371\MP2=-5.214243\RMSD=2.351e-09\Dipole=0.,0.,0.\Quadrupo
 le=5.6173992,4.5055636,-10.1229628,0.,-2.3941777,0.\PG=C02H [SGH(H10)]
 \\@


 TOWERING GENIUS DISDAINS A BEATEN PATH.  IT SEEKS 
 REGIONS HITHERTO UNEXPLORED.

                                -- ABRAHAM LINCOLN
 Job cpu time:       0 days  0 hours  0 minutes  1.0 seconds.
 File lengths (MBytes):  RWF=     84 Int=      0 D2E=      0 Chk=      2 Scr=      2
 Normal termination of Gaussian 09 at Fri Feb 10 13:52:06 2017.
