 Entering Gaussian System, Link 0=g09
 AtFile(1): H.gbs
            H     0
            S   10   1.00
               1000.000000000000            0.000068713567
                316.227766000000            0.000169141320
                100.000000000000            0.000823394812
                 31.622776600000            0.003425569236
                 10.000000000000            0.013951996000
                  3.162277660000            0.056909313560
                  1.000000000000            0.198286399900
                  0.316227766000            0.496922426700
                  0.100000000000            0.369846276400
                  0.031622776600            0.003752720039
            ****
 Initial command:
 /projects/guscus/apps/gau/g09-e1/g09/l1.exe "/users/lcj1/gaussian/h10/rhfstability/2rows/zmat/constside/bck/Gau-17977.inp" -scrdir="/users/lcj1/gaussian/h10/rhfstability/2rows/zmat/constside/bck/"
 Entering Link 1 = /projects/guscus/apps/gau/g09-e1/g09/l1.exe PID=     17978.
  
 Copyright (c) 1988,1990,1992,1993,1995,1998,2003,2009,2015,
            Gaussian, Inc.  All Rights Reserved.
  
 This is part of the Gaussian(R) 09 program.  It is based on
 the Gaussian(R) 03 system (copyright 2003, Gaussian, Inc.),
 the Gaussian(R) 98 system (copyright 1998, Gaussian, Inc.),
 the Gaussian(R) 94 system (copyright 1995, Gaussian, Inc.),
 the Gaussian 92(TM) system (copyright 1992, Gaussian, Inc.),
 the Gaussian 90(TM) system (copyright 1990, Gaussian, Inc.),
 the Gaussian 88(TM) system (copyright 1988, Gaussian, Inc.),
 the Gaussian 86(TM) system (copyright 1986, Carnegie Mellon
 University), and the Gaussian 82(TM) system (copyright 1983,
 Carnegie Mellon University). Gaussian is a federally registered
 trademark of Gaussian, Inc.
  
 This software contains proprietary and confidential information,
 including trade secrets, belonging to Gaussian, Inc.
  
 This software is provided under written license and may be
 used, copied, transmitted, or stored only in accord with that
 written license.
  
 The following legend is applicable only to US Government
 contracts under FAR:
  
                    RESTRICTED RIGHTS LEGEND
  
 Use, reproduction and disclosure by the US Government is
 subject to restrictions as set forth in subparagraphs (a)
 and (c) of the Commercial Computer Software - Restricted
 Rights clause in FAR 52.227-19.
  
 Gaussian, Inc.
 340 Quinnipiac St., Bldg. 40, Wallingford CT 06492
  
  
 ---------------------------------------------------------------
 Warning -- This program may not be used in any manner that
 competes with the business of Gaussian, Inc. or will provide
 assistance to any competitor of Gaussian, Inc.  The licensee
 of this program is prohibited from giving any competitor of
 Gaussian, Inc. access to this program.  By using this program,
 the user acknowledges that Gaussian, Inc. is engaged in the
 business of creating and licensing software in the field of
 computational chemistry and represents and warrants to the
 licensee that it is not a competitor of Gaussian, Inc. and that
 it will not use this program in any manner prohibited above.
 ---------------------------------------------------------------
  

 Cite this work as:
 Gaussian 09, Revision E.01,
 M. J. Frisch, G. W. Trucks, H. B. Schlegel, G. E. Scuseria, 
 M. A. Robb, J. R. Cheeseman, G. Scalmani, V. Barone, B. Mennucci, 
 G. A. Petersson, H. Nakatsuji, M. Caricato, X. Li, H. P. Hratchian, 
 A. F. Izmaylov, J. Bloino, G. Zheng, J. L. Sonnenberg, M. Hada, 
 M. Ehara, K. Toyota, R. Fukuda, J. Hasegawa, M. Ishida, T. Nakajima, 
 Y. Honda, O. Kitao, H. Nakai, T. Vreven, J. A. Montgomery, Jr., 
 J. E. Peralta, F. Ogliaro, M. Bearpark, J. J. Heyd, E. Brothers, 
 K. N. Kudin, V. N. Staroverov, T. Keith, R. Kobayashi, J. Normand, 
 K. Raghavachari, A. Rendell, J. C. Burant, S. S. Iyengar, J. Tomasi, 
 M. Cossi, N. Rega, J. M. Millam, M. Klene, J. E. Knox, J. B. Cross, 
 V. Bakken, C. Adamo, J. Jaramillo, R. Gomperts, R. E. Stratmann, 
 O. Yazyev, A. J. Austin, R. Cammi, C. Pomelli, J. W. Ochterski, 
 R. L. Martin, K. Morokuma, V. G. Zakrzewski, G. A. Voth, 
 P. Salvador, J. J. Dannenberg, S. Dapprich, A. D. Daniels, 
 O. Farkas, J. B. Foresman, J. V. Ortiz, J. Cioslowski, 
 and D. J. Fox, Gaussian, Inc., Wallingford CT, 2013.
 
 ******************************************
 Gaussian 09:  ES64L-G09RevE.01 30-Nov-2015
                10-Feb-2017 
 ******************************************
 %chk=h10.chk
 ----------------------------------------------------------------------
 #rhf/gen scf(tight,novaracc,noincfock,fulldiag) stable(crhf) guess=rea
 d geom=nocrowd test
 ----------------------------------------------------------------------
 1/38=1/1;
 2/12=1,17=6,18=5,40=1/2;
 3/5=7,16=1,25=1,30=1,116=1/1,2,3;
 4/5=1/1;
 5/5=100002,16=1,32=2,38=6/2;
 8/6=1,10=90,11=11/1,4;
 9/8=4,13=1/2;
 6/7=2,8=2,9=2,10=2,28=1/1;
 99/5=1,9=1/99;
 ----------------------------------------------------------------------
 hf stability analysis of h10 triangular lattice, y= -0.306384701209349
 80
 ----------------------------------------------------------------------
 Symbolic Z-matrix:
 Charge =  0 Multiplicity = 1
 H
 H                    1     1.7644 
 H                    1     1.7644   2    -160. 
 H                    2     1.7644   1     340.     3     0.       0
 H                    3     1.7644   1     180.     2     0.       0
 H                    4     1.7644   2     180.     1     0.       0
 H                    5     1.7644   3     180.     2     0.       0
 H                    6     1.7644   4     180.     1     0.       0
 H                    7     1.7644   5     180.     2     0.       0
 H                    8     1.7644   6     180.     1     0.       0
 
                          Input orientation:                          
 ---------------------------------------------------------------------
 Center     Atomic      Atomic             Coordinates (Angstroms)
 Number     Number       Type             X           Y           Z
 ---------------------------------------------------------------------
      1          1           0        0.000000    0.000000    0.000000
      2          1           0        0.000000    0.000000    1.764400
      3          1           0       -0.603460    0.000000   -1.657994
      4          1           0        0.603460    0.000000    0.106406
      5          1           0       -1.206921    0.000000   -3.315987
      6          1           0        1.206921    0.000000   -1.551587
      7          1           0       -1.810381    0.000000   -4.973981
      8          1           0        1.810381    0.000000   -3.209581
      9          1           0       -2.413841    0.000000   -6.631975
     10          1           0        2.413841    0.000000   -4.867575
 ---------------------------------------------------------------------
                    Distance matrix (angstroms):
                    1          2          3          4          5
     1  H    0.000000
     2  H    1.764400   0.000000
     3  H    1.764400   3.475190   0.000000
     4  H    0.612770   1.764400   2.137701   0.000000
     5  H    3.528800   5.221781   1.764400   3.871725   0.000000
     6  H    1.965727   3.528800   1.813505   1.764400   2.989939
     7  H    5.293200   6.977339   3.528800   5.624675   1.764400
     8  H    3.684954   5.293200   2.869504   3.528800   3.019177
     9  H    7.057600   8.736460   5.293200   7.383081   3.528800
    10  H    5.433223   7.057600   4.405170   5.293200   3.939206
                    6          7          8          9         10
     6  H    0.000000
     7  H    4.562553   0.000000
     8  H    1.764400   4.027782   0.000000
     9  H    6.238610   1.764400   5.436620   0.000000
    10  H    3.528800   4.225562   1.764400   5.140003   0.000000
 Stoichiometry    H10
 Framework group  CS[SG(H10)]
 Deg. of freedom    17
 Full point group                 CS      NOp   2
 Largest Abelian subgroup         CS      NOp   2
 Largest concise Abelian subgroup C1      NOp   1
                         Standard orientation:                         
 ---------------------------------------------------------------------
 Center     Atomic      Atomic             Coordinates (Angstroms)
 Number     Number       Type             X           Y           Z
 ---------------------------------------------------------------------
      1          1           0       -1.494302    1.921037    0.000000
      2          1           0       -2.577611    3.313713    0.000000
      3          1           0        0.000000    0.982863   -0.000000
      4          1           0       -2.035956    1.634512    0.000000
      5          1           0        1.494302    0.044689   -0.000000
      6          1           0       -1.494302   -0.044689    0.000000
      7          1           0        2.988603   -0.893484   -0.000000
      8          1           0       -0.952647   -1.723891    0.000000
      9          1           0        4.482905   -1.831658   -0.000000
     10          1           0       -0.410992   -3.403092    0.000000
 ---------------------------------------------------------------------
 Rotational constants (GHZ):     26.0567777      7.6714056      5.9265603
 General basis read from cards:  (5D, 7F)
 There are    10 symmetry adapted cartesian basis functions of A'  symmetry.
 There are     0 symmetry adapted cartesian basis functions of A"  symmetry.
 There are    10 symmetry adapted basis functions of A'  symmetry.
 There are     0 symmetry adapted basis functions of A"  symmetry.
    10 basis functions,   100 primitive gaussians,    10 cartesian basis functions
     5 alpha electrons        5 beta electrons
       nuclear repulsion energy         8.2033117233 Hartrees.
 NAtoms=   10 NActive=   10 NUniq=   10 SFac= 1.00D+00 NAtFMM=   60 NAOKFM=F Big=F
 Integral buffers will be    131072 words long.
 Regular integral format.
 Two-electron integral symmetry is turned on.
 One-electron integrals computed using PRISM.
 NBasis=    10 RedAO= T EigKep=  2.39D-01  NBF=    10     0
 NBsUse=    10 1.00D-06 EigRej= -1.00D+00 NBFU=    10     0
 Initial guess from the checkpoint file:  "h10.chk"
 B after Tr=     0.000000    0.000000   -0.000000
         Rot=    0.999377   -0.000000    0.000000    0.035304 Ang=   4.05 deg.
 Initial guess orbital symmetries:
       Occupied  (A') (A') (A') (A') (A')
       Virtual   (A') (A') (A') (A') (A')
 Keep R1 ints in memory in symmetry-blocked form, NReq=870957.
 Requested convergence on RMS density matrix=1.00D-08 within 128 cycles.
 Requested convergence on MAX density matrix=1.00D-06.
 Requested convergence on             energy=1.00D-06.
 No special actions if energy rises.
 SCF Done:  E(RHF) =  -4.70694513594     A.U. after   12 cycles
            NFock= 12  Conv=0.90D-08     -V/T= 2.1061
 Range of M.O.s used for correlation:     1    10
 NBasis=    10 NAE=     5 NBE=     5 NFC=     0 NFV=     0
 NROrb=     10 NOA=     5 NOB=     5 NVA=     5 NVB=     5
 Semi-Direct transformation.
 ModeAB=           2 MOrb=             5 LenV=     134115693
 LASXX=         1030 LTotXX=        1030 LenRXX=        1030
 LTotAB=        1450 MaxLAS=        2750 LenRXY=        2750
 NonZer=        2750 LenScr=      655360 LnRSAI=           0
 LnScr1=           0 LExtra=           0 Total=       659140
 MaxDsk=          -1 SrtSym=           F ITran=            3
 JobTyp=0 Pass  1:  I=   1 to   5.
 (rs|ai) integrals will be sorted in core.
 Spin components of T(2) and E(2):
     alpha-alpha T2 =       0.4570636562D-02 E2=     -0.3551961453D-02
     alpha-beta  T2 =       0.4157589900D+00 E2=     -0.2153642779D+00
     beta-beta   T2 =       0.4570636562D-02 E2=     -0.3551961453D-02
 ANorm=    0.1193691863D+01
 E2 =    -0.2224682008D+00 EUMP2 =    -0.49294133366987D+01
 Second order stability test of a single determinant RHF wave function:
 Stabil:  MDV=134217728
 ***********************************************************************
 Matrix         Lowest Root    Major Pairs
 ***********************************************************************
 Internal RHF     0.0978907    Stable
 RRHF --> CRHF    0.0334285    Stable
 RRHF --> RUHF   -0.3556109    5A=6B
 Not stable.
 ***********************************************************************

 **********************************************************************

            Population analysis using the SCF density.

 **********************************************************************

 Orbital symmetries:
       Occupied  (A') (A') (A') (A') (A')
       Virtual   (A') (A') (A') (A') (A')
 The electronic state is 1-A'.
 Alpha  occ. eigenvalues --   -0.73724  -0.45759  -0.41159  -0.35534  -0.26647
 Alpha virt. eigenvalues --   -0.10831  -0.01346   0.09115   0.14292   0.51122
          Condensed to atoms (all electrons):
               1          2          3          4          5          6
     1  H    0.545280   0.025102  -0.025878   0.441981  -0.001881  -0.008118
     2  H    0.025102   0.960601  -0.001307  -0.015382   0.000608  -0.022780
     3  H   -0.025878  -0.001307   0.823793  -0.035012   0.199003   0.057768
     4  H    0.441981  -0.015382  -0.035012   0.570233  -0.003441   0.021685
     5  H   -0.001881   0.000608   0.199003  -0.003441   0.836095  -0.012988
     6  H   -0.008118  -0.022780   0.057768   0.021685  -0.012988   0.897581
     7  H    0.000012   0.000000  -0.002402   0.000020   0.041440  -0.000326
     8  H   -0.001381   0.000066  -0.006155  -0.000856  -0.004988   0.071020
     9  H    0.000002  -0.000001  -0.000412   0.000004  -0.004249   0.000024
    10  H   -0.000049   0.000027  -0.000980  -0.000094   0.000643  -0.003893
               7          8          9         10
     1  H    0.000012  -0.001381   0.000002  -0.000049
     2  H    0.000000   0.000066  -0.000001   0.000027
     3  H   -0.002402  -0.006155  -0.000412  -0.000980
     4  H    0.000020  -0.000856   0.000004  -0.000094
     5  H    0.041440  -0.004988  -0.004249   0.000643
     6  H   -0.000326   0.071020   0.000024  -0.003893
     7  H    0.753572   0.000000   0.209685   0.000216
     8  H    0.000000   0.745027   0.000022   0.198840
     9  H    0.209685   0.000022   0.823299  -0.000073
    10  H    0.000216   0.198840  -0.000073   0.813480
 Mulliken charges:
               1
     1  H    0.024931
     2  H    0.053065
     3  H   -0.008417
     4  H    0.020862
     5  H   -0.050242
     6  H    0.000028
     7  H   -0.002216
     8  H   -0.001595
     9  H   -0.028300
    10  H   -0.008116
 Sum of Mulliken charges =  -0.00000
 Mulliken charges with hydrogens summed into heavy atoms:
               1
 Electronic spatial extent (au):  <R**2>=            330.3688
 Charge=             -0.0000 electrons
 Dipole moment (field-independent basis, Debye):
    X=             -2.0186    Y=              1.5923    Z=              0.0000  Tot=              2.5710
 Quadrupole moment (field-independent basis, Debye-Ang):
   XX=            -13.5823   YY=            -10.1669   ZZ=            -14.2019
   XY=             -2.8149   XZ=              0.0000   YZ=              0.0000
 Traceless Quadrupole moment (field-independent basis, Debye-Ang):
   XX=             -0.9319   YY=              2.4834   ZZ=             -1.5515
   XY=             -2.8149   XZ=              0.0000   YZ=              0.0000
 Octapole moment (field-independent basis, Debye-Ang**2):
  XXX=            -11.8579  YYY=              4.8604  ZZZ=              0.0000  XYY=             -5.8225
  XXY=              6.2261  XXZ=              0.0000  XZZ=             -1.3526  YZZ=              1.2259
  YYZ=              0.0000  XYZ=             -0.0000
 Hexadecapole moment (field-independent basis, Debye-Ang**3):
 XXXX=           -385.9380 YYYY=           -258.1131 ZZZZ=            -18.4672 XXXY=             60.9577
 XXXZ=              0.0000 YYYX=             65.8210 YYYZ=             -0.0000 ZZZX=              0.0000
 ZZZY=              0.0000 XXYY=           -102.1223 XXZZ=            -73.7818 YYZZ=            -56.8908
 XXYZ=              0.0000 YYXZ=              0.0000 ZZXY=             30.1839
 N-N= 8.203311723344D+00 E-N=-2.561938621338D+01  KE= 4.255330973398D+00
 Symmetry A'   KE= 4.255330973398D+00
 Symmetry A"   KE= 0.000000000000D+00

 Test job not archived.
 1\1\GINC-SULU\Stability\RHF\Gen\H10\UNKNOWN\10-Feb-2017\0\\#rhf/gen sc
 f(tight,novaracc,noincfock,fulldiag) stable(crhf) guess=read geom=nocr
 owd test\\hf stability analysis of h10 triangular lattice, y= -0.30638
 470120934980\\0,1\H\H,1,1.7644\H,1,1.7644,2,-160.\H,2,1.7644,1,340.,3,
 0.,0\H,3,1.7644,1,180.,2,0.,0\H,4,1.7644,2,180.,1,0.,0\H,5,1.7644,3,18
 0.,2,0.,0\H,6,1.7644,4,180.,1,0.,0\H,7,1.7644,5,180.,2,0.,0\H,8,1.7644
 ,6,180.,1,0.,0\\Version=ES64L-G09RevE.01\State=1-A'\HF=-4.7069451\MP2=
 -4.9294133\RMSD=8.950e-09\Dipole=0.2422352,0.,0.9820825\Quadrupole=-1.
 7640945,-1.1535016,2.9175961,0.,-0.7156455,0.\PG=CS [SG(H10)]\\@


 ALL OUR THINKING ABOUT NATURE MUST NECESSARILY MOVE IN CIRCLES OR SPIRALS;
 FOR WE CAN ONLY UNDERSTAND NATURE IF WE THINK ABOUT HER, AND WE CAN ONLY
 THINK BECAUSE OUR BRAIN IS BUILT IN ACCORDANCE WITH NATURE'S LAWS.

                                             -- TIMOTHY FERRIS, "GALAXIES"
 Job cpu time:       0 days  0 hours  0 minutes  0.8 seconds.
 File lengths (MBytes):  RWF=     84 Int=      0 D2E=      0 Chk=      2 Scr=      2
 Normal termination of Gaussian 09 at Fri Feb 10 11:22:11 2017.
