 Entering Gaussian System, Link 0=g09
 AtFile(1): H.gbs
            H     0
            S   10   1.00
               1000.000000000000            0.000068713567
                316.227766000000            0.000169141320
                100.000000000000            0.000823394812
                 31.622776600000            0.003425569236
                 10.000000000000            0.013951996000
                  3.162277660000            0.056909313560
                  1.000000000000            0.198286399900
                  0.316227766000            0.496922426700
                  0.100000000000            0.369846276400
                  0.031622776600            0.003752720039
            ****
 Initial command:
 /projects/guscus/apps/gau/g09-e1/g09/l1.exe "/users/lcj1/gaussian/h10/rhfstability/2rows/zmat/constside/bck/Gau-15172.inp" -scrdir="/users/lcj1/gaussian/h10/rhfstability/2rows/zmat/constside/bck/"
 Entering Link 1 = /projects/guscus/apps/gau/g09-e1/g09/l1.exe PID=     15173.
  
 Copyright (c) 1988,1990,1992,1993,1995,1998,2003,2009,2015,
            Gaussian, Inc.  All Rights Reserved.
  
 This is part of the Gaussian(R) 09 program.  It is based on
 the Gaussian(R) 03 system (copyright 2003, Gaussian, Inc.),
 the Gaussian(R) 98 system (copyright 1998, Gaussian, Inc.),
 the Gaussian(R) 94 system (copyright 1995, Gaussian, Inc.),
 the Gaussian 92(TM) system (copyright 1992, Gaussian, Inc.),
 the Gaussian 90(TM) system (copyright 1990, Gaussian, Inc.),
 the Gaussian 88(TM) system (copyright 1988, Gaussian, Inc.),
 the Gaussian 86(TM) system (copyright 1986, Carnegie Mellon
 University), and the Gaussian 82(TM) system (copyright 1983,
 Carnegie Mellon University). Gaussian is a federally registered
 trademark of Gaussian, Inc.
  
 This software contains proprietary and confidential information,
 including trade secrets, belonging to Gaussian, Inc.
  
 This software is provided under written license and may be
 used, copied, transmitted, or stored only in accord with that
 written license.
  
 The following legend is applicable only to US Government
 contracts under FAR:
  
                    RESTRICTED RIGHTS LEGEND
  
 Use, reproduction and disclosure by the US Government is
 subject to restrictions as set forth in subparagraphs (a)
 and (c) of the Commercial Computer Software - Restricted
 Rights clause in FAR 52.227-19.
  
 Gaussian, Inc.
 340 Quinnipiac St., Bldg. 40, Wallingford CT 06492
  
  
 ---------------------------------------------------------------
 Warning -- This program may not be used in any manner that
 competes with the business of Gaussian, Inc. or will provide
 assistance to any competitor of Gaussian, Inc.  The licensee
 of this program is prohibited from giving any competitor of
 Gaussian, Inc. access to this program.  By using this program,
 the user acknowledges that Gaussian, Inc. is engaged in the
 business of creating and licensing software in the field of
 computational chemistry and represents and warrants to the
 licensee that it is not a competitor of Gaussian, Inc. and that
 it will not use this program in any manner prohibited above.
 ---------------------------------------------------------------
  

 Cite this work as:
 Gaussian 09, Revision E.01,
 M. J. Frisch, G. W. Trucks, H. B. Schlegel, G. E. Scuseria, 
 M. A. Robb, J. R. Cheeseman, G. Scalmani, V. Barone, B. Mennucci, 
 G. A. Petersson, H. Nakatsuji, M. Caricato, X. Li, H. P. Hratchian, 
 A. F. Izmaylov, J. Bloino, G. Zheng, J. L. Sonnenberg, M. Hada, 
 M. Ehara, K. Toyota, R. Fukuda, J. Hasegawa, M. Ishida, T. Nakajima, 
 Y. Honda, O. Kitao, H. Nakai, T. Vreven, J. A. Montgomery, Jr., 
 J. E. Peralta, F. Ogliaro, M. Bearpark, J. J. Heyd, E. Brothers, 
 K. N. Kudin, V. N. Staroverov, T. Keith, R. Kobayashi, J. Normand, 
 K. Raghavachari, A. Rendell, J. C. Burant, S. S. Iyengar, J. Tomasi, 
 M. Cossi, N. Rega, J. M. Millam, M. Klene, J. E. Knox, J. B. Cross, 
 V. Bakken, C. Adamo, J. Jaramillo, R. Gomperts, R. E. Stratmann, 
 O. Yazyev, A. J. Austin, R. Cammi, C. Pomelli, J. W. Ochterski, 
 R. L. Martin, K. Morokuma, V. G. Zakrzewski, G. A. Voth, 
 P. Salvador, J. J. Dannenberg, S. Dapprich, A. D. Daniels, 
 O. Farkas, J. B. Foresman, J. V. Ortiz, J. Cioslowski, 
 and D. J. Fox, Gaussian, Inc., Wallingford CT, 2013.
 
 ******************************************
 Gaussian 09:  ES64L-G09RevE.01 30-Nov-2015
                10-Feb-2017 
 ******************************************
 %chk=h10.chk
 ----------------------------------------------------------------------
 #rhf/gen scf(tight,novaracc,noincfock,fulldiag) stable(crhf) guess=rea
 d geom=nocrowd test
 ----------------------------------------------------------------------
 1/38=1/1;
 2/12=1,17=6,18=5,40=1/2;
 3/5=7,16=1,25=1,30=1,116=1/1,2,3;
 4/5=1/1;
 5/5=100002,16=1,32=2,38=6/2;
 8/6=1,10=90,11=11/1,4;
 9/8=4,13=1/2;
 6/7=2,8=2,9=2,10=2,28=1/1;
 99/5=1,9=1/99;
 ----------------------------------------------------------------------
 hf stability analysis of h10 triangular lattice, y= -1.760102004659399
 6
 ----------------------------------------------------------------------
 Symbolic Z-matrix:
 Charge =  0 Multiplicity = 1
 H
 H                    1     1.7644 
 H                    1     1.7644   2    -8. 
 H                    2     1.7644   1     188.     3     0.       0
 H                    3     1.7644   1     180.     2     0.       0
 H                    4     1.7644   2     180.     1     0.       0
 H                    5     1.7644   3     180.     2     0.       0
 H                    6     1.7644   4     180.     1     0.       0
 H                    7     1.7644   5     180.     2     0.       0
 H                    8     1.7644   6     180.     1     0.       0
 
                          Input orientation:                          
 ---------------------------------------------------------------------
 Center     Atomic      Atomic             Coordinates (Angstroms)
 Number     Number       Type             X           Y           Z
 ---------------------------------------------------------------------
      1          1           0        0.000000    0.000000    0.000000
      2          1           0        0.000000    0.000000    1.764400
      3          1           0       -0.245557    0.000000    1.747229
      4          1           0        0.245557    0.000000    3.511629
      5          1           0       -0.491114    0.000000    3.494458
      6          1           0        0.491114    0.000000    5.258858
      7          1           0       -0.736671    0.000000    5.241687
      8          1           0        0.736671    0.000000    7.006087
      9          1           0       -0.982228    0.000000    6.988916
     10          1           0        0.982228    0.000000    8.753316
 ---------------------------------------------------------------------
                    Distance matrix (angstroms):
                    1          2          3          4          5
     1  H    0.000000
     2  H    1.764400   0.000000
     3  H    1.764400   0.246157   0.000000
     4  H    3.520204   1.764400   1.831475   0.000000
     5  H    3.528800   1.798414   1.764400   0.736871   0.000000
     6  H    5.281740   3.528800   3.588067   1.764400   2.019376
     7  H    5.293200   3.554463   3.528800   1.989440   1.764400
     8  H    7.044710   5.293200   5.349800   3.528800   3.720080
     9  H    7.057600   5.316045   5.293200   3.687680   3.528800
    10  H    8.808252   7.057600   7.112855   5.293200   5.461348
                    6          7          8          9         10
     6  H    0.000000
     7  H    1.227905   0.000000
     8  H    1.764400   2.298661   0.000000
     9  H    2.272408   1.764400   1.718985   0.000000
    10  H    3.528800   3.909751   1.764400   2.640491   0.000000
 Stoichiometry    H10
 Framework group  CS[SG(H10)]
 Deg. of freedom    17
 Full point group                 CS      NOp   2
 Largest Abelian subgroup         CS      NOp   2
 Largest concise Abelian subgroup C1      NOp   1
                         Standard orientation:                         
 ---------------------------------------------------------------------
 Center     Atomic      Atomic             Coordinates (Angstroms)
 Number     Number       Type             X           Y           Z
 ---------------------------------------------------------------------
      1          1           0       -1.195185    4.210305   -0.000000
      2          1           0       -0.713360    2.512968   -0.000000
      3          1           0       -0.954273    2.462429   -0.000000
      4          1           0        0.000000    0.899207   -0.000000
      5          1           0       -0.713360    0.714554   -0.000000
      6          1           0        0.713360   -0.714554    0.000000
      7          1           0       -0.472447   -1.033321    0.000000
      8          1           0        1.426720   -2.328315    0.000000
      9          1           0       -0.231535   -2.781197    0.000000
     10          1           0        2.140080   -3.942076    0.000000
 ---------------------------------------------------------------------
 Rotational constants (GHZ):    150.5265176      7.2542703      6.9207415
 General basis read from cards:  (5D, 7F)
 There are    10 symmetry adapted cartesian basis functions of A'  symmetry.
 There are     0 symmetry adapted cartesian basis functions of A"  symmetry.
 There are    10 symmetry adapted basis functions of A'  symmetry.
 There are     0 symmetry adapted basis functions of A"  symmetry.
    10 basis functions,   100 primitive gaussians,    10 cartesian basis functions
     5 alpha electrons        5 beta electrons
       nuclear repulsion energy        11.0032122560 Hartrees.
 NAtoms=   10 NActive=   10 NUniq=   10 SFac= 1.00D+00 NAtFMM=   60 NAOKFM=F Big=F
 Integral buffers will be    131072 words long.
 Regular integral format.
 Two-electron integral symmetry is turned on.
 One-electron integrals computed using PRISM.
 NBasis=    10 RedAO= T EigKep=  4.71D-02  NBF=    10     0
 NBsUse=    10 1.00D-06 EigRej= -1.00D+00 NBFU=    10     0
 Initial guess from the checkpoint file:  "h10.chk"
 B after Tr=    -0.000000    0.000000    0.000000
         Rot=    0.999133   -0.000000   -0.000000   -0.041640 Ang=  -4.77 deg.
 Initial guess orbital symmetries:
       Occupied  (A') (A') (A') (A') (A')
       Virtual   (A') (A') (A') (A') (A')
 Keep R1 ints in memory in symmetry-blocked form, NReq=873127.
 Requested convergence on RMS density matrix=1.00D-08 within 128 cycles.
 Requested convergence on MAX density matrix=1.00D-06.
 Requested convergence on             energy=1.00D-06.
 No special actions if energy rises.
 SCF Done:  E(RHF) =  -3.87161251372     A.U. after   15 cycles
            NFock= 15  Conv=0.53D-08     -V/T= 1.8066
 Range of M.O.s used for correlation:     1    10
 NBasis=    10 NAE=     5 NBE=     5 NFC=     0 NFV=     0
 NROrb=     10 NOA=     5 NOB=     5 NVA=     5 NVB=     5

 **** Warning!!: The smallest alpha delta epsilon is  0.82310157D-01

 Semi-Direct transformation.
 ModeAB=           2 MOrb=             5 LenV=     134113397
 LASXX=         1030 LTotXX=        1030 LenRXX=        1030
 LTotAB=        1450 MaxLAS=        2750 LenRXY=        2750
 NonZer=        2750 LenScr=      655360 LnRSAI=           0
 LnScr1=           0 LExtra=           0 Total=       659140
 MaxDsk=          -1 SrtSym=           F ITran=            3
 JobTyp=0 Pass  1:  I=   1 to   5.
 (rs|ai) integrals will be sorted in core.
 Spin components of T(2) and E(2):
     alpha-alpha T2 =       0.2406367806D-02 E2=     -0.1843918566D-02
     alpha-beta  T2 =       0.2036105153D+01 E2=     -0.4056302832D+00
     beta-beta   T2 =       0.2406367806D-02 E2=     -0.1843918566D-02
 ANorm=    0.1743822780D+01
 E2 =    -0.4093181203D+00 EUMP2 =    -0.42809306340607D+01
 Second order stability test of a single determinant RHF wave function:
 Stabil:  MDV=134217728
 ***********************************************************************
 Matrix         Lowest Root    Major Pairs
 ***********************************************************************
 Internal RHF     0.0700239    Stable
 RRHF --> CRHF    0.0048841    Stable
 RRHF --> RUHF   -0.4775846    5A=6B
 Not stable.
 ***********************************************************************

 **********************************************************************

            Population analysis using the SCF density.

 **********************************************************************

 Orbital symmetries:
       Occupied  (A') (A') (A') (A') (A')
       Virtual   (A') (A') (A') (A') (A')
 The electronic state is 1-A'.
 Alpha  occ. eigenvalues --   -0.83667  -0.65791  -0.52175  -0.38232  -0.20077
 Alpha virt. eigenvalues --   -0.11846   0.02369   0.18475   0.43716   1.04695
          Condensed to atoms (all electrons):
               1          2          3          4          5          6
     1  H    1.140192  -0.049037  -0.051515  -0.000411  -0.002839   0.000695
     2  H   -0.049037   0.595366   0.568613  -0.053327  -0.048616  -0.000801
     3  H   -0.051515   0.568613   0.582826  -0.050542  -0.051525  -0.000667
     4  H   -0.000411  -0.053327  -0.050542   0.677898   0.514276  -0.050255
     5  H   -0.002839  -0.048616  -0.051525   0.514276   0.691201  -0.046348
     6  H    0.000695  -0.000801  -0.000667  -0.050255  -0.046348   0.825531
     7  H    0.000046   0.000878   0.001105  -0.045585  -0.060836   0.341077
     8  H    0.000003  -0.000011  -0.000013   0.000601   0.000345  -0.026098
     9  H   -0.000058   0.000175   0.000194  -0.001936  -0.000528  -0.040071
    10  H    0.000002  -0.000004  -0.000004   0.000146   0.000074  -0.002547
               7          8          9         10
     1  H    0.000046   0.000003  -0.000058   0.000002
     2  H    0.000878  -0.000011   0.000175  -0.000004
     3  H    0.001105  -0.000013   0.000194  -0.000004
     4  H   -0.045585   0.000601  -0.001936   0.000146
     5  H   -0.060836   0.000345  -0.000528   0.000074
     6  H    0.341077  -0.026098  -0.040071  -0.002547
     7  H    0.724404  -0.024193   0.034503  -0.004915
     8  H   -0.024193   0.730473   0.077336   0.200047
     9  H    0.034503   0.077336   0.956867  -0.013777
    10  H   -0.004915   0.200047  -0.013777   0.847921
 Mulliken charges:
               1
     1  H   -0.037079
     2  H   -0.013236
     3  H    0.001528
     4  H    0.009134
     5  H    0.004794
     6  H   -0.000518
     7  H    0.033515
     8  H    0.041510
     9  H   -0.012705
    10  H   -0.026943
 Sum of Mulliken charges =   0.00000
 Mulliken charges with hydrogens summed into heavy atoms:
               1
 Electronic spatial extent (au):  <R**2>=            293.3392
 Charge=              0.0000 electrons
 Dipole moment (field-independent basis, Debye):
    X=              0.1786    Y=             -0.7845    Z=              0.0000  Tot=              0.8046
 Quadrupole moment (field-independent basis, Debye-Ang):
   XX=            -12.7008   YY=            -20.3759   ZZ=            -13.4494
   XY=              2.3568   XZ=             -0.0000   YZ=              0.0000
 Traceless Quadrupole moment (field-independent basis, Debye-Ang):
   XX=              2.8079   YY=             -4.8672   ZZ=              2.0593
   XY=              2.3568   XZ=             -0.0000   YZ=              0.0000
 Octapole moment (field-independent basis, Debye-Ang**2):
  XXX=             -1.2464  YYY=            -22.2995  ZZZ=             -0.0000  XYY=              6.6069
  XXY=             -1.2087  XXZ=              0.0000  XZZ=             -0.5022  YZZ=              1.1444
  YYZ=              0.0000  XYZ=             -0.0000
 Hexadecapole moment (field-independent basis, Debye-Ang**3):
 XXXX=           -103.9083 YYYY=           -630.8249 ZZZZ=            -16.8021 XXXY=             87.9887
 XXXZ=             -0.0000 YYYX=            114.2101 YYYZ=              0.0000 ZZZX=             -0.0000
 ZZZY=              0.0000 XXYY=           -110.3924 XXZZ=            -20.3040 YYZZ=            -91.2889
 XXYZ=              0.0000 YYXZ=             -0.0000 ZZXY=             29.3346
 N-N= 1.100321225601D+01 E-N=-2.935078334759D+01  KE= 4.799964551483D+00
 Symmetry A'   KE= 4.799964551483D+00
 Symmetry A"   KE= 0.000000000000D+00

 Test job not archived.
 1\1\GINC-SULU\Stability\RHF\Gen\H10\LCJ1\10-Feb-2017\0\\#rhf/gen scf(t
 ight,novaracc,noincfock,fulldiag) stable(crhf) guess=read geom=nocrowd
  test\\hf stability analysis of h10 triangular lattice, y= -1.76010200
 46593996\\0,1\H\H,1,1.7644\H,1,1.7644,2,-8.\H,2,1.7644,1,188.,3,0.,0\H
 ,3,1.7644,1,180.,2,0.,0\H,4,1.7644,2,180.,1,0.,0\H,5,1.7644,3,180.,2,0
 .,0\H,6,1.7644,4,180.,1,0.,0\H,7,1.7644,5,180.,2,0.,0\H,8,1.7644,6,180
 .,1,0.,0\\Version=ES64L-G09RevE.01\State=1-A'\HF=-3.8716125\MP2=-4.280
 9306\RMSD=5.263e-09\Dipole=-0.0166982,0.,0.3161103\Quadrupole=2.582711
 ,1.5310386,-4.1137496,0.,0.0081332,0.\PG=CS [SG(H10)]\\@


 DEFINE YOUR TERMS, YOU WILL PERMIT ME AGAIN TO SAY, 
 OR WE SHALL NEVER UNDERSTAND ONE ANOTHER.

                                    -- VOLTAIRE
 Job cpu time:       0 days  0 hours  0 minutes  0.9 seconds.
 File lengths (MBytes):  RWF=     84 Int=      0 D2E=      0 Chk=      2 Scr=      2
 Normal termination of Gaussian 09 at Fri Feb 10 11:19:39 2017.
