 Entering Gaussian System, Link 0=g09
 AtFile(1): H.gbs
            H     0
            S   10   1.00
               1000.000000000000            0.000068713567
                316.227766000000            0.000169141320
                100.000000000000            0.000823394812
                 31.622776600000            0.003425569236
                 10.000000000000            0.013951996000
                  3.162277660000            0.056909313560
                  1.000000000000            0.198286399900
                  0.316227766000            0.496922426700
                  0.100000000000            0.369846276400
                  0.031622776600            0.003752720039
            ****
 Initial command:
 /projects/guscus/apps/gau/g09-e1/g09/l1.exe "/users/lcj1/gaussian/h10/rhfstability/2rows/zmat/constside/bck/Gau-16816.inp" -scrdir="/users/lcj1/gaussian/h10/rhfstability/2rows/zmat/constside/bck/"
 Entering Link 1 = /projects/guscus/apps/gau/g09-e1/g09/l1.exe PID=     16817.
  
 Copyright (c) 1988,1990,1992,1993,1995,1998,2003,2009,2015,
            Gaussian, Inc.  All Rights Reserved.
  
 This is part of the Gaussian(R) 09 program.  It is based on
 the Gaussian(R) 03 system (copyright 2003, Gaussian, Inc.),
 the Gaussian(R) 98 system (copyright 1998, Gaussian, Inc.),
 the Gaussian(R) 94 system (copyright 1995, Gaussian, Inc.),
 the Gaussian 92(TM) system (copyright 1992, Gaussian, Inc.),
 the Gaussian 90(TM) system (copyright 1990, Gaussian, Inc.),
 the Gaussian 88(TM) system (copyright 1988, Gaussian, Inc.),
 the Gaussian 86(TM) system (copyright 1986, Carnegie Mellon
 University), and the Gaussian 82(TM) system (copyright 1983,
 Carnegie Mellon University). Gaussian is a federally registered
 trademark of Gaussian, Inc.
  
 This software contains proprietary and confidential information,
 including trade secrets, belonging to Gaussian, Inc.
  
 This software is provided under written license and may be
 used, copied, transmitted, or stored only in accord with that
 written license.
  
 The following legend is applicable only to US Government
 contracts under FAR:
  
                    RESTRICTED RIGHTS LEGEND
  
 Use, reproduction and disclosure by the US Government is
 subject to restrictions as set forth in subparagraphs (a)
 and (c) of the Commercial Computer Software - Restricted
 Rights clause in FAR 52.227-19.
  
 Gaussian, Inc.
 340 Quinnipiac St., Bldg. 40, Wallingford CT 06492
  
  
 ---------------------------------------------------------------
 Warning -- This program may not be used in any manner that
 competes with the business of Gaussian, Inc. or will provide
 assistance to any competitor of Gaussian, Inc.  The licensee
 of this program is prohibited from giving any competitor of
 Gaussian, Inc. access to this program.  By using this program,
 the user acknowledges that Gaussian, Inc. is engaged in the
 business of creating and licensing software in the field of
 computational chemistry and represents and warrants to the
 licensee that it is not a competitor of Gaussian, Inc. and that
 it will not use this program in any manner prohibited above.
 ---------------------------------------------------------------
  

 Cite this work as:
 Gaussian 09, Revision E.01,
 M. J. Frisch, G. W. Trucks, H. B. Schlegel, G. E. Scuseria, 
 M. A. Robb, J. R. Cheeseman, G. Scalmani, V. Barone, B. Mennucci, 
 G. A. Petersson, H. Nakatsuji, M. Caricato, X. Li, H. P. Hratchian, 
 A. F. Izmaylov, J. Bloino, G. Zheng, J. L. Sonnenberg, M. Hada, 
 M. Ehara, K. Toyota, R. Fukuda, J. Hasegawa, M. Ishida, T. Nakajima, 
 Y. Honda, O. Kitao, H. Nakai, T. Vreven, J. A. Montgomery, Jr., 
 J. E. Peralta, F. Ogliaro, M. Bearpark, J. J. Heyd, E. Brothers, 
 K. N. Kudin, V. N. Staroverov, T. Keith, R. Kobayashi, J. Normand, 
 K. Raghavachari, A. Rendell, J. C. Burant, S. S. Iyengar, J. Tomasi, 
 M. Cossi, N. Rega, J. M. Millam, M. Klene, J. E. Knox, J. B. Cross, 
 V. Bakken, C. Adamo, J. Jaramillo, R. Gomperts, R. E. Stratmann, 
 O. Yazyev, A. J. Austin, R. Cammi, C. Pomelli, J. W. Ochterski, 
 R. L. Martin, K. Morokuma, V. G. Zakrzewski, G. A. Voth, 
 P. Salvador, J. J. Dannenberg, S. Dapprich, A. D. Daniels, 
 O. Farkas, J. B. Foresman, J. V. Ortiz, J. Cioslowski, 
 and D. J. Fox, Gaussian, Inc., Wallingford CT, 2013.
 
 ******************************************
 Gaussian 09:  ES64L-G09RevE.01 30-Nov-2015
                10-Feb-2017 
 ******************************************
 %chk=h10.chk
 ----------------------------------------------------------------------
 #rhf/gen scf(tight,novaracc,noincfock,fulldiag) stable(crhf) guess=rea
 d geom=nocrowd test
 ----------------------------------------------------------------------
 1/38=1/1;
 2/12=1,17=6,18=5,40=1/2;
 3/5=7,16=1,25=1,30=1,116=1/1,2,3;
 4/5=1/1;
 5/5=100002,16=1,32=2,38=6/2;
 8/6=1,10=90,11=11/1,4;
 9/8=4,13=1/2;
 6/7=2,8=2,9=2,10=2,28=1/1;
 99/5=1,9=1/99;
 ----------------------------------------------------------------------
 hf stability analysis of h10 triangular lattice, y= -1.180613953977208
 7
 ----------------------------------------------------------------------
 Symbolic Z-matrix:
 Charge =  0 Multiplicity = 1
 H
 H                    1     1.7644 
 H                    1     1.7644   2    -96. 
 H                    2     1.7644   1     276.     3     0.       0
 H                    3     1.7644   1     180.     2     0.       0
 H                    4     1.7644   2     180.     1     0.       0
 H                    5     1.7644   3     180.     2     0.       0
 H                    6     1.7644   4     180.     1     0.       0
 H                    7     1.7644   5     180.     2     0.       0
 H                    8     1.7644   6     180.     1     0.       0
 
                          Input orientation:                          
 ---------------------------------------------------------------------
 Center     Atomic      Atomic             Coordinates (Angstroms)
 Number     Number       Type             X           Y           Z
 ---------------------------------------------------------------------
      1          1           0        0.000000    0.000000    0.000000
      2          1           0        0.000000    0.000000    1.764400
      3          1           0       -1.754734    0.000000   -0.184430
      4          1           0        1.754734    0.000000    1.579970
      5          1           0       -3.509469    0.000000   -0.368860
      6          1           0        3.509469    0.000000    1.395540
      7          1           0       -5.264203    0.000000   -0.553290
      8          1           0        5.264203    0.000000    1.211110
      9          1           0       -7.018938    0.000000   -0.737720
     10          1           0        7.018938    0.000000    1.026680
 ---------------------------------------------------------------------
                    Distance matrix (angstroms):
                    1          2          3          4          5
     1  H    0.000000
     2  H    1.764400   0.000000
     3  H    1.764400   2.622409   0.000000
     4  H    2.361228   1.764400   3.928038   0.000000
     5  H    3.528800   4.106966   1.764400   5.613357   0.000000
     6  H    3.776758   3.528800   5.496193   1.764400   7.237306
     7  H    5.293200   5.751828   3.528800   7.335958   1.764400
     8  H    5.401724   5.293200   7.156327   3.528800   8.914798
     9  H    7.057600   7.451583   5.293200   9.074636   3.528800
    10  H    7.093628   7.057600   8.856868   5.293200  10.620493
                    6          7          8          9         10
     6  H    0.000000
     7  H    8.987506   0.000000
     8  H    1.764400  10.675226   0.000000
     9  H   10.742353   1.764400  12.436780   0.000000
    10  H    3.528800  12.384339   1.764400  14.148323   0.000000
 Stoichiometry    H10
 Framework group  CS[SG(H10)]
 Deg. of freedom    17
 Full point group                 CS      NOp   2
 Largest Abelian subgroup         CS      NOp   2
 Largest concise Abelian subgroup C1      NOp   1
                         Standard orientation:                         
 ---------------------------------------------------------------------
 Center     Atomic      Atomic             Coordinates (Angstroms)
 Number     Number       Type             X           Y           Z
 ---------------------------------------------------------------------
      1          1           0       -0.000000    0.513340    0.000000
      2          1           0        0.000000   -1.251060    0.000000
      3          1           0        1.754734    0.697770    0.000000
      4          1           0       -1.754734   -1.066630    0.000000
      5          1           0        3.509469    0.882200    0.000000
      6          1           0       -3.509469   -0.882200    0.000000
      7          1           0        5.264203    1.066630    0.000000
      8          1           0       -5.264203   -0.697770    0.000000
      9          1           0        7.018938    1.251060    0.000000
     10          1           0       -7.018938   -0.513340    0.000000
 ---------------------------------------------------------------------
 Rotational constants (GHZ):    157.5135653      2.6388892      2.5954073
 General basis read from cards:  (5D, 7F)
 There are    10 symmetry adapted cartesian basis functions of A'  symmetry.
 There are     0 symmetry adapted cartesian basis functions of A"  symmetry.
 There are    10 symmetry adapted basis functions of A'  symmetry.
 There are     0 symmetry adapted basis functions of A"  symmetry.
    10 basis functions,   100 primitive gaussians,    10 cartesian basis functions
     5 alpha electrons        5 beta electrons
       nuclear repulsion energy         6.2314316411 Hartrees.
 NAtoms=   10 NActive=   10 NUniq=   10 SFac= 1.00D+00 NAtFMM=   60 NAOKFM=F Big=F
 Integral buffers will be    131072 words long.
 Regular integral format.
 Two-electron integral symmetry is turned on.
 One-electron integrals computed using PRISM.
 NBasis=    10 RedAO= T EigKep=  7.46D-01  NBF=    10     0
 NBsUse=    10 1.00D-06 EigRej= -1.00D+00 NBFU=    10     0
 Initial guess from the checkpoint file:  "h10.chk"
 B after Tr=     0.000000    0.000000    0.000000
         Rot=    1.000000    0.000000    0.000000   -0.000245 Ang=  -0.03 deg.
 Initial guess orbital symmetries:
       Occupied  (A') (A') (A') (A') (A')
       Virtual   (A') (A') (A') (A') (A')
 Keep R1 ints in memory in symmetry-blocked form, NReq=865455.
 Requested convergence on RMS density matrix=1.00D-08 within 128 cycles.
 Requested convergence on MAX density matrix=1.00D-06.
 Requested convergence on             energy=1.00D-06.
 No special actions if energy rises.
 SCF Done:  E(RHF) =  -4.76139051947     A.U. after   10 cycles
            NFock= 10  Conv=0.53D-08     -V/T= 2.1971
 Range of M.O.s used for correlation:     1    10
 NBasis=    10 NAE=     5 NBE=     5 NFC=     0 NFV=     0
 NROrb=     10 NOA=     5 NOB=     5 NVA=     5 NVB=     5
 Semi-Direct transformation.
 ModeAB=           2 MOrb=             5 LenV=     134121573
 LASXX=         1030 LTotXX=        1030 LenRXX=        1030
 LTotAB=        1450 MaxLAS=        2750 LenRXY=        2750
 NonZer=        2750 LenScr=      655360 LnRSAI=           0
 LnScr1=           0 LExtra=           0 Total=       659140
 MaxDsk=          -1 SrtSym=           F ITran=            3
 JobTyp=0 Pass  1:  I=   1 to   5.
 (rs|ai) integrals will be sorted in core.
 Spin components of T(2) and E(2):
     alpha-alpha T2 =       0.4621336462D-02 E2=     -0.3610253667D-02
     alpha-beta  T2 =       0.2045332119D+00 E2=     -0.1687504198D+00
     beta-beta   T2 =       0.4621336462D-02 E2=     -0.3610253667D-02
 ANorm=    0.1101714974D+01
 E2 =    -0.1759709271D+00 EUMP2 =    -0.49373614465666D+01
 Second order stability test of a single determinant RHF wave function:
 Stabil:  MDV=134217728
 ***********************************************************************
 Matrix         Lowest Root    Major Pairs
 ***********************************************************************
 Internal RHF     0.1456919    Stable
 RRHF --> CRHF    0.0807314    Stable

 RRHF --> RUHF   -0.2353431    5A=6B 4A=7B 3A=8B 2A=10B 1A=9B 1A=8B 3A=9B 2A=9B 3
 A=10B 4A=6B 5A=7B
 Not stable.
 ***********************************************************************

 **********************************************************************

            Population analysis using the SCF density.

 **********************************************************************

 Orbital symmetries:
       Occupied  (A') (A') (A') (A') (A')
       Virtual   (A') (A') (A') (A') (A')
 The electronic state is 1-A'.
 Alpha  occ. eigenvalues --   -0.49944  -0.44999  -0.42251  -0.36891  -0.31236
 Alpha virt. eigenvalues --   -0.07789   0.00148   0.03481   0.13849   0.14455
          Condensed to atoms (all electrons):
               1          2          3          4          5          6
     1  H    0.730081   0.191241   0.046495  -0.010270  -0.003536  -0.006248
     2  H    0.191241   0.733137  -0.008947   0.042349  -0.003542  -0.004568
     3  H    0.046495  -0.008947   0.769629  -0.001264   0.199988   0.000002
     4  H   -0.010270   0.042349  -0.001264   0.765148   0.000007   0.201858
     5  H   -0.003536  -0.003542   0.199988   0.000007   0.799834   0.000008
     6  H   -0.006248  -0.004568   0.000002   0.201858   0.000008   0.829972
     7  H   -0.000051   0.000016  -0.002564   0.000001   0.037005  -0.000000
     8  H    0.000023  -0.000046   0.000001  -0.002380  -0.000000   0.036541
     9  H    0.000003   0.000005  -0.000412  -0.000000  -0.003333  -0.000000
    10  H    0.000009   0.000004   0.000000  -0.000416  -0.000000  -0.003853
               7          8          9         10
     1  H   -0.000051   0.000023   0.000003   0.000009
     2  H    0.000016  -0.000046   0.000005   0.000004
     3  H   -0.002564   0.000001  -0.000412   0.000000
     4  H    0.000001  -0.002380  -0.000000  -0.000416
     5  H    0.037005  -0.000000  -0.003333  -0.000000
     6  H   -0.000000   0.036541  -0.000000  -0.003853
     7  H    0.761072  -0.000000   0.211592   0.000000
     8  H   -0.000000   0.755974   0.000000   0.211912
     9  H    0.211592   0.000000   0.792187   0.000000
    10  H    0.000000   0.211912   0.000000   0.807710
 Mulliken charges:
               1
     1  H    0.052254
     2  H    0.050352
     3  H   -0.002928
     4  H    0.004968
     5  H   -0.026432
     6  H   -0.053711
     7  H   -0.007071
     8  H   -0.002025
     9  H   -0.000042
    10  H   -0.015366
 Sum of Mulliken charges =  -0.00000
 Mulliken charges with hydrogens summed into heavy atoms:
               1
 Electronic spatial extent (au):  <R**2>=            725.2460
 Charge=              0.0000 electrons
 Dipole moment (field-independent basis, Debye):
    X=              0.7823    Y=             -0.0852    Z=              0.0000  Tot=              0.7869
 Quadrupole moment (field-independent basis, Debye-Ang):
   XX=            -19.3101   YY=            -13.5136   ZZ=            -14.6364
   XY=             -1.9021   XZ=              0.0000   YZ=              0.0000
 Traceless Quadrupole moment (field-independent basis, Debye-Ang):
   XX=             -3.4901   YY=              2.3064   ZZ=              1.1837
   XY=             -1.9021   XZ=              0.0000   YZ=              0.0000
 Octapole moment (field-independent basis, Debye-Ang**2):
  XXX=             28.6160  YYY=             -1.6370  ZZZ=              0.0000  XYY=              1.5176
  XXY=              7.4729  XXZ=              0.0000  XZZ=              0.1998  YZZ=             -0.0352
  YYZ=              0.0000  XYZ=              0.0000
 Hexadecapole moment (field-independent basis, Debye-Ang**3):
 XXXX=          -1251.1717 YYYY=            -88.7440 ZZZZ=            -19.4586 XXXY=           -115.3920
 XXXZ=              0.0000 YYYX=           -138.4670 YYYZ=              0.0000 ZZZX=              0.0000
 ZZZY=              0.0000 XXYY=           -288.9739 XXZZ=           -277.7746 YYZZ=            -18.4269
 XXYZ=              0.0000 YYXZ=              0.0000 ZZXY=            -45.9667
 N-N= 6.231431641052D+00 E-N=-2.185670414688D+01  KE= 3.977505298951D+00
 Symmetry A'   KE= 3.977505298951D+00
 Symmetry A"   KE= 0.000000000000D+00

 Test job not archived.
 1\1\GINC-SULU\Stability\RHF\Gen\H10\LCJ1\10-Feb-2017\0\\#rhf/gen scf(t
 ight,novaracc,noincfock,fulldiag) stable(crhf) guess=read geom=nocrowd
  test\\hf stability analysis of h10 triangular lattice, y= -1.18061395
 39772087\\0,1\H\H,1,1.7644\H,1,1.7644,2,-96.\H,2,1.7644,1,276.,3,0.,0\
 H,3,1.7644,1,180.,2,0.,0\H,4,1.7644,2,180.,1,0.,0\H,5,1.7644,3,180.,2,
 0.,0\H,6,1.7644,4,180.,1,0.,0\H,7,1.7644,5,180.,2,0.,0\H,8,1.7644,6,18
 0.,1,0.,0\\Version=ES64L-G09RevE.01\State=1-A'\HF=-4.7613905\MP2=-4.93
 73614\RMSD=5.307e-09\Dipole=-0.3077873,0.,0.0335238\Quadrupole=-2.5947
 776,0.8800253,1.7147523,0.,-1.4142009,0.\PG=CS [SG(H10)]\\@


 We find comfort among those who agree with us -- growth among those who don't.
 -- Frank A. Clark
 Job cpu time:       0 days  0 hours  0 minutes  0.7 seconds.
 File lengths (MBytes):  RWF=     84 Int=      0 D2E=      0 Chk=      2 Scr=      2
 Normal termination of Gaussian 09 at Fri Feb 10 11:21:05 2017.
