 Entering Gaussian System, Link 0=g09
 AtFile(1): H.gbs
            H     0
            S   10   1.00
               1000.000000000000            0.000068713567
                316.227766000000            0.000169141320
                100.000000000000            0.000823394812
                 31.622776600000            0.003425569236
                 10.000000000000            0.013951996000
                  3.162277660000            0.056909313560
                  1.000000000000            0.198286399900
                  0.316227766000            0.496922426700
                  0.100000000000            0.369846276400
                  0.031622776600            0.003752720039
            ****
 Initial command:
 /projects/guscus/apps/gau/g09-e1/g09/l1.exe "/users/lcj1/gaussian/h10/rhfstability/2rows/zmat/mix/bck/Gau-20217.inp" -scrdir="/users/lcj1/gaussian/h10/rhfstability/2rows/zmat/mix/bck/"
 Entering Link 1 = /projects/guscus/apps/gau/g09-e1/g09/l1.exe PID=     20218.
  
 Copyright (c) 1988,1990,1992,1993,1995,1998,2003,2009,2015,
            Gaussian, Inc.  All Rights Reserved.
  
 This is part of the Gaussian(R) 09 program.  It is based on
 the Gaussian(R) 03 system (copyright 2003, Gaussian, Inc.),
 the Gaussian(R) 98 system (copyright 1998, Gaussian, Inc.),
 the Gaussian(R) 94 system (copyright 1995, Gaussian, Inc.),
 the Gaussian 92(TM) system (copyright 1992, Gaussian, Inc.),
 the Gaussian 90(TM) system (copyright 1990, Gaussian, Inc.),
 the Gaussian 88(TM) system (copyright 1988, Gaussian, Inc.),
 the Gaussian 86(TM) system (copyright 1986, Carnegie Mellon
 University), and the Gaussian 82(TM) system (copyright 1983,
 Carnegie Mellon University). Gaussian is a federally registered
 trademark of Gaussian, Inc.
  
 This software contains proprietary and confidential information,
 including trade secrets, belonging to Gaussian, Inc.
  
 This software is provided under written license and may be
 used, copied, transmitted, or stored only in accord with that
 written license.
  
 The following legend is applicable only to US Government
 contracts under FAR:
  
                    RESTRICTED RIGHTS LEGEND
  
 Use, reproduction and disclosure by the US Government is
 subject to restrictions as set forth in subparagraphs (a)
 and (c) of the Commercial Computer Software - Restricted
 Rights clause in FAR 52.227-19.
  
 Gaussian, Inc.
 340 Quinnipiac St., Bldg. 40, Wallingford CT 06492
  
  
 ---------------------------------------------------------------
 Warning -- This program may not be used in any manner that
 competes with the business of Gaussian, Inc. or will provide
 assistance to any competitor of Gaussian, Inc.  The licensee
 of this program is prohibited from giving any competitor of
 Gaussian, Inc. access to this program.  By using this program,
 the user acknowledges that Gaussian, Inc. is engaged in the
 business of creating and licensing software in the field of
 computational chemistry and represents and warrants to the
 licensee that it is not a competitor of Gaussian, Inc. and that
 it will not use this program in any manner prohibited above.
 ---------------------------------------------------------------
  

 Cite this work as:
 Gaussian 09, Revision E.01,
 M. J. Frisch, G. W. Trucks, H. B. Schlegel, G. E. Scuseria, 
 M. A. Robb, J. R. Cheeseman, G. Scalmani, V. Barone, B. Mennucci, 
 G. A. Petersson, H. Nakatsuji, M. Caricato, X. Li, H. P. Hratchian, 
 A. F. Izmaylov, J. Bloino, G. Zheng, J. L. Sonnenberg, M. Hada, 
 M. Ehara, K. Toyota, R. Fukuda, J. Hasegawa, M. Ishida, T. Nakajima, 
 Y. Honda, O. Kitao, H. Nakai, T. Vreven, J. A. Montgomery, Jr., 
 J. E. Peralta, F. Ogliaro, M. Bearpark, J. J. Heyd, E. Brothers, 
 K. N. Kudin, V. N. Staroverov, T. Keith, R. Kobayashi, J. Normand, 
 K. Raghavachari, A. Rendell, J. C. Burant, S. S. Iyengar, J. Tomasi, 
 M. Cossi, N. Rega, J. M. Millam, M. Klene, J. E. Knox, J. B. Cross, 
 V. Bakken, C. Adamo, J. Jaramillo, R. Gomperts, R. E. Stratmann, 
 O. Yazyev, A. J. Austin, R. Cammi, C. Pomelli, J. W. Ochterski, 
 R. L. Martin, K. Morokuma, V. G. Zakrzewski, G. A. Voth, 
 P. Salvador, J. J. Dannenberg, S. Dapprich, A. D. Daniels, 
 O. Farkas, J. B. Foresman, J. V. Ortiz, J. Cioslowski, 
 and D. J. Fox, Gaussian, Inc., Wallingford CT, 2013.
 
 ******************************************
 Gaussian 09:  ES64L-G09RevE.01 30-Nov-2015
                13-Feb-2017 
 ******************************************
 %chk=h10.chk
 ----------------------------------------------------------------------
 #rhf/gen scf(tight,novaracc,noincfock,fulldiag) stable(crhf) guess=mix
  geom=nocrowd test
 ----------------------------------------------------------------------
 1/38=1/1;
 2/12=1,17=6,18=5,40=1/2;
 3/5=7,16=1,25=1,30=1,116=1/1,2,3;
 4/13=-1/1;
 5/5=100002,16=1,32=2,38=1/2;
 8/6=1,10=90,11=11/1,4;
 9/8=4,13=1/2;
 6/7=2,8=2,9=2,10=2,28=1/1;
 99/5=1,9=1/99;
 ----------------------------------------------------------------------
 hf stability analysis of h10 triangular lattice, y= 0.6595943070875844
 9
 ----------------------------------------------------------------------
 Symbolic Z-matrix:
 Charge =  0 Multiplicity = 1
 H
 H                    1     1.09601 
 H                    1     1.09601  2     106. 
 H                    2     1.09601  1     74.      3     0.       0
 H                    3     1.09601  1     180.     2     0.       0
 H                    4     1.09601  2     180.     1     0.       0
 H                    5     1.09601  3     180.     2     0.       0
 H                    6     1.09601  4     180.     1     0.       0
 H                    7     1.09601  5     180.     2     0.       0
 H                    8     1.09601  6     180.     1     0.       0
 
                          Input orientation:                          
 ---------------------------------------------------------------------
 Center     Atomic      Atomic             Coordinates (Angstroms)
 Number     Number       Type             X           Y           Z
 ---------------------------------------------------------------------
      1          1           0        0.000000    0.000000    0.000000
      2          1           0        0.000000    0.000000    1.096008
      3          1           0        1.053551    0.000000   -0.302101
      4          1           0        1.053551    0.000000    0.793908
      5          1           0        2.107102    0.000000   -0.604202
      6          1           0        2.107102    0.000000    0.491807
      7          1           0        3.160653    0.000000   -0.906303
      8          1           0        3.160653    0.000000    0.189706
      9          1           0        4.214203    0.000000   -1.208403
     10          1           0        4.214203    0.000000   -0.112395
 ---------------------------------------------------------------------
                    Distance matrix (angstroms):
                    1          2          3          4          5
     1  H    0.000000
     2  H    1.096008   0.000000
     3  H    1.096008   1.750622   0.000000
     4  H    1.319189   1.096008   1.096008   0.000000
     5  H    2.192017   2.707507   1.096008   1.750622   0.000000
     6  H    2.163736   2.192017   1.319189   1.096008   1.096008
     7  H    3.288025   3.741520   2.192017   2.707507   1.096008
     8  H    3.166341   3.288025   2.163736   2.192017   1.319189
     9  H    4.384033   4.803106   3.288025   3.741520   2.192017
    10  H    4.215702   4.384033   3.166341   3.288025   2.163736
                    6          7          8          9         10
     6  H    0.000000
     7  H    1.750622   0.000000
     8  H    1.096008   1.096008   0.000000
     9  H    2.707507   1.096008   1.750622   0.000000
    10  H    2.192017   1.319189   1.096008   1.096008   0.000000
 Stoichiometry    H10
 Framework group  C2H[SGH(H10)]
 Deg. of freedom     9
 Full point group                 C2H     NOp   4
 Largest Abelian subgroup         C2H     NOp   4
 Largest concise Abelian subgroup C2      NOp   2
                         Standard orientation:                         
 ---------------------------------------------------------------------
 Center     Atomic      Atomic             Coordinates (Angstroms)
 Number     Number       Type             X           Y           Z
 ---------------------------------------------------------------------
      1          1           0        2.107102   -0.056198    0.000000
      2          1           0        2.107102   -1.152206    0.000000
      3          1           0        1.053551    0.245903    0.000000
      4          1           0        1.053551   -0.850105    0.000000
      5          1           0        0.000000    0.548004    0.000000
      6          1           0       -0.000000   -0.548004    0.000000
      7          1           0       -1.053551    0.850105    0.000000
      8          1           0       -1.053551   -0.245903    0.000000
      9          1           0       -2.107102    1.152206    0.000000
     10          1           0       -2.107102    0.056198    0.000000
 ---------------------------------------------------------------------
 Rotational constants (GHZ):    182.6471491     20.6510661     18.5533274
 General basis read from cards:  (5D, 7F)
 There are     5 symmetry adapted cartesian basis functions of AG  symmetry.
 There are     0 symmetry adapted cartesian basis functions of BG  symmetry.
 There are     0 symmetry adapted cartesian basis functions of AU  symmetry.
 There are     5 symmetry adapted cartesian basis functions of BU  symmetry.
 There are     5 symmetry adapted basis functions of AG  symmetry.
 There are     0 symmetry adapted basis functions of BG  symmetry.
 There are     0 symmetry adapted basis functions of AU  symmetry.
 There are     5 symmetry adapted basis functions of BU  symmetry.
    10 basis functions,   100 primitive gaussians,    10 cartesian basis functions
     5 alpha electrons        5 beta electrons
       nuclear repulsion energy        13.5968638439 Hartrees.
 NAtoms=   10 NActive=   10 NUniq=    5 SFac= 4.00D+00 NAtFMM=   60 NAOKFM=F Big=F
 Integral buffers will be    131072 words long.
 Regular integral format.
 Two-electron integral symmetry is turned on.
 One-electron integrals computed using PRISM.
 NBasis=    10 RedAO= T EigKep=  1.40D-01  NBF=     5     0     0     5
 NBsUse=    10 1.00D-06 EigRej= -1.00D+00 NBFU=     5     0     0     5
 ExpMin= 3.16D-02 ExpMax= 1.00D+03 ExpMxC= 1.00D+01 IAcc=3 IRadAn=         5 AccDes= 0.00D+00
 Harris functional with IExCor=  205 and IRadAn=       5 diagonalized for initial guess.
 HarFok:  IExCor=  205 AccDes= 0.00D+00 IRadAn=         5 IDoV= 1 UseB2=F ITyADJ=14
 ICtDFT=  3500011 ScaDFX=  1.000000  1.000000  1.000000  1.000000
 FoFCou: FMM=F IPFlag=           0 FMFlag=      100000 FMFlg1=           0
         NFxFlg=           0 DoJE=T BraDBF=F KetDBF=T FulRan=T
         wScrn=  0.000000 ICntrl=     500 IOpCl=  0 I1Cent=   200000004 NGrid=           0
         NMat0=    1 NMatS0=      1 NMatT0=    0 NMatD0=    1 NMtDS0=    0 NMtDT0=    0
 Petite list used in FoFCou.
 Mixing orbitals, IMix= 1 IMixAn=  0 NRI=1 NE=    5 Coef=  7.07106781D-01  7.07106781D-01
 Initial guess orbital symmetries:
       Occupied  (AG) (BU) (AG) (BU) (?A)
       Virtual   (?A) (BU) (AG) (AG) (BU)
 Keep R1 ints in memory in symmetry-blocked form, NReq=879371.
 Requested convergence on RMS density matrix=1.00D-08 within 128 cycles.
 Requested convergence on MAX density matrix=1.00D-06.
 Requested convergence on             energy=1.00D-06.
 No special actions if energy rises.
 An orbital has undefined symmetry, so N**3 symmetry is turned off.
 Density matrix breaks symmetry, PCut= 1.00D-04
 Density matrix has no symmetry -- integrals replicated.
 Density matrix breaks symmetry, PCut= 1.00D-07
 Density matrix has no symmetry -- integrals replicated.
 Density matrix breaks symmetry, PCut= 1.00D-07
 Density matrix has no symmetry -- integrals replicated.
 Density matrix breaks symmetry, PCut= 1.00D-07
 Density matrix has no symmetry -- integrals replicated.
 Density matrix breaks symmetry, PCut= 1.00D-07
 Density matrix has no symmetry -- integrals replicated.
 Density matrix breaks symmetry, PCut= 1.00D-07
 Density matrix has no symmetry -- integrals replicated.
 Density matrix breaks symmetry, PCut= 1.00D-07
 Density matrix has no symmetry -- integrals replicated.
 Density matrix breaks symmetry, PCut= 1.00D-07
 Density matrix has no symmetry -- integrals replicated.
 Rare condition: small coef for last iteration:  0.000D+00
 Density matrix breaks symmetry, PCut= 1.00D-07
 Density matrix has no symmetry -- integrals replicated.
 Density matrix breaks symmetry, PCut= 1.00D-07
 Density matrix has no symmetry -- integrals replicated.
 Density matrix breaks symmetry, PCut= 1.00D-07
 Density matrix has no symmetry -- integrals replicated.
 Density matrix breaks symmetry, PCut= 1.00D-07
 Density matrix has no symmetry -- integrals replicated.
 Density matrix breaks symmetry, PCut= 1.00D-07
 Density matrix has no symmetry -- integrals replicated.
 Density matrix breaks symmetry, PCut= 1.00D-07
 Density matrix has no symmetry -- integrals replicated.
 Density matrix breaks symmetry, PCut= 1.00D-07
 Density matrix has no symmetry -- integrals replicated.
 Density matrix breaks symmetry, PCut= 1.00D-07
 Density matrix has no symmetry -- integrals replicated.
 SCF Done:  E(RHF) =  -4.83311379282     A.U. after   15 cycles
            NFock= 15  Conv=0.61D-08     -V/T= 1.9384
 Range of M.O.s used for correlation:     1    10
 NBasis=    10 NAE=     5 NBE=     5 NFC=     0 NFV=     0
 NROrb=     10 NOA=     5 NOB=     5 NVA=     5 NVB=     5
 Semi-Direct transformation.
 ModeAB=           2 MOrb=             5 LenV=     134107681
 LASXX=         1030 LTotXX=        1030 LenRXX=        1030
 LTotAB=        1450 MaxLAS=        2750 LenRXY=        2750
 NonZer=        2750 LenScr=      655360 LnRSAI=           0
 LnScr1=           0 LExtra=           0 Total=       659140
 MaxDsk=          -1 SrtSym=           F ITran=            3
 JobTyp=0 Pass  1:  I=   1 to   5.
 (rs|ai) integrals will be sorted in core.
 SymMOI:  orbitals are not symmetric.
 Spin components of T(2) and E(2):
     alpha-alpha T2 =       0.5034692350D-02 E2=     -0.6590647979D-02
     alpha-beta  T2 =       0.6072017429D-01 E2=     -0.8320018162D-01
     beta-beta   T2 =       0.5034692350D-02 E2=     -0.6590647979D-02
 ANorm=    0.1034789621D+01
 E2 =    -0.9638147758D-01 EUMP2 =    -0.49294952704007D+01
 Second order stability test of a single determinant RHF wave function:
 Stabil:  MDV=134217728
 ***********************************************************************
 Matrix         Lowest Root    Major Pairs
 ***********************************************************************
 Internal RHF    -0.0373775    5A=6A
 RRHF --> CRHF   -0.0549129    5A=6A
 RRHF --> RUHF   -0.0922414    5A=6B
 Not stable.
 ***********************************************************************

 **********************************************************************

            Population analysis using the SCF density.

 **********************************************************************

 Orbital symmetries:
       Occupied  (BG) (BG) (BG) (BG) (BG)
       Virtual   (BG) (BG) (BG) (BG) (BG)
 Unable to determine electronic state:  partially filled degenerate orbitals.
 Alpha  occ. eigenvalues --   -0.86472  -0.73952  -0.53753  -0.42046  -0.27362
 Alpha virt. eigenvalues --   -0.04880   0.19581   0.31436   0.52876   0.79792
          Condensed to atoms (all electrons):
               1          2          3          4          5          6
     1  H    1.171205   0.294377   0.135029  -0.332218   0.006356  -0.127369
     2  H    0.294377   0.471778  -0.024489   0.057721  -0.035976  -0.028319
     3  H    0.135029  -0.024489   0.580158  -0.097415   0.346421  -0.087871
     4  H   -0.332218   0.057721  -0.097415   1.425006  -0.153565   0.442888
     5  H    0.006356  -0.035976   0.346421  -0.153565   1.006522  -0.055348
     6  H   -0.127369  -0.028319  -0.087871   0.442888  -0.055348   0.821366
     7  H    0.002127  -0.001627   0.032796  -0.017094   0.140585  -0.080410
     8  H    0.020846   0.008983  -0.075943  -0.100724  -0.061495   0.063081
     9  H   -0.002905  -0.000155   0.002269   0.012743  -0.037773  -0.005035
    10  H    0.001897   0.001706  -0.014634  -0.002336  -0.065626  -0.011754
               7          8          9         10
     1  H    0.002127   0.020846  -0.002905   0.001897
     2  H   -0.001627   0.008983  -0.000155   0.001706
     3  H    0.032796  -0.075943   0.002269  -0.014634
     4  H   -0.017094  -0.100724   0.012743  -0.002336
     5  H    0.140585  -0.061495  -0.037773  -0.065626
     6  H   -0.080410   0.063081  -0.005035  -0.011754
     7  H    0.497037  -0.137002   0.287752   0.046919
     8  H   -0.137002   1.590459  -0.300471   0.298685
     9  H    0.287752  -0.300471   1.273824   0.015098
    10  H    0.046919   0.298685   0.015098   0.441193
 Mulliken charges:
               1
     1  H   -0.169344
     2  H    0.255999
     3  H    0.203679
     4  H   -0.235005
     5  H   -0.090102
     6  H    0.068770
     7  H    0.228918
     8  H   -0.306418
     9  H   -0.245348
    10  H    0.288852
 Sum of Mulliken charges =   0.00000
 Mulliken charges with hydrogens summed into heavy atoms:
               1
 Electronic spatial extent (au):  <R**2>=            127.0227
 Charge=              0.0000 electrons
 Dipole moment (field-independent basis, Debye):
    X=              0.6704    Y=             -0.5723    Z=              0.0000  Tot=              0.8814
 Quadrupole moment (field-independent basis, Debye-Ang):
   XX=            -12.4728   YY=            -15.6443   ZZ=            -12.9129
   XY=             -0.4663   XZ=              0.0000   YZ=             -0.0000
 Traceless Quadrupole moment (field-independent basis, Debye-Ang):
   XX=              1.2038   YY=             -1.9677   ZZ=              0.7638
   XY=             -0.4663   XZ=              0.0000   YZ=             -0.0000
 Octapole moment (field-independent basis, Debye-Ang**2):
  XXX=             -1.6348  YYY=             -4.6478  ZZZ=             -0.0000  XYY=              7.8796
  XXY=            -11.8584  XXZ=             -0.0000  XZZ=              0.1053  YZZ=             -0.2516
  YYZ=             -0.0000  XYZ=              0.0000
 Hexadecapole moment (field-independent basis, Debye-Ang**3):
 XXXX=           -193.3771 YYYY=            -62.2552 ZZZZ=            -15.5640 XXXY=             25.7359
 XXXZ=              0.0000 YYYX=             26.6324 YYYZ=             -0.0000 ZZZX=              0.0000
 ZZZY=             -0.0000 XXYY=            -44.5331 XXZZ=            -34.7964 YYZZ=            -12.6621
 XXYZ=             -0.0000 YYXZ=              0.0000 ZZXY=              8.3319
 N-N= 1.359686384390D+01 E-N=-3.633842212168D+01  KE= 5.150152039215D+00
 Symmetry AG   KE= 2.348695517435D+00
 Symmetry BG   KE= 0.000000000000D+00
 Symmetry AU   KE= 0.000000000000D+00
 Symmetry BU   KE= 2.801456521780D+00

 Test job not archived.
 1\1\GINC-SULU\Stability\RHF\Gen\H10\UNKNOWN\13-Feb-2017\0\\#rhf/gen sc
 f(tight,novaracc,noincfock,fulldiag) stable(crhf) guess=mix geom=nocro
 wd test\\hf stability analysis of h10 triangular lattice, y= 0.6595943
 0708758449\\0,1\H\H,1,1.0960083514\H,1,1.0960083514,2,106.\H,2,1.09600
 83514,1,74.,3,0.,0\H,3,1.0960083514,1,180.,2,0.,0\H,4,1.0960083514,2,1
 80.,1,0.,0\H,5,1.0960083514,3,180.,2,0.,0\H,6,1.0960083514,4,180.,1,0.
 ,0\H,7,1.0960083514,5,180.,2,0.,0\H,8,1.0960083514,6,180.,1,0.,0\\Vers
 ion=ES64L-G09RevE.01\HF=-4.8331138\MP2=-4.9294953\RMSD=6.056e-09\Dipol
 e=-0.2637491,0.,0.225161\Quadrupole=0.8950302,0.5678763,-1.4629065,0.,
 -0.3467088,0.\PG=C02H [SGH(H10)]\\@


 Fatherhood is pretending the present you love most is soap-on-a-rope.
 -- Bill Cosby
 Job cpu time:       0 days  0 hours  0 minutes  1.0 seconds.
 File lengths (MBytes):  RWF=     84 Int=      0 D2E=      0 Chk=      2 Scr=      2
 Normal termination of Gaussian 09 at Mon Feb 13 14:08:47 2017.
