 Entering Gaussian System, Link 0=g09
 AtFile(1): H.gbs
            H     0
            S   10   1.00
               1000.000000000000            0.000068713567
                316.227766000000            0.000169141320
                100.000000000000            0.000823394812
                 31.622776600000            0.003425569236
                 10.000000000000            0.013951996000
                  3.162277660000            0.056909313560
                  1.000000000000            0.198286399900
                  0.316227766000            0.496922426700
                  0.100000000000            0.369846276400
                  0.031622776600            0.003752720039
            ****
 Initial command:
 /projects/guscus/apps/gau/g09-e1/g09/l1.exe "/users/lcj1/gaussian/h10/rhfstability/2rows/zmat/mix/bck/Gau-20299.inp" -scrdir="/users/lcj1/gaussian/h10/rhfstability/2rows/zmat/mix/bck/"
 Entering Link 1 = /projects/guscus/apps/gau/g09-e1/g09/l1.exe PID=     20300.
  
 Copyright (c) 1988,1990,1992,1993,1995,1998,2003,2009,2015,
            Gaussian, Inc.  All Rights Reserved.
  
 This is part of the Gaussian(R) 09 program.  It is based on
 the Gaussian(R) 03 system (copyright 2003, Gaussian, Inc.),
 the Gaussian(R) 98 system (copyright 1998, Gaussian, Inc.),
 the Gaussian(R) 94 system (copyright 1995, Gaussian, Inc.),
 the Gaussian 92(TM) system (copyright 1992, Gaussian, Inc.),
 the Gaussian 90(TM) system (copyright 1990, Gaussian, Inc.),
 the Gaussian 88(TM) system (copyright 1988, Gaussian, Inc.),
 the Gaussian 86(TM) system (copyright 1986, Carnegie Mellon
 University), and the Gaussian 82(TM) system (copyright 1983,
 Carnegie Mellon University). Gaussian is a federally registered
 trademark of Gaussian, Inc.
  
 This software contains proprietary and confidential information,
 including trade secrets, belonging to Gaussian, Inc.
  
 This software is provided under written license and may be
 used, copied, transmitted, or stored only in accord with that
 written license.
  
 The following legend is applicable only to US Government
 contracts under FAR:
  
                    RESTRICTED RIGHTS LEGEND
  
 Use, reproduction and disclosure by the US Government is
 subject to restrictions as set forth in subparagraphs (a)
 and (c) of the Commercial Computer Software - Restricted
 Rights clause in FAR 52.227-19.
  
 Gaussian, Inc.
 340 Quinnipiac St., Bldg. 40, Wallingford CT 06492
  
  
 ---------------------------------------------------------------
 Warning -- This program may not be used in any manner that
 competes with the business of Gaussian, Inc. or will provide
 assistance to any competitor of Gaussian, Inc.  The licensee
 of this program is prohibited from giving any competitor of
 Gaussian, Inc. access to this program.  By using this program,
 the user acknowledges that Gaussian, Inc. is engaged in the
 business of creating and licensing software in the field of
 computational chemistry and represents and warrants to the
 licensee that it is not a competitor of Gaussian, Inc. and that
 it will not use this program in any manner prohibited above.
 ---------------------------------------------------------------
  

 Cite this work as:
 Gaussian 09, Revision E.01,
 M. J. Frisch, G. W. Trucks, H. B. Schlegel, G. E. Scuseria, 
 M. A. Robb, J. R. Cheeseman, G. Scalmani, V. Barone, B. Mennucci, 
 G. A. Petersson, H. Nakatsuji, M. Caricato, X. Li, H. P. Hratchian, 
 A. F. Izmaylov, J. Bloino, G. Zheng, J. L. Sonnenberg, M. Hada, 
 M. Ehara, K. Toyota, R. Fukuda, J. Hasegawa, M. Ishida, T. Nakajima, 
 Y. Honda, O. Kitao, H. Nakai, T. Vreven, J. A. Montgomery, Jr., 
 J. E. Peralta, F. Ogliaro, M. Bearpark, J. J. Heyd, E. Brothers, 
 K. N. Kudin, V. N. Staroverov, T. Keith, R. Kobayashi, J. Normand, 
 K. Raghavachari, A. Rendell, J. C. Burant, S. S. Iyengar, J. Tomasi, 
 M. Cossi, N. Rega, J. M. Millam, M. Klene, J. E. Knox, J. B. Cross, 
 V. Bakken, C. Adamo, J. Jaramillo, R. Gomperts, R. E. Stratmann, 
 O. Yazyev, A. J. Austin, R. Cammi, C. Pomelli, J. W. Ochterski, 
 R. L. Martin, K. Morokuma, V. G. Zakrzewski, G. A. Voth, 
 P. Salvador, J. J. Dannenberg, S. Dapprich, A. D. Daniels, 
 O. Farkas, J. B. Foresman, J. V. Ortiz, J. Cioslowski, 
 and D. J. Fox, Gaussian, Inc., Wallingford CT, 2013.
 
 ******************************************
 Gaussian 09:  ES64L-G09RevE.01 30-Nov-2015
                13-Feb-2017 
 ******************************************
 %chk=h10.chk
 ----------------------------------------------------------------------
 #rhf/gen scf(tight,novaracc,noincfock,fulldiag) stable(crhf) guess=mix
  geom=nocrowd test
 ----------------------------------------------------------------------
 1/38=1/1;
 2/12=1,17=6,18=5,40=1/2;
 3/5=7,16=1,25=1,30=1,116=1/1,2,3;
 4/13=-1/1;
 5/5=100002,16=1,32=2,38=1/2;
 8/6=1,10=90,11=11/1,4;
 9/8=4,13=1/2;
 6/7=2,8=2,9=2,10=2,28=1/1;
 99/5=1,9=1/99;
 ----------------------------------------------------------------------
 hf stability analysis of h10 triangular lattice, y= 0.6358183901871248
 3
 ----------------------------------------------------------------------
 Symbolic Z-matrix:
 Charge =  0 Multiplicity = 1
 H
 H                    1     1.10852 
 H                    1     1.10852  2     110. 
 H                    2     1.10852  1     70.      3     0.       0
 H                    3     1.10852  1     180.     2     0.       0
 H                    4     1.10852  2     180.     1     0.       0
 H                    5     1.10852  3     180.     2     0.       0
 H                    6     1.10852  4     180.     1     0.       0
 H                    7     1.10852  5     180.     2     0.       0
 H                    8     1.10852  6     180.     1     0.       0
 
                          Input orientation:                          
 ---------------------------------------------------------------------
 Center     Atomic      Atomic             Coordinates (Angstroms)
 Number     Number       Type             X           Y           Z
 ---------------------------------------------------------------------
      1          1           0        0.000000    0.000000    0.000000
      2          1           0        0.000000    0.000000    1.108516
      3          1           0        1.041664    0.000000   -0.379135
      4          1           0        1.041664    0.000000    0.729381
      5          1           0        2.083328    0.000000   -0.758269
      6          1           0        2.083328    0.000000    0.350246
      7          1           0        3.124992    0.000000   -1.137404
      8          1           0        3.124992    0.000000   -0.028888
      9          1           0        4.166655    0.000000   -1.516539
     10          1           0        4.166655    0.000000   -0.408023
 ---------------------------------------------------------------------
                    Distance matrix (angstroms):
                    1          2          3          4          5
     1  H    0.000000
     2  H    1.108516   0.000000
     3  H    1.108516   1.816085   0.000000
     4  H    1.271637   1.108516   1.108516   0.000000
     5  H    2.217031   2.797345   1.108516   1.816085   0.000000
     6  H    2.112564   2.217031   1.271637   1.108516   1.108516
     7  H    3.325547   3.848341   2.217031   2.797345   1.108516
     8  H    3.125125   3.325547   2.112564   2.217031   1.271637
     9  H    4.434062   4.924624   3.325547   3.848341   2.217031
    10  H    4.186586   4.434062   3.125125   3.325547   2.112564
                    6          7          8          9         10
     6  H    0.000000
     7  H    1.816085   0.000000
     8  H    1.108516   1.108516   0.000000
     9  H    2.797345   1.108516   1.816085   0.000000
    10  H    2.217031   1.271637   1.108516   1.108516   0.000000
 Stoichiometry    H10
 Framework group  C2H[SGH(H10)]
 Deg. of freedom     9
 Full point group                 C2H     NOp   4
 Largest Abelian subgroup         C2H     NOp   4
 Largest concise Abelian subgroup C2      NOp   2
                         Standard orientation:                         
 ---------------------------------------------------------------------
 Center     Atomic      Atomic             Coordinates (Angstroms)
 Number     Number       Type             X           Y           Z
 ---------------------------------------------------------------------
      1          1           0        2.083328   -0.204012    0.000000
      2          1           0        2.083328   -1.312527    0.000000
      3          1           0        1.041664    0.175123    0.000000
      4          1           0        1.041664   -0.933392    0.000000
      5          1           0        0.000000    0.554258   -0.000000
      6          1           0       -0.000000   -0.554258   -0.000000
      7          1           0       -1.041664    0.933392    0.000000
      8          1           0       -1.041664   -0.175123   -0.000000
      9          1           0       -2.083328    1.312527    0.000000
     10          1           0       -2.083328    0.204012    0.000000
 ---------------------------------------------------------------------
 Rotational constants (GHZ):    187.8897362     20.0748505     18.1370224
 General basis read from cards:  (5D, 7F)
 There are     5 symmetry adapted cartesian basis functions of AG  symmetry.
 There are     0 symmetry adapted cartesian basis functions of BG  symmetry.
 There are     0 symmetry adapted cartesian basis functions of AU  symmetry.
 There are     5 symmetry adapted cartesian basis functions of BU  symmetry.
 There are     5 symmetry adapted basis functions of AG  symmetry.
 There are     0 symmetry adapted basis functions of BG  symmetry.
 There are     0 symmetry adapted basis functions of AU  symmetry.
 There are     5 symmetry adapted basis functions of BU  symmetry.
    10 basis functions,   100 primitive gaussians,    10 cartesian basis functions
     5 alpha electrons        5 beta electrons
       nuclear repulsion energy        13.5097841129 Hartrees.
 NAtoms=   10 NActive=   10 NUniq=    5 SFac= 4.00D+00 NAtFMM=   60 NAOKFM=F Big=F
 Integral buffers will be    131072 words long.
 Regular integral format.
 Two-electron integral symmetry is turned on.
 One-electron integrals computed using PRISM.
 NBasis=    10 RedAO= T EigKep=  1.51D-01  NBF=     5     0     0     5
 NBsUse=    10 1.00D-06 EigRej= -1.00D+00 NBFU=     5     0     0     5
 ExpMin= 3.16D-02 ExpMax= 1.00D+03 ExpMxC= 1.00D+01 IAcc=3 IRadAn=         5 AccDes= 0.00D+00
 Harris functional with IExCor=  205 and IRadAn=       5 diagonalized for initial guess.
 HarFok:  IExCor=  205 AccDes= 0.00D+00 IRadAn=         5 IDoV= 1 UseB2=F ITyADJ=14
 ICtDFT=  3500011 ScaDFX=  1.000000  1.000000  1.000000  1.000000
 FoFCou: FMM=F IPFlag=           0 FMFlag=      100000 FMFlg1=           0
         NFxFlg=           0 DoJE=T BraDBF=F KetDBF=T FulRan=T
         wScrn=  0.000000 ICntrl=     500 IOpCl=  0 I1Cent=   200000004 NGrid=           0
         NMat0=    1 NMatS0=      1 NMatT0=    0 NMatD0=    1 NMtDS0=    0 NMtDT0=    0
 Petite list used in FoFCou.
 Mixing orbitals, IMix= 1 IMixAn=  0 NRI=1 NE=    5 Coef=  7.07106781D-01  7.07106781D-01
 Initial guess orbital symmetries:
       Occupied  (AG) (BU) (AG) (BU) (?A)
       Virtual   (?A) (BU) (AG) (AG) (BU)
 Keep R1 ints in memory in symmetry-blocked form, NReq=879469.
 Requested convergence on RMS density matrix=1.00D-08 within 128 cycles.
 Requested convergence on MAX density matrix=1.00D-06.
 Requested convergence on             energy=1.00D-06.
 No special actions if energy rises.
 An orbital has undefined symmetry, so N**3 symmetry is turned off.
 Density matrix breaks symmetry, PCut= 1.00D-04
 Density matrix has no symmetry -- integrals replicated.
 Density matrix breaks symmetry, PCut= 1.00D-07
 Density matrix has no symmetry -- integrals replicated.
 Density matrix breaks symmetry, PCut= 1.00D-07
 Density matrix has no symmetry -- integrals replicated.
 Density matrix breaks symmetry, PCut= 1.00D-07
 Density matrix has no symmetry -- integrals replicated.
 Density matrix breaks symmetry, PCut= 1.00D-07
 Density matrix has no symmetry -- integrals replicated.
 Density matrix breaks symmetry, PCut= 1.00D-07
 Density matrix has no symmetry -- integrals replicated.
 Density matrix breaks symmetry, PCut= 1.00D-07
 Density matrix has no symmetry -- integrals replicated.
 Density matrix breaks symmetry, PCut= 1.00D-07
 Density matrix has no symmetry -- integrals replicated.
 Density matrix breaks symmetry, PCut= 1.00D-07
 Density matrix has no symmetry -- integrals replicated.
 Density matrix breaks symmetry, PCut= 1.00D-07
 Density matrix has no symmetry -- integrals replicated.
 Density matrix breaks symmetry, PCut= 1.00D-07
 Density matrix has no symmetry -- integrals replicated.
 Density matrix breaks symmetry, PCut= 1.00D-07
 Density matrix has no symmetry -- integrals replicated.
 Rare condition: small coef for last iteration:  0.000D+00
 Density matrix breaks symmetry, PCut= 1.00D-07
 Density matrix has no symmetry -- integrals replicated.
 Rare condition: small coef for last iteration:  0.000D+00
 Density matrix breaks symmetry, PCut= 1.00D-07
 Density matrix has no symmetry -- integrals replicated.
 Density matrix breaks symmetry, PCut= 1.00D-07
 Density matrix has no symmetry -- integrals replicated.
 Rare condition: small coef for last iteration:  0.000D+00
 Density matrix breaks symmetry, PCut= 1.00D-07
 Density matrix has no symmetry -- integrals replicated.
 Density matrix breaks symmetry, PCut= 1.00D-07
 Density matrix has no symmetry -- integrals replicated.
 Density matrix breaks symmetry, PCut= 1.00D-07
 Density matrix has no symmetry -- integrals replicated.
 Density matrix breaks symmetry, PCut= 1.00D-07
 Density matrix has no symmetry -- integrals replicated.
 Rare condition: small coef for last iteration:  0.000D+00
 Density matrix breaks symmetry, PCut= 1.00D-07
 Density matrix has no symmetry -- integrals replicated.
 Density matrix breaks symmetry, PCut= 1.00D-07
 Density matrix has no symmetry -- integrals replicated.
 Density matrix breaks symmetry, PCut= 1.00D-07
 Density matrix has no symmetry -- integrals replicated.
 Density matrix breaks symmetry, PCut= 1.00D-07
 Density matrix has no symmetry -- integrals replicated.
 Density matrix breaks symmetry, PCut= 1.00D-07
 Density matrix has no symmetry -- integrals replicated.
 Density matrix breaks symmetry, PCut= 1.00D-07
 Density matrix has no symmetry -- integrals replicated.
 Density matrix breaks symmetry, PCut= 1.00D-07
 Density matrix has no symmetry -- integrals replicated.
 Density matrix breaks symmetry, PCut= 1.00D-07
 Density matrix has no symmetry -- integrals replicated.
 Density matrix breaks symmetry, PCut= 1.00D-07
 Density matrix has no symmetry -- integrals replicated.
 Density matrix breaks symmetry, PCut= 1.00D-07
 Density matrix has no symmetry -- integrals replicated.
 Density matrix breaks symmetry, PCut= 1.00D-07
 Density matrix has no symmetry -- integrals replicated.
 SCF Done:  E(RHF) =  -4.82444068817     A.U. after   29 cycles
            NFock= 29  Conv=0.13D-08     -V/T= 1.9397
 Range of M.O.s used for correlation:     1    10
 NBasis=    10 NAE=     5 NBE=     5 NFC=     0 NFV=     0
 NROrb=     10 NOA=     5 NOB=     5 NVA=     5 NVB=     5
 Semi-Direct transformation.
 ModeAB=           2 MOrb=             5 LenV=     134107597
 LASXX=         1030 LTotXX=        1030 LenRXX=        1030
 LTotAB=        1450 MaxLAS=        2750 LenRXY=        2750
 NonZer=        2750 LenScr=      655360 LnRSAI=           0
 LnScr1=           0 LExtra=           0 Total=       659140
 MaxDsk=          -1 SrtSym=           F ITran=            3
 JobTyp=0 Pass  1:  I=   1 to   5.
 (rs|ai) integrals will be sorted in core.
 SymMOI:  orbitals are not symmetric.
 Spin components of T(2) and E(2):
     alpha-alpha T2 =       0.5660248614D-02 E2=     -0.7432545017D-02
     alpha-beta  T2 =       0.6376618423D-01 E2=     -0.8731438360D-01
     beta-beta   T2 =       0.5660248614D-02 E2=     -0.7432545017D-02
 ANorm=    0.1036863868D+01
 E2 =    -0.1021794736D+00 EUMP2 =    -0.49266201618078D+01
 Second order stability test of a single determinant RHF wave function:
 Stabil:  MDV=134217728
 ***********************************************************************
 Matrix         Lowest Root    Major Pairs
 ***********************************************************************
 Internal RHF    -0.0175381    5A=6A
 RRHF --> CRHF   -0.0493803    5A=6A
 RRHF --> RUHF   -0.1129012    5A=6B
 Not stable.
 ***********************************************************************

 **********************************************************************

            Population analysis using the SCF density.

 **********************************************************************

 Orbital symmetries:
       Occupied  (BG) (BG) (BG) (BG) (BG)
       Virtual   (BG) (BG) (BG) (BG) (BG)
 Unable to determine electronic state:  partially filled degenerate orbitals.
 Alpha  occ. eigenvalues --   -0.86263  -0.73783  -0.53530  -0.42375  -0.27450
 Alpha virt. eigenvalues --   -0.04797   0.19624   0.29718   0.53749   0.73772
          Condensed to atoms (all electrons):
               1          2          3          4          5          6
     1  H    1.180905   0.172840   0.278437  -0.321774  -0.003738  -0.149715
     2  H    0.172840   0.442760  -0.035197   0.201660  -0.035671  -0.011863
     3  H    0.278437  -0.035197   0.700316  -0.253913   0.353799  -0.153107
     4  H   -0.321774   0.201660  -0.253913   1.317602  -0.113482   0.428586
     5  H   -0.003738  -0.035671   0.353799  -0.113482   0.920146   0.011402
     6  H   -0.149715  -0.011863  -0.153107   0.428586   0.011402   0.899911
     7  H   -0.003598  -0.000716   0.015051   0.002032   0.103832  -0.050548
     8  H    0.018807   0.002141  -0.038676  -0.079470  -0.108360   0.039636
     9  H   -0.002364   0.000293  -0.005074   0.008931  -0.014284  -0.003614
    10  H    0.003670   0.001335  -0.010655  -0.009483  -0.070336  -0.033345
               7          8          9         10
     1  H   -0.003598   0.018807  -0.002364   0.003670
     2  H   -0.000716   0.002141   0.000293   0.001335
     3  H    0.015051  -0.038676  -0.005074  -0.010655
     4  H    0.002032  -0.079470   0.008931  -0.009483
     5  H    0.103832  -0.108360  -0.014284  -0.070336
     6  H   -0.050548   0.039636  -0.003614  -0.033345
     7  H    0.648319  -0.251005   0.407536  -0.018997
     8  H   -0.251005   1.458435  -0.248508   0.444285
     9  H    0.407536  -0.248508   1.122618  -0.133018
    10  H   -0.018997   0.444285  -0.133018   0.641464
 Mulliken charges:
               1
     1  H   -0.173470
     2  H    0.262419
     3  H    0.149019
     4  H   -0.180690
     5  H   -0.043309
     6  H    0.022656
     7  H    0.148094
     8  H   -0.237284
     9  H   -0.132517
    10  H    0.185081
 Sum of Mulliken charges =  -0.00000
 Mulliken charges with hydrogens summed into heavy atoms:
               1
 Electronic spatial extent (au):  <R**2>=            128.4334
 Charge=             -0.0000 electrons
 Dipole moment (field-independent basis, Debye):
    X=              0.6519    Y=             -0.5151    Z=              0.0000  Tot=              0.8309
 Quadrupole moment (field-independent basis, Debye-Ang):
   XX=            -11.5575   YY=            -15.4380   ZZ=            -12.9520
   XY=             -2.6127   XZ=              0.0000   YZ=             -0.0000
 Traceless Quadrupole moment (field-independent basis, Debye-Ang):
   XX=              1.7584   YY=             -2.1222   ZZ=              0.3638
   XY=             -2.6127   XZ=              0.0000   YZ=             -0.0000
 Octapole moment (field-independent basis, Debye-Ang**2):
  XXX=             -1.7889  YYY=             -5.5638  ZZZ=             -0.0000  XYY=              7.9298
  XXY=             -9.2960  XXZ=             -0.0000  XZZ=              0.0625  YZZ=             -0.1995
  YYZ=             -0.0000  XYZ=              0.0000
 Hexadecapole moment (field-independent basis, Debye-Ang**3):
 XXXX=           -172.5026 YYYY=            -72.4522 ZZZZ=            -15.6507 XXXY=             16.1464
 XXXZ=              0.0000 YYYX=             30.4697 YYYZ=             -0.0000 ZZZX=              0.0000
 ZZZY=             -0.0000 XXYY=            -40.3125 XXZZ=            -33.8041 YYZZ=            -14.2185
 XXYZ=             -0.0000 YYXZ=              0.0000 ZZXY=              9.7848
 N-N= 1.350978411295D+01 E-N=-3.613429669369D+01  KE= 5.133872588614D+00
 Symmetry AG   KE= 2.751528676566D+00
 Symmetry BG   KE= 0.000000000000D+00
 Symmetry AU   KE= 0.000000000000D+00
 Symmetry BU   KE= 2.382343912048D+00

 Test job not archived.
 1\1\GINC-SULU\Stability\RHF\Gen\H10\UNKNOWN\13-Feb-2017\0\\#rhf/gen sc
 f(tight,novaracc,noincfock,fulldiag) stable(crhf) guess=mix geom=nocro
 wd test\\hf stability analysis of h10 triangular lattice, y= 0.6358183
 9018712483\\0,1\H\H,1,1.1085155081\H,1,1.1085155081,2,110.\H,2,1.10851
 55081,1,70.,3,0.,0\H,3,1.1085155081,1,180.,2,0.,0\H,4,1.1085155081,2,1
 80.,1,0.,0\H,5,1.1085155081,3,180.,2,0.,0\H,6,1.1085155081,4,180.,1,0.
 ,0\H,7,1.1085155081,5,180.,2,0.,0\H,8,1.1085155081,6,180.,1,0.,0\\Vers
 ion=ES64L-G09RevE.01\HF=-4.8244407\MP2=-4.9266202\RMSD=1.252e-09\Dipol
 e=-0.2564762,0.,0.2026614\Quadrupole=1.3073238,0.270475,-1.5777988,0.,
 -1.9425147,0.\PG=C02H [SGH(H10)]\\@


 BLACK HOLES SUCK.
 Job cpu time:       0 days  0 hours  0 minutes  1.0 seconds.
 File lengths (MBytes):  RWF=     84 Int=      0 D2E=      0 Chk=      2 Scr=      2
 Normal termination of Gaussian 09 at Mon Feb 13 14:08:50 2017.
