 Entering Gaussian System, Link 0=gdv
 AtFile(1): H.gbs
            H     0
            S   10   1.00
               1000.000000000000            0.000068713567
                316.227766000000            0.000169141320
                100.000000000000            0.000823394812
                 31.622776600000            0.003425569236
                 10.000000000000            0.013951996000
                  3.162277660000            0.056909313560
                  1.000000000000            0.198286399900
                  0.316227766000            0.496922426700
                  0.100000000000            0.369846276400
                  0.031622776600            0.003752720039
            ****
 Initial command:
 /users/lcj1/GHF_hess/exe-dir/l1.exe "/users/lcj1/GHF_hess/h10_2rows/mixrmY/Gau-28843.inp" -scrdir="/users/lcj1/GHF_hess/h10_2rows/mixrmY/"
 Entering Link 1 = /users/lcj1/GHF_hess/exe-dir/l1.exe PID=     28844.
  
 Copyright (c) 1988,1990,1992,1993,1995,1998,2003,2009,2012,
            Gaussian, Inc.  All Rights Reserved.
  
 This is the private, development version of
 the Gaussian(R) DV system of programs. It is based on
 the Gaussian(R) 09 system (copyright 2009, Gaussian, Inc.),
 the Gaussian(R) 03 system (copyright 2003, Gaussian, Inc.),
 the Gaussian(R) 98 system (copyright 1998, Gaussian, Inc.),
 the Gaussian(R) 94 system (copyright 1995, Gaussian, Inc.),
 the Gaussian 92(TM) system (copyright 1992, Gaussian, Inc.),
 the Gaussian 90(TM) system (copyright 1990, Gaussian, Inc.),
 the Gaussian 88(TM) system (copyright 1988, Gaussian, Inc.),
 the Gaussian 86(TM) system (copyright 1986, Carnegie Mellon
 University), and the Gaussian 82(TM) system (copyright 1983,
 Carnegie Mellon University). Gaussian is a federally registered
 trademark of Gaussian, Inc.
  
 This software contains proprietary and confidential information,
 including trade secrets, belonging to Gaussian, Inc.
  
 This software is provided under written license and may be
 used, copied, transmitted, or stored only in accord with that
 written license.
  
 The following legend is applicable only to US Government
 contracts under FAR:
  
                    RESTRICTED RIGHTS LEGEND
  
 Use, reproduction and disclosure by the US Government is
 subject to restrictions as set forth in subparagraphs (a)
 and (c) of the Commercial Computer Software - Restricted
 Rights clause in FAR 52.227-19.
  
 Gaussian, Inc.
 340 Quinnipiac St., Bldg. 40, Wallingford CT 06492
  
  
 ---------------------------------------------------------------
 Warning -- This program may not be used in any manner that
 competes with the business of Gaussian, Inc. or will provide
 assistance to any competitor of Gaussian, Inc.  The licensee
 of this program is prohibited from giving any competitor of
 Gaussian, Inc. access to this program.  By using this program,
 the user acknowledges that Gaussian, Inc. is engaged in the
 business of creating and licensing software in the field of
 computational chemistry and represents and warrants to the
 licensee that it is not a competitor of Gaussian, Inc. and that
 it will not use this program in any manner prohibited above.
 ---------------------------------------------------------------
  

 Cite this work as:
 Gaussian Development Version, Revision H.21,
 M. J. Frisch, G. W. Trucks, H. B. Schlegel, G. E. Scuseria, 
 M. A. Robb, J. R. Cheeseman, G. Scalmani, V. Barone, B. Mennucci, 
 G. A. Petersson, H. Nakatsuji, M. Caricato, X. Li, H. P. Hratchian, 
 A. F. Izmaylov, J. Bloino, G. Zheng, J. L. Sonnenberg, W. Liang, 
 M. Hada, M. Ehara, K. Toyota, R. Fukuda, J. Hasegawa, M. Ishida, 
 T. Nakajima, Y. Honda, O. Kitao, H. Nakai, T. Vreven, 
 J. A. Montgomery, Jr., J. E. Peralta, F. Ogliaro, M. Bearpark, 
 J. J. Heyd, E. Brothers, K. N. Kudin, V. N. Staroverov, T. Keith, 
 R. Kobayashi, J. Normand, K. Raghavachari, A. Rendell, J. C. Burant, 
 S. S. Iyengar, J. Tomasi, M. Cossi, N. Rega, J. M. Millam, M. Klene, 
 J. E. Knox, J. B. Cross, V. Bakken, C. Adamo, J. Jaramillo, 
 R. Gomperts, R. E. Stratmann, O. Yazyev, A. J. Austin, R. Cammi, 
 C. Pomelli, J. W. Ochterski, R. L. Martin, K. Morokuma, 
 V. G. Zakrzewski, G. A. Voth, P. Salvador, J. J. Dannenberg, 
 S. Dapprich, P. V. Parandekar, N. J. Mayhall, A. D. Daniels, 
 O. Farkas, J. B. Foresman, J. V. Ortiz, J. Cioslowski, 
 and D. J. Fox, Gaussian, Inc., Wallingford CT, 2010.
 
 ******************************************
 Gaussian DV:  EM64L-GDVRevH.21 13-May-2012
                28-Feb-2017 
 ******************************************
 %chk=h10.chk
 ----------------------------------------------------------------------
 #ghf/gen scf(tight,novaracc,noincfock,fulldiag) stable guess=(read,mix
 ) geom=nocrowd use=l802 use=l902 test
 ----------------------------------------------------------------------
 ********************************************
   THE COMPLEX ERI TRANSFORMATION WITH L802  
        COMPLEX STABILITY WITH L902          
 ********************************************
 1/38=1/1;
 2/12=1,17=6,18=5,40=1/2;
 3/5=7,16=1,25=20,28=1,116=7/1,2,3,20;
 4/5=1,13=-1/1;
 5/5=100001,16=1,32=2,38=6/2;
 8/6=1,10=90,11=11/1,2;
 9/8=4,13=1/1,2;
 6/7=2,8=2,9=2,10=2,28=1/1;
 99/5=1,9=1/99;
 ----------------------------------------------------------------------
 hf stability analysis of h10 triangular lattice, y= 0.7241740692380285
 2 alpha= 42.250000000000000
 ----------------------------------------------------------------------
 Symbolic Z-Matrix:
 Charge =  0 Multiplicity = 1
 H
 H                    1     1.07705 
 H                    1     1.07705  2     95.5 
 H                    2     1.07705  1     84.5     3     0.       0
 H                    3     1.07705  1     180.     2     0.       0
 H                    4     1.07705  2     180.     1     0.       0
 H                    5     1.07705  3     180.     2     0.       0
 H                    6     1.07705  4     180.     1     0.       0
 H                    7     1.07705  5     180.     2     0.       0
 H                    8     1.07705  6     180.     1     0.       0
 
                          Input orientation:                          
 ---------------------------------------------------------------------
 Center     Atomic      Atomic             Coordinates (Angstroms)
 Number     Number       Type             X           Y           Z
 ---------------------------------------------------------------------
      1          1           0        0.000000    0.000000    0.000000
      2          1           0        0.000000    0.000000    1.077052
      3          1           0        1.072094    0.000000   -0.103231
      4          1           0        1.072094    0.000000    0.973821
      5          1           0        2.144187    0.000000   -0.206462
      6          1           0        2.144187    0.000000    0.870590
      7          1           0        3.216281    0.000000   -0.309693
      8          1           0        3.216281    0.000000    0.767359
      9          1           0        4.288374    0.000000   -0.412923
     10          1           0        4.288374    0.000000    0.664129
 ---------------------------------------------------------------------
                    Distance matrix (angstroms):
                    1          2          3          4          5
     1  H    0.000000
     2  H    1.077052   0.000000
     3  H    1.077052   1.594507   0.000000
     4  H    1.448348   1.077052   1.077052   0.000000
     5  H    2.154104   2.498989   1.077052   1.594507   0.000000
     6  H    2.314188   2.154104   1.448348   1.077052   1.077052
     7  H    3.231156   3.502502   2.154104   2.498989   1.077052
     8  H    3.306554   3.231156   2.314188   2.154104   1.448348
     9  H    4.308208   4.539844   3.231156   3.502502   2.154104
    10  H    4.339495   4.308208   3.306554   3.231156   2.314188
                    6          7          8          9         10
     6  H    0.000000
     7  H    1.594507   0.000000
     8  H    1.077052   1.077052   0.000000
     9  H    2.498989   1.077052   1.594507   0.000000
    10  H    2.154104   1.448348   1.077052   1.077052   0.000000
 Stoichiometry    H10
 Framework group  C2H[SGH(H10)]
 Deg. of freedom     9
 Full point group                 C2H     NOp   4
 Largest Abelian subgroup         C2H     NOp   4
 Largest concise Abelian subgroup C2      NOp   2
                         Standard orientation:                         
 ---------------------------------------------------------------------
 Center     Atomic      Atomic             Coordinates (Angstroms)
 Number     Number       Type             X           Y           Z
 ---------------------------------------------------------------------
      1          1           0        2.144187    0.332064    0.000000
      2          1           0        2.144187   -0.744988    0.000000
      3          1           0        1.072094    0.435295    0.000000
      4          1           0        1.072094   -0.641757    0.000000
      5          1           0        0.000000    0.538526    0.000000
      6          1           0        0.000000   -0.538526    0.000000
      7          1           0       -1.072094    0.641757    0.000000
      8          1           0       -1.072094   -0.435295    0.000000
      9          1           0       -2.144187    0.744988    0.000000
     10          1           0       -2.144187   -0.332064    0.000000
 ---------------------------------------------------------------------
 Rotational constants (GHZ):    174.7412437     21.5853926     19.2121580
 General basis read from cards:  (5D, 7F)
 There are     5 symmetry adapted cartesian basis functions of AG  symmetry.
 There are     0 symmetry adapted cartesian basis functions of BG  symmetry.
 There are     0 symmetry adapted cartesian basis functions of AU  symmetry.
 There are     5 symmetry adapted cartesian basis functions of BU  symmetry.
 There are     5 symmetry adapted basis functions of AG  symmetry.
 There are     0 symmetry adapted basis functions of BG  symmetry.
 There are     0 symmetry adapted basis functions of AU  symmetry.
 There are     5 symmetry adapted basis functions of BU  symmetry.
    10 basis functions,   100 primitive gaussians,    10 cartesian basis functions
     5 alpha electrons        5 beta electrons
       nuclear repulsion energy        13.7328629807 Hartrees.
 NAtoms=   10 NActive=   10 NUniq=    5 SFac= 4.00D+00 NAtFMM=   60 NAOKFM=F Big=F
 Integral buffers will be    131072 words long.
 Regular integral format.
 Two-electron integral symmetry is turned off.
 One-electron integrals computed using PRISM.
 NBasis=    10 RedAO= T EigKep=  1.24D-01  NBF=     5     0     0     5
 NBsUse=    10 1.00D-06 EigRej= -1.00D+00 NBFU=     5     0     0     5
 IOp(28)                       1
                        1                       0
                        2                       1
                        3                       1
                        4                      20
                        5                       0
                        6                       0
                        7                      10
                        8                       1
                        9                       4
                       10                       0
                       11              1073741824
                       12                      20
                       13                       2
                       14                  131070
                       15                       1
                       16                       1
                       17                  131073
                       18                       0
                       19                       0
                       20                       0
                       21                       2
                       22                  131070
                       23                       0
                       24                       0
                       25                       0
                       26                       0
                       27                   65535
                       28                       2
                       29                  131072
                       30                       0
 IHMeth                       1
 ib3: ISMode =                        0                       4
 Enter DskPsm, NBasis=  10 NBas6D=  10 NShell=  10 IDoSP=4.
 Out2e will use a cutoff of  1.00D-10
 FoFCou: FMM=F IPFlag=           0 FMFlag=           0 FMFlg1=           0
         NFxFlg=           0 DoJE=F BraDBF=F KetDBF=F FulRan=T
         wScrn=  0.000000 ICntrl=     600 IOpCl=  9 I1Cent=           0 NGrid=           0
         NMat0=    0 NMatS0=      0 NMatT0=    0 NMatD0=    0 NMtDS0=    0 NMtDT0=    0
 Symmetry not used in FoFCou.
 Entering PrmDigJobTyp =                      20
 LenSav and NKeep                       0                       0
 Entered Stor2E with KNTT1,2                       2                  131070
 Leave Stor2X
 Entering PrmDigJobTyp =                      20
 LenSav and NKeep                       0                       0
 Entered Stor2E with KNTT1,2                       2                  131056
 Leave Stor2X
 Entering PrmDigJobTyp =                      20
 LenSav and NKeep                       0                       0
 Entered Stor2E with KNTT1,2                       2                  131042
 Leave Stor2X
 Entering PrmDigJobTyp =                      20
 LenSav and NKeep                       0                       0
 Entered Stor2E with KNTT1,2                       2                  131028
 Leave Stor2X
 Entering PrmDigJobTyp =                      20
 LenSav and NKeep                       0                       0
 Entered Stor2E with KNTT1,2                       2                  131014
 Leave Stor2X
 Entering PrmDigJobTyp =                      20
 LenSav and NKeep                       0                       0
 Entered Stor2E with KNTT1,2                       2                  131000
 Leave Stor2X
 Entering PrmDigJobTyp =                      20
 LenSav and NKeep                       0                       0
 Entered Stor2E with KNTT1,2                       2                  130986
 Leave Stor2X
 Entering PrmDigJobTyp =                      20
 LenSav and NKeep                       0                       0
 Entered Stor2E with KNTT1,2                       2                  130972
 Leave Stor2X
 Entering PrmDigJobTyp =                      20
 LenSav and NKeep                       0                       0
 Entered Stor2E with KNTT1,2                       2                  130960
 Leave Stor2X
 Entering PrmDigJobTyp =                      20
 LenSav and NKeep                       0                       0
 Entered Stor2E with KNTT1,2                       2                  130946
 Leave Stor2X
 Entering PrmDigJobTyp =                      20
 LenSav and NKeep                       0                       0
 Entered Stor2E with KNTT1,2                       2                  130932
 Leave Stor2X
 Entering PrmDigJobTyp =                      20
 LenSav and NKeep                       0                       0
 Entered Stor2E with KNTT1,2                       2                  130918
 Leave Stor2X
 Entering PrmDigJobTyp =                      20
 LenSav and NKeep                       0                       0
 Entered Stor2E with KNTT1,2                       2                  130904
 Leave Stor2X
 Entering PrmDigJobTyp =                      20
 LenSav and NKeep                       0                       0
 Entered Stor2E with KNTT1,2                       2                  130890
 Leave Stor2X
 Entering PrmDigJobTyp =                      20
 LenSav and NKeep                       0                       0
 Entered Stor2E with KNTT1,2                       2                  130876
 Leave Stor2X
 Entering PrmDigJobTyp =                      20
 LenSav and NKeep                       0                       0
 Entered Stor2E with KNTT1,2                       2                  130862
 Leave Stor2X
 Entering PrmDigJobTyp =                      20
 LenSav and NKeep                       0                       0
 Entered Stor2E with KNTT1,2                       2                  130848
 Leave Stor2X
 Entering PrmDigJobTyp =                      20
 LenSav and NKeep                       0                       0
 Entered Stor2E with KNTT1,2                       2                  130834
 Leave Stor2X
 Entering PrmDigJobTyp =                      20
 LenSav and NKeep                       0                       0
 Entered Stor2E with KNTT1,2                       2                  130820
 Leave Stor2X
 Entering PrmDigJobTyp =                      20
 LenSav and NKeep                       0                       0
 Entered Stor2E with KNTT1,2                       2                  130806
 Leave Stor2X
 Entering PrmDigJobTyp =                      20
 LenSav and NKeep                       0                       0
 Entered Stor2E with KNTT1,2                       2                  130792
 Leave Stor2X
 Entering PrmDigJobTyp =                      20
 LenSav and NKeep                       0                       0
 Entered Stor2E with KNTT1,2                       2                  130778
 Leave Stor2X
 Entering PrmDigJobTyp =                      20
 LenSav and NKeep                       0                       0
 Entered Stor2E with KNTT1,2                       2                  130764
 Leave Stor2X
 Entering PrmDigJobTyp =                      20
 LenSav and NKeep                       0                       0
 Entered Stor2E with KNTT1,2                       2                  130750
 Leave Stor2X
 Entering PrmDigJobTyp =                      20
 LenSav and NKeep                       0                       0
 Entered Stor2E with KNTT1,2                       2                  130736
 Leave Stor2X
 Entering PrmDigJobTyp =                      20
 LenSav and NKeep                       0                       0
 Entered Stor2E with KNTT1,2                       2                  130722
 Leave Stor2X
 Entering PrmDigJobTyp =                      20
 LenSav and NKeep                       0                       0
 Entered Stor2E with KNTT1,2                       2                  130708
 Leave Stor2X
 Entering PrmDigJobTyp =                      20
 LenSav and NKeep                       0                       0
 Entered Stor2E with KNTT1,2                       2                  130700
 Leave Stor2X
 Entering PrmDigJobTyp =                      20
 LenSav and NKeep                       0                       0
 Entered Stor2E with KNTT1,2                       6                  130684
 Leave Stor2X
 Entering PrmDigJobTyp =                      20
 LenSav and NKeep                       0                       0
 Entered Stor2E with KNTT1,2                      16                  130674
 Leave Stor2X
 Entering PrmDigJobTyp =                      20
 LenSav and NKeep                       0                       0
 Entered Stor2E with KNTT1,2                      28                  130666
 Leave Stor2X
 Entering PrmDigJobTyp =                      20
 LenSav and NKeep                       0                       0
 Entered Stor2E with KNTT1,2                      42                  130660
 Leave Stor2X
 Entering PrmDigJobTyp =                      20
 LenSav and NKeep                       0                       0
 Entered Stor2E with KNTT1,2                      56                  130654
 Leave Stor2X
 Entering PrmDigJobTyp =                      20
 LenSav and NKeep                       0                       0
 Entered Stor2E with KNTT1,2                      70                  130648
 Leave Stor2X
 Entering PrmDigJobTyp =                      20
 LenSav and NKeep                       0                       0
 Entered Stor2E with KNTT1,2                      84                  130642
 Leave Stor2X
 Entering PrmDigJobTyp =                      20
 LenSav and NKeep                       0                       0
 Entered Stor2E with KNTT1,2                      98                  130636
 Leave Stor2X
 Entering PrmDigJobTyp =                      20
 LenSav and NKeep                       0                       0
 Entered Stor2E with KNTT1,2                     114                  130632
 Leave Stor2X
 Entering PrmDigJobTyp =                      20
 LenSav and NKeep                       0                       0
 Entered Stor2E with KNTT1,2                     114                  130630
 Leave Stor2X
 Entering PrmDigJobTyp =                      20
 LenSav and NKeep                       0                       0
 Entered Stor2E with KNTT1,2                     114                  130614
 Leave Stor2X
 Entering PrmDigJobTyp =                      20
 LenSav and NKeep                       0                       0
 Entered Stor2E with KNTT1,2                     114                  130598
 Leave Stor2X
 Entering PrmDigJobTyp =                      20
 LenSav and NKeep                       0                       0
 Entered Stor2E with KNTT1,2                     114                  130582
 Leave Stor2X
 Entering PrmDigJobTyp =                      20
 LenSav and NKeep                       0                       0
 Entered Stor2E with KNTT1,2                     114                  130566
 Leave Stor2X
 Entering PrmDigJobTyp =                      20
 LenSav and NKeep                       0                       0
 Entered Stor2E with KNTT1,2                     114                  130550
 Leave Stor2X
 Entering PrmDigJobTyp =                      20
 LenSav and NKeep                       0                       0
 Entered Stor2E with KNTT1,2                     126                  130540
 Leave Stor2X
 Entering PrmDigJobTyp =                      20
 LenSav and NKeep                       0                       0
 Entered Stor2E with KNTT1,2                     136                  130528
 Leave Stor2X
 Entering PrmDigJobTyp =                      20
 LenSav and NKeep                       0                       0
 Entered Stor2E with KNTT1,2                     154                  130524
 Leave Stor2X
 Entering PrmDigJobTyp =                      20
 LenSav and NKeep                       0                       0
 Entered Stor2E with KNTT1,2                     168                  130516
 Leave Stor2X
 Entering PrmDigJobTyp =                      20
 LenSav and NKeep                       0                       0
 Entered Stor2E with KNTT1,2                     174                  130506
 Leave Stor2X
 Entering PrmDigJobTyp =                      20
 LenSav and NKeep                       0                       0
 Entered Stor2E with KNTT1,2                     186                  130498
 Leave Stor2X
 Entering PrmDigJobTyp =                      20
 LenSav and NKeep                       0                       0
 Entered Stor2E with KNTT1,2                     186                  130482
 Leave Stor2X
 Entering PrmDigJobTyp =                      20
 LenSav and NKeep                       0                       0
 Entered Stor2E with KNTT1,2                     186                  130466
 Leave Stor2X
 Entering PrmDigJobTyp =                      20
 LenSav and NKeep                       0                       0
 Entered Stor2E with KNTT1,2                     186                  130450
 Leave Stor2X
 Entering PrmDigJobTyp =                      20
 LenSav and NKeep                       0                       0
 Entered Stor2E with KNTT1,2                     186                  130434
 Leave Stor2X
 Entering PrmDigJobTyp =                      20
 LenSav and NKeep                       0                       0
 Entered Stor2E with KNTT1,2                     186                  130418
 Leave Stor2X
 Entering PrmDigJobTyp =                      20
 LenSav and NKeep                       0                       0
 Entered Stor2E with KNTT1,2                     198                  130408
 Leave Stor2X
 Entering PrmDigJobTyp =                      20
 LenSav and NKeep                       0                       0
 Entered Stor2E with KNTT1,2                     208                  130396
 Leave Stor2X
 Entering PrmDigJobTyp =                      20
 LenSav and NKeep                       0                       0
 Entered Stor2E with KNTT1,2                     226                  130392
 Leave Stor2X
 Entering PrmDigJobTyp =                      20
 LenSav and NKeep                       0                       0
 Entered Stor2E with KNTT1,2                     240                  130384
 Leave Stor2X
 Entering PrmDigJobTyp =                      20
 LenSav and NKeep                       0                       0
 Entered Stor2E with KNTT1,2                     246                  130374
 Leave Stor2X
 Entering PrmDigJobTyp =                      20
 LenSav and NKeep                       0                       0
 Entered Stor2E with KNTT1,2                     260                  130364
 Leave Stor2X
 Entering PrmDigJobTyp =                      20
 LenSav and NKeep                       0                       0
 Entered Stor2E with KNTT1,2                     266                  130362
 Leave Stor2X
 Entering PrmDigJobTyp =                      20
 LenSav and NKeep                       0                       0
 Entered Stor2E with KNTT1,2                     278                  130354
 Leave Stor2X
 Entering PrmDigJobTyp =                      20
 LenSav and NKeep                       0                       0
 Entered Stor2E with KNTT1,2                     278                  130336
 Leave Stor2X
 Entering PrmDigJobTyp =                      20
 LenSav and NKeep                       0                       0
 Entered Stor2E with KNTT1,2                     278                  130318
 Leave Stor2X
 Entering PrmDigJobTyp =                      20
 LenSav and NKeep                       0                       0
 Entered Stor2E with KNTT1,2                     278                  130300
 Leave Stor2X
 Entering PrmDigJobTyp =                      20
 LenSav and NKeep                       0                       0
 Entered Stor2E with KNTT1,2                     278                  130282
 Leave Stor2X
 Entering PrmDigJobTyp =                      20
 LenSav and NKeep                       0                       0
 Entered Stor2E with KNTT1,2                     278                  130264
 Leave Stor2X
 Entering PrmDigJobTyp =                      20
 LenSav and NKeep                       0                       0
 Entered Stor2E with KNTT1,2                     278                  130246
 Leave Stor2X
 Entering PrmDigJobTyp =                      20
 LenSav and NKeep                       0                       0
 Entered Stor2E with KNTT1,2                     278                  130234
 Leave Stor2X
 Entering PrmDigJobTyp =                      20
 LenSav and NKeep                       0                       0
 Entered Stor2E with KNTT1,2                     290                  130224
 Leave Stor2X
 Entering PrmDigJobTyp =                      20
 LenSav and NKeep                       0                       0
 Entered Stor2E with KNTT1,2                     302                  130214
 Leave Stor2X
 Entering PrmDigJobTyp =                      20
 LenSav and NKeep                       0                       0
 Entered Stor2E with KNTT1,2                     318                  130208
 Leave Stor2X
 Entering PrmDigJobTyp =                      20
 LenSav and NKeep                       0                       0
 Entered Stor2E with KNTT1,2                     330                  130198
 Leave Stor2X
 Entering PrmDigJobTyp =                      20
 LenSav and NKeep                       0                       0
 Entered Stor2E with KNTT1,2                     344                  130190
 Leave Stor2X
 Entering PrmDigJobTyp =                      20
 LenSav and NKeep                       0                       0
 Entered Stor2E with KNTT1,2                     356                  130180
 Leave Stor2X
 Entering PrmDigJobTyp =                      20
 LenSav and NKeep                       0                       0
 Entered Stor2E with KNTT1,2                     370                  130172
 Leave Stor2X
 Entering PrmDigJobTyp =                      20
 LenSav and NKeep                       0                       0
 Entered Stor2E with KNTT1,2                     370                  130170
 Leave Stor2X
 Entering PrmDigJobTyp =                      20
 LenSav and NKeep                       0                       0
 Entered Stor2E with KNTT1,2                     386                  130160
 Leave Stor2X
 Entering PrmDigJobTyp =                      20
 LenSav and NKeep                       0                       0
 Entered Stor2E with KNTT1,2                     398                  130150
 Leave Stor2X
 Entering PrmDigJobTyp =                      20
 LenSav and NKeep                       0                       0
 Entered Stor2E with KNTT1,2                     412                  130138
 Leave Stor2X
 Entering PrmDigJobTyp =                      20
 LenSav and NKeep                       0                       0
 Entered Stor2E with KNTT1,2                     426                  130130
 Leave Stor2X
 Entering PrmDigJobTyp =                      20
 LenSav and NKeep                       0                       0
 Entered Stor2E with KNTT1,2                     444                  130120
 Leave Stor2X
 Entering PrmDigJobTyp =                      20
 LenSav and NKeep                       0                       0
 Entered Stor2E with KNTT1,2                     452                  130114
 Leave Stor2X
 Entering PrmDigJobTyp =                      20
 LenSav and NKeep                       0                       0
 Entered Stor2E with KNTT1,2                     452                  130094
 Leave Stor2X
 Entering PrmDigJobTyp =                      20
 LenSav and NKeep                       0                       0
 Entered Stor2E with KNTT1,2                     452                  130074
 Leave Stor2X
 Entering PrmDigJobTyp =                      20
 LenSav and NKeep                       0                       0
 Entered Stor2E with KNTT1,2                     452                  130054
 Leave Stor2X
 Entering PrmDigJobTyp =                      20
 LenSav and NKeep                       0                       0
 Entered Stor2E with KNTT1,2                     468                  130044
 Leave Stor2X
 Entering PrmDigJobTyp =                      20
 LenSav and NKeep                       0                       0
 Entered Stor2E with KNTT1,2                     482                  130032
 Leave Stor2X
 Entering PrmDigJobTyp =                      20
 LenSav and NKeep                       0                       0
 Entered Stor2E with KNTT1,2                     498                  130022
 Leave Stor2X
 Entering PrmDigJobTyp =                      20
 LenSav and NKeep                       0                       0
 Entered Stor2E with KNTT1,2                     510                  130010
 Leave Stor2X
 Entering PrmDigJobTyp =                      20
 LenSav and NKeep                       0                       0
 Entered Stor2E with KNTT1,2                     526                  130002
 Leave Stor2X
 Entering PrmDigJobTyp =                      20
 LenSav and NKeep                       0                       0
 Entered Stor2E with KNTT1,2                     544                  129990
 Leave Stor2X
 Entering PrmDigJobTyp =                      20
 LenSav and NKeep                       0                       0
 Entered Stor2E with KNTT1,2                     546                  129986
 Leave Stor2X
 Entering PrmDigJobTyp =                      20
 LenSav and NKeep                       0                       0
 Entered Stor2E with KNTT1,2                     552                  129980
 Leave Stor2X
 Entering PrmDigJobTyp =                      20
 LenSav and NKeep                       0                       0
 Entered Stor2E with KNTT1,2                     552                  129962
 Leave Stor2X
 Entering PrmDigJobTyp =                      20
 LenSav and NKeep                       0                       0
 Entered Stor2E with KNTT1,2                     552                  129944
 Leave Stor2X
 Entering PrmDigJobTyp =                      20
 LenSav and NKeep                       0                       0
 Entered Stor2E with KNTT1,2                     552                  129926
 Leave Stor2X
 Entering PrmDigJobTyp =                      20
 LenSav and NKeep                       0                       0
 Entered Stor2E with KNTT1,2                     552                  129920
 Leave Stor2X
 Entering PrmDigJobTyp =                      20
 LenSav and NKeep                       0                       0
 Entered Stor2E with KNTT1,2                     566                  129910
 Leave Stor2X
 Entering PrmDigJobTyp =                      20
 LenSav and NKeep                       0                       0
 Entered Stor2E with KNTT1,2                     580                  129900
 Leave Stor2X
 Entering PrmDigJobTyp =                      20
 LenSav and NKeep                       0                       0
 Entered Stor2E with KNTT1,2                     596                  129892
 Leave Stor2X
 Entering PrmDigJobTyp =                      20
 LenSav and NKeep                       0                       0
 Entered Stor2E with KNTT1,2                     598                  129888
 Leave Stor2X
 Entering PrmDigJobTyp =                      20
 LenSav and NKeep                       0                       0
 Entered Stor2E with KNTT1,2                     614                  129880
 Leave Stor2X
 Entering PrmDigJobTyp =                      20
 LenSav and NKeep                       0                       0
 Entered Stor2E with KNTT1,2                     626                  129868
 Leave Stor2X
 Entering PrmDigJobTyp =                      20
 LenSav and NKeep                       0                       0
 Entered Stor2E with KNTT1,2                     642                  129856
 Leave Stor2X
 Entering PrmDigJobTyp =                      20
 LenSav and NKeep                       0                       0
 Entered Stor2E with KNTT1,2                     646                  129852
 Leave Stor2X
 Entering PrmDigJobTyp =                      20
 LenSav and NKeep                       0                       0
 Entered Stor2E with KNTT1,2                     660                  129848
 Leave Stor2X
 Entering PrmDigJobTyp =                      20
 LenSav and NKeep                       0                       0
 Entered Stor2E with KNTT1,2                     666                  129842
 Leave Stor2X
 Entering PrmDigJobTyp =                      20
 LenSav and NKeep                       0                       0
 Entered Stor2E with KNTT1,2                     666                  129820
 Leave Stor2X
 Entering PrmDigJobTyp =                      20
 LenSav and NKeep                       0                       0
 Entered Stor2E with KNTT1,2                     666                  129798
 Leave Stor2X
 Entering PrmDigJobTyp =                      20
 LenSav and NKeep                       0                       0
 Entered Stor2E with KNTT1,2                     666                  129776
 Leave Stor2X
 Entering PrmDigJobTyp =                      20
 LenSav and NKeep                       0                       0
 Entered Stor2E with KNTT1,2                     666                  129754
 Leave Stor2X
 Entering PrmDigJobTyp =                      20
 LenSav and NKeep                       0                       0
 Entered Stor2E with KNTT1,2                     666                  129732
 Leave Stor2X
 Entering PrmDigJobTyp =                      20
 LenSav and NKeep                       0                       0
 Entered Stor2E with KNTT1,2                     666                  129710
 Leave Stor2X
 Entering PrmDigJobTyp =                      20
 LenSav and NKeep                       0                       0
 Entered Stor2E with KNTT1,2                     666                  129688
 Leave Stor2X
 Entering PrmDigJobTyp =                      20
 LenSav and NKeep                       0                       0
 Entered Stor2E with KNTT1,2                     666                  129682
 Leave Stor2X
 Entering PrmDigJobTyp =                      20
 LenSav and NKeep                       0                       0
 Entered Stor2E with KNTT1,2                     682                  129670
 Leave Stor2X
 Entering PrmDigJobTyp =                      20
 LenSav and NKeep                       0                       0
 Entered Stor2E with KNTT1,2                     698                  129658
 Leave Stor2X
 Entering PrmDigJobTyp =                      20
 LenSav and NKeep                       0                       0
 Entered Stor2E with KNTT1,2                     716                  129648
 Leave Stor2X
 Entering PrmDigJobTyp =                      20
 LenSav and NKeep                       0                       0
 Entered Stor2E with KNTT1,2                     734                  129638
 Leave Stor2X
 Entering PrmDigJobTyp =                      20
 LenSav and NKeep                       0                       0
 Entered Stor2E with KNTT1,2                     752                  129628
 Leave Stor2X
 Entering PrmDigJobTyp =                      20
 LenSav and NKeep                       0                       0
 Entered Stor2E with KNTT1,2                     768                  129616
 Leave Stor2X
 Entering PrmDigJobTyp =                      20
 LenSav and NKeep                       0                       0
 Entered Stor2E with KNTT1,2                     786                  129606
 Leave Stor2X
 Entering PrmDigJobTyp =                      20
 LenSav and NKeep                       0                       0
 Entered Stor2E with KNTT1,2                     794                  129602
 Leave Stor2X
 Entering PrmDigJobTyp =                      20
 LenSav and NKeep                       0                       0
 Entered Stor2E with KNTT1,2                     814                  129590
 Leave Stor2X
 Entering PrmDigJobTyp =                      20
 LenSav and NKeep                       0                       0
 Entered Stor2E with KNTT1,2                     834                  129578
 Leave Stor2X
 Entering PrmDigJobTyp =                      20
 LenSav and NKeep                       0                       0
 Entered Stor2E with KNTT1,2                     854                  129566
 Leave Stor2X
 Entering PrmDigJobTyp =                      20
 LenSav and NKeep                       0                       0
 Entered Stor2E with KNTT1,2                     874                  129554
 Leave Stor2X
 Entering PrmDigJobTyp =                      20
 LenSav and NKeep                       0                       0
 Entered Stor2E with KNTT1,2                     896                  129542
 Leave Stor2X
 Entering PrmDigJobTyp =                      20
 LenSav and NKeep                       0                       0
 Entered Stor2E with KNTT1,2                     920                  129532
 Leave Stor2X
 Entering PrmDigJobTyp =                      20
 LenSav and NKeep                       0                       0
 Entered Stor2E with KNTT1,2                     938                  129522
 Leave Stor2X
 Entering PrmDigJobTyp =                      20
 LenSav and NKeep                       0                       0
 Entered Stor2E with KNTT1,2                     962                  129508
 Leave Stor2X
 Entering PrmDigJobTyp =                      20
 LenSav and NKeep                       0                       0
 Entered Stor2E with KNTT1,2                     970                  129506
 Leave Stor2X
 Entering PrmDigJobTyp =                      20
 LenSav and NKeep                       0                       0
 Entered Stor2E with KNTT1,2                     996                  129496
 Leave Stor2X
 Entering PrmDigJobTyp =                      20
 LenSav and NKeep                       0                       0
 Entered Stor2E with KNTT1,2                    1002                  129490
 Leave Stor2X
 Entering PrmDigJobTyp =                      20
 LenSav and NKeep                       0                       0
 Entered Stor2E with KNTT1,2                    1022                  129468
 Leave Stor2X
 Entering PrmDigJobTyp =                      20
 LenSav and NKeep                       0                       0
 Entered Stor2E with KNTT1,2                    1042                  129458
 Leave Stor2X
 Entering PrmDigJobTyp =                      20
 LenSav and NKeep                       0                       0
 Entered Stor2E with KNTT1,2                    1042                  129434
 Leave Stor2X
 Entering PrmDigJobTyp =                      20
 LenSav and NKeep                       0                       0
 Entered Stor2E with KNTT1,2                    1042                  129410
 Leave Stor2X
 Entering PrmDigJobTyp =                      20
 LenSav and NKeep                       0                       0
 Entered Stor2E with KNTT1,2                    1042                  129398
 Leave Stor2X
 Entering PrmDigJobTyp =                      20
 LenSav and NKeep                       0                       0
 Entered Stor2E with KNTT1,2                    1062                  129386
 Leave Stor2X
 Entering PrmDigJobTyp =                      20
 LenSav and NKeep                       0                       0
 Entered Stor2E with KNTT1,2                    1086                  129378
 Leave Stor2X
 Entering PrmDigJobTyp =                      20
 LenSav and NKeep                       0                       0
 Entered Stor2E with KNTT1,2                    1096                  129374
 Leave Stor2X
 Entering PrmDigJobTyp =                      20
 LenSav and NKeep                       0                       0
 Entered Stor2E with KNTT1,2                    1116                  129370
 Leave Stor2X
 Entering PrmDigJobTyp =                      20
 LenSav and NKeep                       0                       0
 Entered Stor2E with KNTT1,2                    1132                  129362
 Leave Stor2X
 Entering PrmDigJobTyp =                      20
 LenSav and NKeep                       0                       0
 Entered Stor2E with KNTT1,2                    1156                  129350
 Leave Stor2X
 Entering PrmDigJobTyp =                      20
 LenSav and NKeep                       0                       0
 Entered Stor2E with KNTT1,2                    1170                  129346
 Leave Stor2X
 Entering PrmDigJobTyp =                      20
 LenSav and NKeep                       0                       0
 Entered Stor2E with KNTT1,2                    1180                  129338
 Leave Stor2X
 Entering PrmDigJobTyp =                      20
 LenSav and NKeep                       0                       0
 Entered Stor2E with KNTT1,2                    1204                  129316
 Leave Stor2X
 Entering PrmDigJobTyp =                      20
 LenSav and NKeep                       0                       0
 Entered Stor2E with KNTT1,2                    1204                  129314
 Leave Stor2X
 Entering PrmDigJobTyp =                      20
 LenSav and NKeep                       0                       0
 Entered Stor2E with KNTT1,2                    1206                  129304
 Leave Stor2X
 Entering PrmDigJobTyp =                      20
 LenSav and NKeep                       0                       0
 Entered Stor2E with KNTT1,2                    1206                  129284
 Leave Stor2X
 Entering PrmDigJobTyp =                      20
 LenSav and NKeep                       0                       0
 Entered Stor2E with KNTT1,2                    1224                  129276
 Leave Stor2X
 Entering PrmDigJobTyp =                      20
 LenSav and NKeep                       0                       0
 Entered Stor2E with KNTT1,2                    1228                  129272
 Leave Stor2X
 Entering PrmDigJobTyp =                      20
 LenSav and NKeep                       0                       0
 Entered Stor2E with KNTT1,2                    1236                  129272
 Leave Stor2X
 Entering PrmDigJobTyp =                      20
 LenSav and NKeep                       0                       0
 Entered Stor2E with KNTT1,2                    1244                  129268
 Leave Stor2X
 Entering PrmDigJobTyp =                      20
 LenSav and NKeep                       0                       0
 Entered Stor2E with KNTT1,2                    1246                  129264
 Leave Stor2X
 Entering PrmDigJobTyp =                      20
 LenSav and NKeep                       0                       0
 Entered Stor2E with KNTT1,2                    1252                  129264
 Leave Stor2X
 Entering PrmDigJobTyp =                      20
 LenSav and NKeep                       0                       0
 Entered Stor2E with KNTT1,2                    1260                  129256
 Leave Stor2X
 Entering PrmDigJobTyp =                      20
 LenSav and NKeep                       0                       0
 Entered Stor2E with KNTT1,2                    1262                  129252
 Leave Stor2X
 In PrSumR
 Called IWRITE
         1540 integrals produced for a total of         1540.
 Initial guess from the checkpoint file:  "h10.chk"
 B after Tr=     0.000000    0.000000    0.000000
         Rot=    0.901739    0.000000    0.000000    0.432281 Ang=  51.22 deg.
 Mixing orbitals, IMix= 1 IMixAn=  0 NRI=2 NE=   10 Coef=  7.07106781D-01  7.07106781D-01
 Also mixing orbitals    10 and    12 Coef=  7.07106781D-01  7.07106781D-01
 Initial guess <Sx>= 0.0000 <Sy>= 0.0000 <Sz>= 0.0000 <S**2>= 0.5000 S= 0.3660
 Two-electron integrals will be kept in memory, NGetB=      152788.
 Requested convergence on RMS density matrix=1.00D-08 within 128 cycles.
 Requested convergence on MAX density matrix=1.00D-06.
 Requested convergence on             energy=1.00D-06.
 No special actions if energy rises.
 Density File Not Found. Continue as usual
 Rare condition: small coef for last iteration:  0.000D+00
 Rare condition: small coef for last iteration:  0.000D+00
 Rare condition: small coef for last iteration:  0.000D+00
 SCF Done:  E(GHF) =  -4.84569047612     A.U. after   31 cycles
            NFock= 31  Conv=0.72D-09     -V/T= 1.9155
 <Sx>= 0.0000 <Sy>= 0.0000 <Sz>= 0.0000 <S**2>= 0.3933 S= 0.3021
 <L.S>= 0.000000000000E+00
 Range of M.O.s used for correlation:     1    10
 NBasis=    10 NAE=    10 NBE=     0 NFC=     0 NFV=     0
 NROrb=     20 NOA=    10 NOB=     0 NVA=    10 NVB=     0
 jaja DoHack is true or false? T
 jaja in hckghf.F, NBasis=                      10
 jaja in hckGHF/FixOG, LC =                      800
 jaja in hckGHF/FixOG, IRwC=                      548
 bfr conversion (real):
                 1             2             3             4             5 
      1a  0.000000D+00  0.356146D-01  0.210050D+00  0.169533D-05  0.378238D+00
      1b  0.100826D+00 -0.152428D-05  0.162196D-05 -0.199937D+00  0.340050D-04
      2a  0.000000D+00  0.304126D-01  0.197448D+00  0.160152D-05  0.388528D+00
      2b  0.831735D-01 -0.125914D-05  0.147351D-05 -0.182697D+00  0.343170D-04
      3a  0.182183D-05  0.120835D+00  0.283373D+00  0.229767D-05 -0.162488D-01
      3b  0.285862D+00 -0.432798D-05  0.176870D-05 -0.219609D+00 -0.649367D-05
      4a  0.172895D-05  0.113942D+00  0.291294D+00  0.235205D-05  0.418785D-01
      4b  0.279901D+00 -0.423006D-05  0.193960D-05 -0.238793D+00 -0.107945D-05
      5a  0.335826D-05  0.221946D+00  0.752819D-01  0.000000D+00 -0.348746D+00
      5b  0.210138D+00 -0.317759D-05  0.000000D+00  0.113996D+00 -0.297341D-04
      6a  0.317759D-05  0.210138D+00  0.113996D+00  0.000000D+00 -0.342297D+00
      6b  0.221946D+00 -0.335826D-05  0.000000D+00  0.752819D-01 -0.302988D-04
      7a  0.423006D-05  0.279901D+00 -0.238793D+00 -0.193960D-05 -0.123428D-01
      7b  0.113942D+00 -0.172895D-05 -0.235205D-05  0.291294D+00  0.364262D-05
      8a  0.432798D-05  0.285862D+00 -0.219609D+00 -0.176870D-05 -0.748413D-01
      8b  0.120835D+00 -0.182183D-05 -0.229767D-05  0.283373D+00 -0.141685D-05
      9a  0.125914D-05  0.831735D-01 -0.182697D+00 -0.147351D-05  0.395168D+00
      9b  0.304126D-01  0.000000D+00 -0.160152D-05  0.197448D+00  0.337628D-04
     10a  0.152428D-05  0.100826D+00 -0.199937D+00 -0.162196D-05  0.391302D+00
     10b  0.356146D-01  0.000000D+00 -0.169533D-05  0.210050D+00  0.328486D-04
                 6             7             8             9            10 
      1a -0.328486D-04 -0.517347D-01  0.000000D+00  0.297203D-05  0.414909D+00
      1b  0.391302D+00 -0.283663D-05  0.254581D+00 -0.447514D+00  0.326190D-05
      2a -0.337628D-04  0.445546D-01  0.000000D+00  0.356808D-05  0.489704D+00
      2b  0.395168D+00  0.237995D-05 -0.212380D+00 -0.518355D+00  0.372980D-05
      3a  0.141685D-05 -0.196465D+00 -0.220524D-05 -0.352747D-05 -0.482362D+00
      3b -0.748414D-01 -0.667457D-05  0.597443D+00  0.553734D+00 -0.398813D-05
      4a -0.364262D-05  0.173109D+00  0.192329D-05 -0.300454D-05 -0.420232D+00
      4b -0.123428D-01  0.643227D-05 -0.575599D+00  0.515618D+00 -0.374947D-05
      5a  0.302988D-04 -0.478601D+00 -0.533170D-05  0.000000D+00 -0.544373D-02
      5b -0.342297D+00 -0.497012D-05  0.443559D+00 -0.154240D+00  0.109349D-05
      6a  0.297341D-04  0.443559D+00  0.497012D-05 -0.109349D-05 -0.154240D+00
      6b -0.348746D+00  0.533170D-05 -0.478601D+00 -0.544372D-02  0.000000D+00
      7a  0.107945D-05 -0.575599D+00 -0.643227D-05  0.374947D-05  0.515618D+00
      7b  0.418785D-01 -0.192329D-05  0.173109D+00 -0.420232D+00  0.300454D-05
      8a  0.649367D-05  0.597443D+00  0.667457D-05  0.398813D-05  0.553734D+00
      8b -0.162488D-01  0.220524D-05 -0.196465D+00 -0.482362D+00  0.352747D-05
      9a -0.343170D-04 -0.212380D+00 -0.237995D-05 -0.372980D-05 -0.518355D+00
      9b  0.388528D+00  0.000000D+00  0.445546D-01  0.489704D+00 -0.356807D-05
     10a -0.340050D-04  0.254581D+00  0.283663D-05 -0.326190D-05 -0.447514D+00
     10b  0.378238D+00  0.000000D+00 -0.517347D-01  0.414909D+00 -0.297203D-05
                11            12            13            14            15 
      1a  0.310812D-05  0.450198D+00 -0.739661D+00 -0.175126D-04 -0.270019D+00
      1b  0.429534D+00 -0.301435D-05 -0.175621D-04  0.741783D+00 -0.409215D-05
      2a -0.278601D-05 -0.395477D+00  0.659290D+00  0.156189D-04 -0.477639D+00
      2b -0.384132D+00  0.264072D-05  0.150924D-04 -0.637643D+00 -0.107324D-04
      3a  0.391637D-05  0.557719D+00 -0.347242D-01  0.000000D+00  0.603602D+00
      3b  0.350473D+00 -0.240689D-05  0.327466D-05 -0.137836D+00  0.116917D-04
      4a -0.376085D-05 -0.544861D+00  0.149006D+00  0.350861D-05  0.871684D+00
      4b -0.375202D+00  0.264000D-05  0.135800D-05 -0.566432D-01  0.186542D-04
      5a  0.138443D-05  0.199881D+00  0.662080D+00  0.156997D-04 -0.850273D+00
      5b -0.290684D+00  0.201844D-05  0.142059D-04 -0.600936D+00 -0.192773D-04
      6a -0.201844D-05 -0.290684D+00 -0.600936D+00 -0.142059D-04 -0.827273D+00
      6b  0.199881D+00 -0.138443D-05 -0.156997D-04  0.662080D+00 -0.198021D-04
      7a -0.264000D-05 -0.375202D+00 -0.566432D-01 -0.135800D-05  0.800883D+00
      7b -0.544861D+00  0.376085D-05 -0.350860D-05  0.149006D+00  0.203117D-04
      8a  0.240690D-05  0.350473D+00 -0.137836D+00 -0.327466D-05  0.501889D+00
      8b  0.557719D+00 -0.391638D-05  0.000000D+00 -0.347242D-01  0.140595D-04
      9a -0.264072D-05 -0.384132D+00 -0.637644D+00 -0.150924D-04 -0.460041D+00
      9b -0.395477D+00  0.278601D-05 -0.156189D-04  0.659290D+00 -0.111063D-04
     10a  0.301435D-05  0.429534D+00  0.741783D+00  0.175621D-04 -0.176381D+00
     10b  0.450198D+00 -0.310812D-05  0.175126D-04 -0.739661D+00 -0.631228D-05
                16            17            18            19            20 
      1a  0.631228D-05 -0.800848D+00 -0.221523D-05  0.550000D+00  0.176183D-03
      1b -0.176381D+00  0.228783D-05 -0.825284D+00  0.148375D-03 -0.463184D+00
      2a  0.111063D-04  0.681953D+00  0.188905D-05 -0.612003D+00 -0.196045D-03
      2b -0.460041D+00 -0.203843D-05  0.735574D+00 -0.167793D-03  0.523802D+00
      3a -0.140595D-04  0.885786D+00  0.245354D-05 -0.105416D+01 -0.337680D-03
      3b  0.501889D+00 -0.267716D-05  0.967058D+00 -0.288460D-03  0.900482D+00
      4a -0.203117D-04 -0.554577D+00 -0.153357D-05  0.110698D+01  0.354607D-03
      4b  0.800883D+00  0.189245D-05 -0.681552D+00  0.309818D-03 -0.967173D+00
      5a  0.198021D-04 -0.654364D-01  0.000000D+00  0.118926D+01  0.380958D-03
      5b -0.827273D+00  0.000000D+00 -0.344727D+00  0.376559D-03 -0.117551D+01
      6a  0.192773D-04 -0.344727D+00  0.000000D+00 -0.117551D+01 -0.376559D-03
      6b -0.850273D+00  0.000000D+00 -0.654364D-01 -0.380958D-03  0.118926D+01
      7a -0.186542D-04 -0.681552D+00 -0.189245D-05 -0.967173D+00 -0.309818D-03
      7b  0.871684D+00  0.153357D-05 -0.554577D+00 -0.354607D-03  0.110698D+01
      8a -0.116917D-04  0.967058D+00  0.267716D-05  0.900482D+00  0.288460D-03
      8b  0.603602D+00 -0.245354D-05  0.885786D+00  0.337680D-03 -0.105416D+01
      9a  0.107324D-04  0.735574D+00  0.203843D-05  0.523802D+00  0.167793D-03
      9b -0.477639D+00 -0.188905D-05  0.681953D+00  0.196045D-03 -0.612003D+00
     10a  0.409215D-05 -0.825284D+00 -0.228783D-05 -0.463184D+00 -0.148375D-03
     10b -0.270019D+00  0.221523D-05 -0.800848D+00 -0.176183D-03  0.550000D+00
 bfr conversion (imaginary):
                 1             2             3             4             5 
      1a  0.000000D+00  0.000000D+00  0.000000D+00  0.000000D+00  0.000000D+00
      1b  0.000000D+00  0.000000D+00  0.000000D+00  0.000000D+00  0.000000D+00
      2a  0.000000D+00  0.000000D+00  0.000000D+00  0.000000D+00  0.000000D+00
      2b  0.000000D+00  0.000000D+00  0.000000D+00  0.000000D+00  0.000000D+00
      3a  0.000000D+00  0.000000D+00  0.000000D+00  0.000000D+00  0.000000D+00
      3b  0.000000D+00  0.000000D+00  0.000000D+00  0.000000D+00  0.000000D+00
      4a  0.000000D+00  0.000000D+00  0.000000D+00  0.000000D+00  0.000000D+00
      4b  0.000000D+00  0.000000D+00  0.000000D+00  0.000000D+00  0.000000D+00
      5a  0.000000D+00  0.000000D+00  0.000000D+00  0.000000D+00  0.000000D+00
      5b  0.000000D+00  0.000000D+00  0.000000D+00  0.000000D+00  0.000000D+00
      6a  0.000000D+00  0.000000D+00  0.000000D+00  0.000000D+00  0.000000D+00
      6b  0.000000D+00  0.000000D+00  0.000000D+00  0.000000D+00  0.000000D+00
      7a  0.000000D+00  0.000000D+00  0.000000D+00  0.000000D+00  0.000000D+00
      7b  0.000000D+00  0.000000D+00  0.000000D+00  0.000000D+00  0.000000D+00
      8a  0.000000D+00  0.000000D+00  0.000000D+00  0.000000D+00  0.000000D+00
      8b  0.000000D+00  0.000000D+00  0.000000D+00  0.000000D+00  0.000000D+00
      9a  0.000000D+00  0.000000D+00  0.000000D+00  0.000000D+00  0.000000D+00
      9b  0.000000D+00  0.000000D+00  0.000000D+00  0.000000D+00  0.000000D+00
     10a  0.000000D+00  0.000000D+00  0.000000D+00  0.000000D+00  0.000000D+00
     10b  0.000000D+00  0.000000D+00  0.000000D+00  0.000000D+00  0.000000D+00
                 6             7             8             9            10 
      1a  0.000000D+00  0.000000D+00  0.000000D+00  0.000000D+00  0.000000D+00
      1b  0.000000D+00  0.000000D+00  0.000000D+00  0.000000D+00  0.000000D+00
      2a  0.000000D+00  0.000000D+00  0.000000D+00  0.000000D+00  0.000000D+00
      2b  0.000000D+00  0.000000D+00  0.000000D+00  0.000000D+00  0.000000D+00
      3a  0.000000D+00  0.000000D+00  0.000000D+00  0.000000D+00  0.000000D+00
      3b  0.000000D+00  0.000000D+00  0.000000D+00  0.000000D+00  0.000000D+00
      4a  0.000000D+00  0.000000D+00  0.000000D+00  0.000000D+00  0.000000D+00
      4b  0.000000D+00  0.000000D+00  0.000000D+00  0.000000D+00  0.000000D+00
      5a  0.000000D+00  0.000000D+00  0.000000D+00  0.000000D+00  0.000000D+00
      5b  0.000000D+00  0.000000D+00  0.000000D+00  0.000000D+00  0.000000D+00
      6a  0.000000D+00  0.000000D+00  0.000000D+00  0.000000D+00  0.000000D+00
      6b  0.000000D+00  0.000000D+00  0.000000D+00  0.000000D+00  0.000000D+00
      7a  0.000000D+00  0.000000D+00  0.000000D+00  0.000000D+00  0.000000D+00
      7b  0.000000D+00  0.000000D+00  0.000000D+00  0.000000D+00  0.000000D+00
      8a  0.000000D+00  0.000000D+00  0.000000D+00  0.000000D+00  0.000000D+00
      8b  0.000000D+00  0.000000D+00  0.000000D+00  0.000000D+00  0.000000D+00
      9a  0.000000D+00  0.000000D+00  0.000000D+00  0.000000D+00  0.000000D+00
      9b  0.000000D+00  0.000000D+00  0.000000D+00  0.000000D+00  0.000000D+00
     10a  0.000000D+00  0.000000D+00  0.000000D+00  0.000000D+00  0.000000D+00
     10b  0.000000D+00  0.000000D+00  0.000000D+00  0.000000D+00  0.000000D+00
                11            12            13            14            15 
      1a  0.000000D+00  0.000000D+00  0.000000D+00  0.000000D+00  0.000000D+00
      1b  0.000000D+00  0.000000D+00  0.000000D+00  0.000000D+00  0.000000D+00
      2a  0.000000D+00  0.000000D+00  0.000000D+00  0.000000D+00  0.000000D+00
      2b  0.000000D+00  0.000000D+00  0.000000D+00  0.000000D+00  0.000000D+00
      3a  0.000000D+00  0.000000D+00  0.000000D+00  0.000000D+00  0.000000D+00
      3b  0.000000D+00  0.000000D+00  0.000000D+00  0.000000D+00  0.000000D+00
      4a  0.000000D+00  0.000000D+00  0.000000D+00  0.000000D+00  0.000000D+00
      4b  0.000000D+00  0.000000D+00  0.000000D+00  0.000000D+00  0.000000D+00
      5a  0.000000D+00  0.000000D+00  0.000000D+00  0.000000D+00  0.000000D+00
      5b  0.000000D+00  0.000000D+00  0.000000D+00  0.000000D+00  0.000000D+00
      6a  0.000000D+00  0.000000D+00  0.000000D+00  0.000000D+00  0.000000D+00
      6b  0.000000D+00  0.000000D+00  0.000000D+00  0.000000D+00  0.000000D+00
      7a  0.000000D+00  0.000000D+00  0.000000D+00  0.000000D+00  0.000000D+00
      7b  0.000000D+00  0.000000D+00  0.000000D+00  0.000000D+00  0.000000D+00
      8a  0.000000D+00  0.000000D+00  0.000000D+00  0.000000D+00  0.000000D+00
      8b  0.000000D+00  0.000000D+00  0.000000D+00  0.000000D+00  0.000000D+00
      9a  0.000000D+00  0.000000D+00  0.000000D+00  0.000000D+00  0.000000D+00
      9b  0.000000D+00  0.000000D+00  0.000000D+00  0.000000D+00  0.000000D+00
     10a  0.000000D+00  0.000000D+00  0.000000D+00  0.000000D+00  0.000000D+00
     10b  0.000000D+00  0.000000D+00  0.000000D+00  0.000000D+00  0.000000D+00
                16            17            18            19            20 
      1a  0.000000D+00  0.000000D+00  0.000000D+00  0.000000D+00  0.000000D+00
      1b  0.000000D+00  0.000000D+00  0.000000D+00  0.000000D+00  0.000000D+00
      2a  0.000000D+00  0.000000D+00  0.000000D+00  0.000000D+00  0.000000D+00
      2b  0.000000D+00  0.000000D+00  0.000000D+00  0.000000D+00  0.000000D+00
      3a  0.000000D+00  0.000000D+00  0.000000D+00  0.000000D+00  0.000000D+00
      3b  0.000000D+00  0.000000D+00  0.000000D+00  0.000000D+00  0.000000D+00
      4a  0.000000D+00  0.000000D+00  0.000000D+00  0.000000D+00  0.000000D+00
      4b  0.000000D+00  0.000000D+00  0.000000D+00  0.000000D+00  0.000000D+00
      5a  0.000000D+00  0.000000D+00  0.000000D+00  0.000000D+00  0.000000D+00
      5b  0.000000D+00  0.000000D+00  0.000000D+00  0.000000D+00  0.000000D+00
      6a  0.000000D+00  0.000000D+00  0.000000D+00  0.000000D+00  0.000000D+00
      6b  0.000000D+00  0.000000D+00  0.000000D+00  0.000000D+00  0.000000D+00
      7a  0.000000D+00  0.000000D+00  0.000000D+00  0.000000D+00  0.000000D+00
      7b  0.000000D+00  0.000000D+00  0.000000D+00  0.000000D+00  0.000000D+00
      8a  0.000000D+00  0.000000D+00  0.000000D+00  0.000000D+00  0.000000D+00
      8b  0.000000D+00  0.000000D+00  0.000000D+00  0.000000D+00  0.000000D+00
      9a  0.000000D+00  0.000000D+00  0.000000D+00  0.000000D+00  0.000000D+00
      9b  0.000000D+00  0.000000D+00  0.000000D+00  0.000000D+00  0.000000D+00
     10a  0.000000D+00  0.000000D+00  0.000000D+00  0.000000D+00  0.000000D+00
     10b  0.000000D+00  0.000000D+00  0.000000D+00  0.000000D+00  0.000000D+00
 afr conversion (alpha, real):
                 1             2             3             4             5 
      1   0.000000D+00  0.356146D-01  0.210050D+00  0.169533D-05  0.378238D+00
      2   0.000000D+00  0.304126D-01  0.197448D+00  0.160152D-05  0.388528D+00
      3   0.182183D-05  0.120835D+00  0.283373D+00  0.229767D-05 -0.162488D-01
      4   0.172895D-05  0.113942D+00  0.291294D+00  0.235205D-05  0.418785D-01
      5   0.335826D-05  0.221946D+00  0.752819D-01  0.000000D+00 -0.348746D+00
      6   0.317759D-05  0.210138D+00  0.113996D+00  0.000000D+00 -0.342297D+00
      7   0.423006D-05  0.279901D+00 -0.238793D+00 -0.193960D-05 -0.123428D-01
      8   0.432798D-05  0.285862D+00 -0.219609D+00 -0.176870D-05 -0.748413D-01
      9   0.125914D-05  0.831735D-01 -0.182697D+00 -0.147351D-05  0.395168D+00
     10   0.152428D-05  0.100826D+00 -0.199937D+00 -0.162196D-05  0.391302D+00
                 6             7             8             9            10 
      1  -0.328486D-04 -0.517347D-01  0.000000D+00  0.297203D-05  0.414909D+00
      2  -0.337628D-04  0.445546D-01  0.000000D+00  0.356808D-05  0.489704D+00
      3   0.141685D-05 -0.196465D+00 -0.220524D-05 -0.352747D-05 -0.482362D+00
      4  -0.364262D-05  0.173109D+00  0.192329D-05 -0.300454D-05 -0.420232D+00
      5   0.302988D-04 -0.478601D+00 -0.533170D-05  0.000000D+00 -0.544373D-02
      6   0.297341D-04  0.443559D+00  0.497012D-05 -0.109349D-05 -0.154240D+00
      7   0.107945D-05 -0.575599D+00 -0.643227D-05  0.374947D-05  0.515618D+00
      8   0.649367D-05  0.597443D+00  0.667457D-05  0.398813D-05  0.553734D+00
      9  -0.343170D-04 -0.212380D+00 -0.237995D-05 -0.372980D-05 -0.518355D+00
     10  -0.340050D-04  0.254581D+00  0.283663D-05 -0.326190D-05 -0.447514D+00
                11            12            13            14            15 
      1   0.310812D-05  0.450198D+00 -0.739661D+00 -0.175126D-04 -0.270019D+00
      2  -0.278601D-05 -0.395477D+00  0.659290D+00  0.156189D-04 -0.477639D+00
      3   0.391637D-05  0.557719D+00 -0.347242D-01  0.000000D+00  0.603602D+00
      4  -0.376085D-05 -0.544861D+00  0.149006D+00  0.350861D-05  0.871684D+00
      5   0.138443D-05  0.199881D+00  0.662080D+00  0.156997D-04 -0.850273D+00
      6  -0.201844D-05 -0.290684D+00 -0.600936D+00 -0.142059D-04 -0.827273D+00
      7  -0.264000D-05 -0.375202D+00 -0.566432D-01 -0.135800D-05  0.800883D+00
      8   0.240690D-05  0.350473D+00 -0.137836D+00 -0.327466D-05  0.501889D+00
      9  -0.264072D-05 -0.384132D+00 -0.637644D+00 -0.150924D-04 -0.460041D+00
     10   0.301435D-05  0.429534D+00  0.741783D+00  0.175621D-04 -0.176381D+00
                16            17            18            19            20 
      1   0.631228D-05 -0.800848D+00 -0.221523D-05  0.550000D+00  0.176183D-03
      2   0.111063D-04  0.681953D+00  0.188905D-05 -0.612003D+00 -0.196045D-03
      3  -0.140595D-04  0.885786D+00  0.245354D-05 -0.105416D+01 -0.337680D-03
      4  -0.203117D-04 -0.554577D+00 -0.153357D-05  0.110698D+01  0.354607D-03
      5   0.198021D-04 -0.654364D-01  0.000000D+00  0.118926D+01  0.380958D-03
      6   0.192773D-04 -0.344727D+00  0.000000D+00 -0.117551D+01 -0.376559D-03
      7  -0.186542D-04 -0.681552D+00 -0.189245D-05 -0.967173D+00 -0.309818D-03
      8  -0.116917D-04  0.967058D+00  0.267716D-05  0.900482D+00  0.288460D-03
      9   0.107324D-04  0.735574D+00  0.203843D-05  0.523802D+00  0.167793D-03
     10   0.409215D-05 -0.825284D+00 -0.228783D-05 -0.463184D+00 -0.148375D-03
 afr conversion (alpha, imaginary):
                 1             2             3             4             5 
      1   0.000000D+00  0.000000D+00  0.000000D+00  0.000000D+00  0.000000D+00
      2   0.000000D+00  0.000000D+00  0.000000D+00  0.000000D+00  0.000000D+00
      3   0.000000D+00  0.000000D+00  0.000000D+00  0.000000D+00  0.000000D+00
      4   0.000000D+00  0.000000D+00  0.000000D+00  0.000000D+00  0.000000D+00
      5   0.000000D+00  0.000000D+00  0.000000D+00  0.000000D+00  0.000000D+00
      6   0.000000D+00  0.000000D+00  0.000000D+00  0.000000D+00  0.000000D+00
      7   0.000000D+00  0.000000D+00  0.000000D+00  0.000000D+00  0.000000D+00
      8   0.000000D+00  0.000000D+00  0.000000D+00  0.000000D+00  0.000000D+00
      9   0.000000D+00  0.000000D+00  0.000000D+00  0.000000D+00  0.000000D+00
     10   0.000000D+00  0.000000D+00  0.000000D+00  0.000000D+00  0.000000D+00
                 6             7             8             9            10 
      1   0.000000D+00  0.000000D+00  0.000000D+00  0.000000D+00  0.000000D+00
      2   0.000000D+00  0.000000D+00  0.000000D+00  0.000000D+00  0.000000D+00
      3   0.000000D+00  0.000000D+00  0.000000D+00  0.000000D+00  0.000000D+00
      4   0.000000D+00  0.000000D+00  0.000000D+00  0.000000D+00  0.000000D+00
      5   0.000000D+00  0.000000D+00  0.000000D+00  0.000000D+00  0.000000D+00
      6   0.000000D+00  0.000000D+00  0.000000D+00  0.000000D+00  0.000000D+00
      7   0.000000D+00  0.000000D+00  0.000000D+00  0.000000D+00  0.000000D+00
      8   0.000000D+00  0.000000D+00  0.000000D+00  0.000000D+00  0.000000D+00
      9   0.000000D+00  0.000000D+00  0.000000D+00  0.000000D+00  0.000000D+00
     10   0.000000D+00  0.000000D+00  0.000000D+00  0.000000D+00  0.000000D+00
                11            12            13            14            15 
      1   0.000000D+00  0.000000D+00  0.000000D+00  0.000000D+00  0.000000D+00
      2   0.000000D+00  0.000000D+00  0.000000D+00  0.000000D+00  0.000000D+00
      3   0.000000D+00  0.000000D+00  0.000000D+00  0.000000D+00  0.000000D+00
      4   0.000000D+00  0.000000D+00  0.000000D+00  0.000000D+00  0.000000D+00
      5   0.000000D+00  0.000000D+00  0.000000D+00  0.000000D+00  0.000000D+00
      6   0.000000D+00  0.000000D+00  0.000000D+00  0.000000D+00  0.000000D+00
      7   0.000000D+00  0.000000D+00  0.000000D+00  0.000000D+00  0.000000D+00
      8   0.000000D+00  0.000000D+00  0.000000D+00  0.000000D+00  0.000000D+00
      9   0.000000D+00  0.000000D+00  0.000000D+00  0.000000D+00  0.000000D+00
     10   0.000000D+00  0.000000D+00  0.000000D+00  0.000000D+00  0.000000D+00
                16            17            18            19            20 
      1   0.000000D+00  0.000000D+00  0.000000D+00  0.000000D+00  0.000000D+00
      2   0.000000D+00  0.000000D+00  0.000000D+00  0.000000D+00  0.000000D+00
      3   0.000000D+00  0.000000D+00  0.000000D+00  0.000000D+00  0.000000D+00
      4   0.000000D+00  0.000000D+00  0.000000D+00  0.000000D+00  0.000000D+00
      5   0.000000D+00  0.000000D+00  0.000000D+00  0.000000D+00  0.000000D+00
      6   0.000000D+00  0.000000D+00  0.000000D+00  0.000000D+00  0.000000D+00
      7   0.000000D+00  0.000000D+00  0.000000D+00  0.000000D+00  0.000000D+00
      8   0.000000D+00  0.000000D+00  0.000000D+00  0.000000D+00  0.000000D+00
      9   0.000000D+00  0.000000D+00  0.000000D+00  0.000000D+00  0.000000D+00
     10   0.000000D+00  0.000000D+00  0.000000D+00  0.000000D+00  0.000000D+00
 afr conversion (beta, real):
                 1             2             3             4             5 
      1   0.100826D+00 -0.152428D-05  0.162196D-05 -0.199937D+00  0.340050D-04
      2   0.831735D-01 -0.125914D-05  0.147351D-05 -0.182697D+00  0.343170D-04
      3   0.285862D+00 -0.432798D-05  0.176870D-05 -0.219609D+00 -0.649367D-05
      4   0.279901D+00 -0.423006D-05  0.193960D-05 -0.238793D+00 -0.107945D-05
      5   0.210138D+00 -0.317759D-05  0.000000D+00  0.113996D+00 -0.297341D-04
      6   0.221946D+00 -0.335826D-05  0.000000D+00  0.752819D-01 -0.302988D-04
      7   0.113942D+00 -0.172895D-05 -0.235205D-05  0.291294D+00  0.364262D-05
      8   0.120835D+00 -0.182183D-05 -0.229767D-05  0.283373D+00 -0.141685D-05
      9   0.304126D-01  0.000000D+00 -0.160152D-05  0.197448D+00  0.337628D-04
     10   0.356146D-01  0.000000D+00 -0.169533D-05  0.210050D+00  0.328486D-04
                 6             7             8             9            10 
      1   0.391302D+00 -0.283663D-05  0.254581D+00 -0.447514D+00  0.326190D-05
      2   0.395168D+00  0.237995D-05 -0.212380D+00 -0.518355D+00  0.372980D-05
      3  -0.748414D-01 -0.667457D-05  0.597443D+00  0.553734D+00 -0.398813D-05
      4  -0.123428D-01  0.643227D-05 -0.575599D+00  0.515618D+00 -0.374947D-05
      5  -0.342297D+00 -0.497012D-05  0.443559D+00 -0.154240D+00  0.109349D-05
      6  -0.348746D+00  0.533170D-05 -0.478601D+00 -0.544372D-02  0.000000D+00
      7   0.418785D-01 -0.192329D-05  0.173109D+00 -0.420232D+00  0.300454D-05
      8  -0.162488D-01  0.220524D-05 -0.196465D+00 -0.482362D+00  0.352747D-05
      9   0.388528D+00  0.000000D+00  0.445546D-01  0.489704D+00 -0.356807D-05
     10   0.378238D+00  0.000000D+00 -0.517347D-01  0.414909D+00 -0.297203D-05
                11            12            13            14            15 
      1   0.429534D+00 -0.301435D-05 -0.175621D-04  0.741783D+00 -0.409215D-05
      2  -0.384132D+00  0.264072D-05  0.150924D-04 -0.637643D+00 -0.107324D-04
      3   0.350473D+00 -0.240689D-05  0.327466D-05 -0.137836D+00  0.116917D-04
      4  -0.375202D+00  0.264000D-05  0.135800D-05 -0.566432D-01  0.186542D-04
      5  -0.290684D+00  0.201844D-05  0.142059D-04 -0.600936D+00 -0.192773D-04
      6   0.199881D+00 -0.138443D-05 -0.156997D-04  0.662080D+00 -0.198021D-04
      7  -0.544861D+00  0.376085D-05 -0.350860D-05  0.149006D+00  0.203117D-04
      8   0.557719D+00 -0.391638D-05  0.000000D+00 -0.347242D-01  0.140595D-04
      9  -0.395477D+00  0.278601D-05 -0.156189D-04  0.659290D+00 -0.111063D-04
     10   0.450198D+00 -0.310812D-05  0.175126D-04 -0.739661D+00 -0.631228D-05
                16            17            18            19            20 
      1  -0.176381D+00  0.228783D-05 -0.825284D+00  0.148375D-03 -0.463184D+00
      2  -0.460041D+00 -0.203843D-05  0.735574D+00 -0.167793D-03  0.523802D+00
      3   0.501889D+00 -0.267716D-05  0.967058D+00 -0.288460D-03  0.900482D+00
      4   0.800883D+00  0.189245D-05 -0.681552D+00  0.309818D-03 -0.967173D+00
      5  -0.827273D+00  0.000000D+00 -0.344727D+00  0.376559D-03 -0.117551D+01
      6  -0.850273D+00  0.000000D+00 -0.654364D-01 -0.380958D-03  0.118926D+01
      7   0.871684D+00  0.153357D-05 -0.554577D+00 -0.354607D-03  0.110698D+01
      8   0.603602D+00 -0.245354D-05  0.885786D+00  0.337680D-03 -0.105416D+01
      9  -0.477639D+00 -0.188905D-05  0.681953D+00  0.196045D-03 -0.612003D+00
     10  -0.270019D+00  0.221523D-05 -0.800848D+00 -0.176183D-03  0.550000D+00
 afr conversion (beta, imaginary):
                 1             2             3             4             5 
      1   0.000000D+00  0.000000D+00  0.000000D+00  0.000000D+00  0.000000D+00
      2   0.000000D+00  0.000000D+00  0.000000D+00  0.000000D+00  0.000000D+00
      3   0.000000D+00  0.000000D+00  0.000000D+00  0.000000D+00  0.000000D+00
      4   0.000000D+00  0.000000D+00  0.000000D+00  0.000000D+00  0.000000D+00
      5   0.000000D+00  0.000000D+00  0.000000D+00  0.000000D+00  0.000000D+00
      6   0.000000D+00  0.000000D+00  0.000000D+00  0.000000D+00  0.000000D+00
      7   0.000000D+00  0.000000D+00  0.000000D+00  0.000000D+00  0.000000D+00
      8   0.000000D+00  0.000000D+00  0.000000D+00  0.000000D+00  0.000000D+00
      9   0.000000D+00  0.000000D+00  0.000000D+00  0.000000D+00  0.000000D+00
     10   0.000000D+00  0.000000D+00  0.000000D+00  0.000000D+00  0.000000D+00
                 6             7             8             9            10 
      1   0.000000D+00  0.000000D+00  0.000000D+00  0.000000D+00  0.000000D+00
      2   0.000000D+00  0.000000D+00  0.000000D+00  0.000000D+00  0.000000D+00
      3   0.000000D+00  0.000000D+00  0.000000D+00  0.000000D+00  0.000000D+00
      4   0.000000D+00  0.000000D+00  0.000000D+00  0.000000D+00  0.000000D+00
      5   0.000000D+00  0.000000D+00  0.000000D+00  0.000000D+00  0.000000D+00
      6   0.000000D+00  0.000000D+00  0.000000D+00  0.000000D+00  0.000000D+00
      7   0.000000D+00  0.000000D+00  0.000000D+00  0.000000D+00  0.000000D+00
      8   0.000000D+00  0.000000D+00  0.000000D+00  0.000000D+00  0.000000D+00
      9   0.000000D+00  0.000000D+00  0.000000D+00  0.000000D+00  0.000000D+00
     10   0.000000D+00  0.000000D+00  0.000000D+00  0.000000D+00  0.000000D+00
                11            12            13            14            15 
      1   0.000000D+00  0.000000D+00  0.000000D+00  0.000000D+00  0.000000D+00
      2   0.000000D+00  0.000000D+00  0.000000D+00  0.000000D+00  0.000000D+00
      3   0.000000D+00  0.000000D+00  0.000000D+00  0.000000D+00  0.000000D+00
      4   0.000000D+00  0.000000D+00  0.000000D+00  0.000000D+00  0.000000D+00
      5   0.000000D+00  0.000000D+00  0.000000D+00  0.000000D+00  0.000000D+00
      6   0.000000D+00  0.000000D+00  0.000000D+00  0.000000D+00  0.000000D+00
      7   0.000000D+00  0.000000D+00  0.000000D+00  0.000000D+00  0.000000D+00
      8   0.000000D+00  0.000000D+00  0.000000D+00  0.000000D+00  0.000000D+00
      9   0.000000D+00  0.000000D+00  0.000000D+00  0.000000D+00  0.000000D+00
     10   0.000000D+00  0.000000D+00  0.000000D+00  0.000000D+00  0.000000D+00
                16            17            18            19            20 
      1   0.000000D+00  0.000000D+00  0.000000D+00  0.000000D+00  0.000000D+00
      2   0.000000D+00  0.000000D+00  0.000000D+00  0.000000D+00  0.000000D+00
      3   0.000000D+00  0.000000D+00  0.000000D+00  0.000000D+00  0.000000D+00
      4   0.000000D+00  0.000000D+00  0.000000D+00  0.000000D+00  0.000000D+00
      5   0.000000D+00  0.000000D+00  0.000000D+00  0.000000D+00  0.000000D+00
      6   0.000000D+00  0.000000D+00  0.000000D+00  0.000000D+00  0.000000D+00
      7   0.000000D+00  0.000000D+00  0.000000D+00  0.000000D+00  0.000000D+00
      8   0.000000D+00  0.000000D+00  0.000000D+00  0.000000D+00  0.000000D+00
      9   0.000000D+00  0.000000D+00  0.000000D+00  0.000000D+00  0.000000D+00
     10   0.000000D+00  0.000000D+00  0.000000D+00  0.000000D+00  0.000000D+00
 jaja in hckghf.F, ISPECT =                     548
Spin block MO for GHF transformation
NOA =   10   NOB =   10
NVA =   10   NVB =   10
 NOAvA in Hack                     100
 jaja in tranN3.F, ISPECT =                     548
 in l802/tranN3.F, LSPECT =                      800
 NMat, NBtSiz,MDV                    8372                   16000
                133954722
 TranN3:  NGot= 134217728 NBasic=    263006 NTTT=       550 NMat=      8372.
 Defined bucket =                      51                   10000
 Defined bucket =                      52                   10000
 Defined bucket =                      53                   10000
 Defined bucket =                      55                   10000
 Defined bucket =                      57                   10000
 Defined bucket =                      58                   10000
 Defined bucket =                      60                   10000
 Defined bucket =                      72                   10000
 Defined bucket =                      73                   10000
 Defined bucket =                      74                   10000
 Defined bucket =                      75                   10000
 Defined bucket =                      76                   10000
 (IK/LS) integrals will be saved in memory.
 TrCghf made   2 passes through the AO integrals.
 jaja DoHack is true or false? F
 jaja in hckghf.F, NBasis=                      10
 jaja in hckGHF/FixOG, LC =                      800
 jaja in hckGHF/FixOG, IRwC=                      548
 bfr conversion (alpha, real):
                 1             2             3             4             5 
      1   0.000000D+00  0.356146D-01  0.210050D+00  0.169533D-05  0.378238D+00
      2   0.000000D+00  0.304126D-01  0.197448D+00  0.160152D-05  0.388528D+00
      3   0.182183D-05  0.120835D+00  0.283373D+00  0.229767D-05 -0.162488D-01
      4   0.172895D-05  0.113942D+00  0.291294D+00  0.235205D-05  0.418785D-01
      5   0.335826D-05  0.221946D+00  0.752819D-01  0.000000D+00 -0.348746D+00
      6   0.317759D-05  0.210138D+00  0.113996D+00  0.000000D+00 -0.342297D+00
      7   0.423006D-05  0.279901D+00 -0.238793D+00 -0.193960D-05 -0.123428D-01
      8   0.432798D-05  0.285862D+00 -0.219609D+00 -0.176870D-05 -0.748413D-01
      9   0.125914D-05  0.831735D-01 -0.182697D+00 -0.147351D-05  0.395168D+00
     10   0.152428D-05  0.100826D+00 -0.199937D+00 -0.162196D-05  0.391302D+00
                 6             7             8             9            10 
      1  -0.328486D-04 -0.517347D-01  0.000000D+00  0.297203D-05  0.414909D+00
      2  -0.337628D-04  0.445546D-01  0.000000D+00  0.356808D-05  0.489704D+00
      3   0.141685D-05 -0.196465D+00 -0.220524D-05 -0.352747D-05 -0.482362D+00
      4  -0.364262D-05  0.173109D+00  0.192329D-05 -0.300454D-05 -0.420232D+00
      5   0.302988D-04 -0.478601D+00 -0.533170D-05  0.000000D+00 -0.544373D-02
      6   0.297341D-04  0.443559D+00  0.497012D-05 -0.109349D-05 -0.154240D+00
      7   0.107945D-05 -0.575599D+00 -0.643227D-05  0.374947D-05  0.515618D+00
      8   0.649367D-05  0.597443D+00  0.667457D-05  0.398813D-05  0.553734D+00
      9  -0.343170D-04 -0.212380D+00 -0.237995D-05 -0.372980D-05 -0.518355D+00
     10  -0.340050D-04  0.254581D+00  0.283663D-05 -0.326190D-05 -0.447514D+00
                11            12            13            14            15 
      1   0.310812D-05  0.450198D+00 -0.739661D+00 -0.175126D-04 -0.270019D+00
      2  -0.278601D-05 -0.395477D+00  0.659290D+00  0.156189D-04 -0.477639D+00
      3   0.391637D-05  0.557719D+00 -0.347242D-01  0.000000D+00  0.603602D+00
      4  -0.376085D-05 -0.544861D+00  0.149006D+00  0.350861D-05  0.871684D+00
      5   0.138443D-05  0.199881D+00  0.662080D+00  0.156997D-04 -0.850273D+00
      6  -0.201844D-05 -0.290684D+00 -0.600936D+00 -0.142059D-04 -0.827273D+00
      7  -0.264000D-05 -0.375202D+00 -0.566432D-01 -0.135800D-05  0.800883D+00
      8   0.240690D-05  0.350473D+00 -0.137836D+00 -0.327466D-05  0.501889D+00
      9  -0.264072D-05 -0.384132D+00 -0.637644D+00 -0.150924D-04 -0.460041D+00
     10   0.301435D-05  0.429534D+00  0.741783D+00  0.175621D-04 -0.176381D+00
                16            17            18            19            20 
      1   0.631228D-05 -0.800848D+00 -0.221523D-05  0.550000D+00  0.176183D-03
      2   0.111063D-04  0.681953D+00  0.188905D-05 -0.612003D+00 -0.196045D-03
      3  -0.140595D-04  0.885786D+00  0.245354D-05 -0.105416D+01 -0.337680D-03
      4  -0.203117D-04 -0.554577D+00 -0.153357D-05  0.110698D+01  0.354607D-03
      5   0.198021D-04 -0.654364D-01  0.000000D+00  0.118926D+01  0.380958D-03
      6   0.192773D-04 -0.344727D+00  0.000000D+00 -0.117551D+01 -0.376559D-03
      7  -0.186542D-04 -0.681552D+00 -0.189245D-05 -0.967173D+00 -0.309818D-03
      8  -0.116917D-04  0.967058D+00  0.267716D-05  0.900482D+00  0.288460D-03
      9   0.107324D-04  0.735574D+00  0.203843D-05  0.523802D+00  0.167793D-03
     10   0.409215D-05 -0.825284D+00 -0.228783D-05 -0.463184D+00 -0.148375D-03
 bfr conversion (alpha, imaginary):
                 1             2             3             4             5 
      1   0.000000D+00  0.000000D+00  0.000000D+00  0.000000D+00  0.000000D+00
[...]
      6b 0.204140D+00 -0.418110D+00  0.119477D-01 -0.398000D+00 -0.567838D-01
      7a 0.399129D-01  0.115945D+00  0.114967D+00  0.178432D-01 -0.379676D+00
      7b-0.108249D+00  0.650106D-01 -0.117603D-01  0.130530D+00  0.719549D-02
      8a 0.386699D-01 -0.200511D-01  0.374381D-01 -0.137588D+00 -0.356101D+00
      8b 0.776898D-02  0.613272D-01  0.134240D+00  0.648562D-01 -0.311148D+00
      9a 0.121534D+00 -0.114784D-01  0.121517D+00  0.268457D-01  0.651665D-01
      9b-0.301439D-02  0.144463D+00 -0.100594D-01  0.148391D+00  0.132309D+00
     10a 0.152140D+00  0.144686D-02  0.122826D+00  0.350470D-02  0.574201D-01
     10b-0.186565D-01  0.177521D+00  0.120551D-01  0.142607D+00  0.472676D-02
                3b            4a            4b            5a            5b
      3b 0.705051D+00
      4a-0.298221D+00  0.507608D+00
      4b 0.345783D+00 -0.506038D-01  0.657909D+00
      5a-0.332213D-02  0.144084D-01  0.465794D-01  0.543011D+00
      5b 0.889643D-01  0.902904D-01 -0.106858D+00 -0.135478D-01  0.565853D+00
      6a-0.848137D-01  0.195776D+00  0.115520D-01  0.343540D+00  0.169367D+00
      6b 0.343022D-01 -0.967400D-01  0.131729D+00 -0.139241D+00  0.346122D+00
      7a 0.697110D-02 -0.336284D+00 -0.267319D+00  0.126563D+00  0.410287D-02
      7b-0.345923D+00  0.268242D+00 -0.309385D+00 -0.925610D-01  0.187426D+00
      8a 0.292132D+00 -0.368283D+00 -0.795892D-02  0.284509D-01 -0.857125D-01
      8b-0.328349D+00 -0.878756D-02 -0.355856D+00 -0.554311D-01  0.136718D+00
      9a-0.136126D+00  0.126655D+00  0.187100D-01 -0.396219D+00  0.663417D-01
      9b 0.341636D-01 -0.865666D-02  0.114576D+00  0.132545D-01 -0.376572D+00
     10a-0.208145D-01  0.606281D-01  0.114596D+00 -0.415946D+00 -0.136304D+00
     10b 0.380804D-01 -0.106363D+00  0.412482D-01  0.203840D+00 -0.375197D+00
                6a            6b            7a            7b            8a
      6a 0.563564D+00
      6b-0.119124D-01  0.547723D+00
      7a-0.117877D+00  0.476984D-01  0.677652D+00
      7b 0.894132D-01  0.812169D-02 -0.646926D-01  0.484349D+00
      8a 0.785072D-01  0.165934D-02  0.371340D+00 -0.298257D+00  0.724263D+00
      8b 0.759551D-01  0.160963D+00  0.299075D+00  0.326774D+00  0.766690D-01
      9a-0.352363D+00  0.124352D+00 -0.554855D-01  0.109257D+00 -0.253869D+00
      9b-0.188105D+00 -0.353057D+00 -0.580534D-01  0.612303D-01 -0.912120D-01
     10a-0.350231D+00 -0.350930D-01 -0.117033D+00  0.861723D-01 -0.926885D-01
     10b-0.223372D-01 -0.332149D+00  0.632226D-01  0.518906D-02  0.610804D-01
                8b            9a            9b           10a           10b
      8b 0.530332D+00
      9a-0.699797D-01  0.876552D+00
      9b-0.119327D+00  0.276552D-01  0.824179D+00
     10a-0.103405D+00  0.699553D+00  0.426158D+00  0.843464D+00
     10b 0.105547D-01 -0.432893D+00  0.647059D+00 -0.357066D-01  0.769837D+00
 jaja lower-tri density matrix (imaginary):
                1a            1b            2a            2b            3a
      1a 0.000000D+00
      1b 0.000000D+00  0.000000D+00
      2a 0.000000D+00  0.000000D+00  0.000000D+00
      2b 0.000000D+00  0.000000D+00  0.000000D+00  0.000000D+00
      3a 0.000000D+00  0.000000D+00  0.000000D+00  0.000000D+00  0.000000D+00
      3b 0.000000D+00  0.000000D+00  0.000000D+00  0.000000D+00  0.000000D+00
      4a 0.000000D+00  0.000000D+00  0.000000D+00  0.000000D+00  0.000000D+00
      4b 0.000000D+00  0.000000D+00  0.000000D+00  0.000000D+00  0.000000D+00
      5a 0.000000D+00  0.000000D+00  0.000000D+00  0.000000D+00  0.000000D+00
      5b 0.000000D+00  0.000000D+00  0.000000D+00  0.000000D+00  0.000000D+00
      6a 0.000000D+00  0.000000D+00  0.000000D+00  0.000000D+00  0.000000D+00
      6b 0.000000D+00  0.000000D+00  0.000000D+00  0.000000D+00  0.000000D+00
      7a 0.000000D+00  0.000000D+00  0.000000D+00  0.000000D+00  0.000000D+00
      7b 0.000000D+00  0.000000D+00  0.000000D+00  0.000000D+00  0.000000D+00
      8a 0.000000D+00  0.000000D+00  0.000000D+00  0.000000D+00  0.000000D+00
      8b 0.000000D+00  0.000000D+00  0.000000D+00  0.000000D+00  0.000000D+00
      9a 0.000000D+00  0.000000D+00  0.000000D+00  0.000000D+00  0.000000D+00
      9b 0.000000D+00  0.000000D+00  0.000000D+00  0.000000D+00  0.000000D+00
     10a 0.000000D+00  0.000000D+00  0.000000D+00  0.000000D+00  0.000000D+00
     10b 0.000000D+00  0.000000D+00  0.000000D+00  0.000000D+00  0.000000D+00
                3b            4a            4b            5a            5b
      3b 0.000000D+00
      4a 0.000000D+00  0.000000D+00
      4b 0.000000D+00  0.000000D+00  0.000000D+00
      5a 0.000000D+00  0.000000D+00  0.000000D+00  0.000000D+00
      5b 0.000000D+00  0.000000D+00  0.000000D+00  0.000000D+00  0.000000D+00
      6a 0.000000D+00  0.000000D+00  0.000000D+00  0.000000D+00  0.000000D+00
      6b 0.000000D+00  0.000000D+00  0.000000D+00  0.000000D+00  0.000000D+00
      7a 0.000000D+00  0.000000D+00  0.000000D+00  0.000000D+00  0.000000D+00
      7b 0.000000D+00  0.000000D+00  0.000000D+00  0.000000D+00  0.000000D+00
      8a 0.000000D+00  0.000000D+00  0.000000D+00  0.000000D+00  0.000000D+00
      8b 0.000000D+00  0.000000D+00  0.000000D+00  0.000000D+00  0.000000D+00
      9a 0.000000D+00  0.000000D+00  0.000000D+00  0.000000D+00  0.000000D+00
      9b 0.000000D+00  0.000000D+00  0.000000D+00  0.000000D+00  0.000000D+00
     10a 0.000000D+00  0.000000D+00  0.000000D+00  0.000000D+00  0.000000D+00
     10b 0.000000D+00  0.000000D+00  0.000000D+00  0.000000D+00  0.000000D+00
                6a            6b            7a            7b            8a
      6a 0.000000D+00
      6b 0.000000D+00  0.000000D+00
      7a 0.000000D+00  0.000000D+00  0.000000D+00
      7b 0.000000D+00  0.000000D+00  0.000000D+00  0.000000D+00
      8a 0.000000D+00  0.000000D+00  0.000000D+00  0.000000D+00  0.000000D+00
      8b 0.000000D+00  0.000000D+00  0.000000D+00  0.000000D+00  0.000000D+00
      9a 0.000000D+00  0.000000D+00  0.000000D+00  0.000000D+00  0.000000D+00
      9b 0.000000D+00  0.000000D+00  0.000000D+00  0.000000D+00  0.000000D+00
     10a 0.000000D+00  0.000000D+00  0.000000D+00  0.000000D+00  0.000000D+00
     10b 0.000000D+00  0.000000D+00  0.000000D+00  0.000000D+00  0.000000D+00
                8b            9a            9b           10a           10b
      8b 0.000000D+00
      9a 0.000000D+00  0.000000D+00
      9b 0.000000D+00  0.000000D+00  0.000000D+00
     10a 0.000000D+00  0.000000D+00  0.000000D+00  0.000000D+00
     10b 0.000000D+00  0.000000D+00  0.000000D+00  0.000000D+00  0.000000D+00
 jaja non-ortho density matrix               [Gau-style] (real):
                 1             2             3             4             5 
      1a  0.780122D+00 -0.287638D-01  0.660382D+00 -0.432642D+00  0.136299D-01
      1b -0.287638D-01  0.833541D+00  0.426706D+00  0.686301D+00 -0.101341D+00
      2a  0.660382D+00  0.426706D+00  0.836110D+00  0.201404D-01 -0.115931D+00
      2b -0.432642D+00  0.686301D+00  0.201404D-01  0.865099D+00 -0.673248D-01
      3a  0.136299D-01 -0.101341D+00 -0.115931D+00 -0.673248D-01  0.554604D+00
      3b  0.587866D-01 -0.913922D-01 -0.888852D-01 -0.251626D+00  0.612768D-01
      4a  0.115934D-01  0.845166D-01  0.630961D-01  0.105948D+00  0.356209D+00
      4b  0.615125D-01 -0.118005D+00 -0.568419D-01 -0.527227D-01  0.298639D+00
      5a -0.324736D+00 -0.309695D-01 -0.344035D+00  0.124238D+00  0.163748D+00
      5b -0.201553D-01 -0.352920D+00 -0.189743D+00 -0.356374D+00  0.834901D-01
      6a -0.366716D+00 -0.136761D+00 -0.370859D+00  0.620657D-01  0.148189D+00
      6b  0.204140D+00 -0.418110D+00  0.119477D-01 -0.398000D+00 -0.567838D-01
      7a  0.399129D-01  0.115945D+00  0.114967D+00  0.178432D-01 -0.379676D+00
      7b -0.108249D+00  0.650106D-01 -0.117603D-01  0.130530D+00  0.719549D-02
      8a  0.386699D-01 -0.200511D-01  0.374381D-01 -0.137588D+00 -0.356101D+00
      8b  0.776898D-02  0.613272D-01  0.134240D+00  0.648562D-01 -0.311148D+00
      9a  0.121534D+00 -0.114784D-01  0.121517D+00  0.268457D-01  0.651665D-01
      9b -0.301439D-02  0.144463D+00 -0.100594D-01  0.148391D+00  0.132309D+00
     10a  0.152140D+00  0.144686D-02  0.122826D+00  0.350470D-02  0.574201D-01
     10b -0.186565D-01  0.177521D+00  0.120551D-01  0.142607D+00  0.472676D-02
                 6             7             8             9            10 
      1a  0.587866D-01  0.115934D-01  0.615125D-01 -0.324736D+00 -0.201553D-01
      1b -0.913922D-01  0.845166D-01 -0.118005D+00 -0.309695D-01 -0.352920D+00
      2a -0.888852D-01  0.630961D-01 -0.568419D-01 -0.344035D+00 -0.189743D+00
      2b -0.251626D+00  0.105948D+00 -0.527227D-01  0.124238D+00 -0.356374D+00
      3a  0.612768D-01  0.356209D+00  0.298639D+00  0.163748D+00  0.834901D-01
      3b  0.705051D+00 -0.298221D+00  0.345783D+00 -0.332213D-02  0.889643D-01
      4a -0.298221D+00  0.507608D+00 -0.506038D-01  0.144084D-01  0.902904D-01
      4b  0.345783D+00 -0.506038D-01  0.657909D+00  0.465794D-01 -0.106858D+00
      5a -0.332213D-02  0.144084D-01  0.465794D-01  0.543011D+00 -0.135478D-01
      5b  0.889643D-01  0.902904D-01 -0.106858D+00 -0.135478D-01  0.565853D+00
      6a -0.848137D-01  0.195776D+00  0.115520D-01  0.343540D+00  0.169367D+00
      6b  0.343022D-01 -0.967400D-01  0.131729D+00 -0.139241D+00  0.346122D+00
      7a  0.697110D-02 -0.336284D+00 -0.267319D+00  0.126563D+00  0.410287D-02
      7b -0.345923D+00  0.268242D+00 -0.309385D+00 -0.925610D-01  0.187426D+00
      8a  0.292132D+00 -0.368283D+00 -0.795892D-02  0.284509D-01 -0.857125D-01
      8b -0.328349D+00 -0.878756D-02 -0.355856D+00 -0.554311D-01  0.136718D+00
      9a -0.136126D+00  0.126655D+00  0.187100D-01 -0.396219D+00  0.663417D-01
      9b  0.341636D-01 -0.865666D-02  0.114576D+00  0.132545D-01 -0.376572D+00
     10a -0.208145D-01  0.606281D-01  0.114596D+00 -0.415946D+00 -0.136304D+00
     10b  0.380804D-01 -0.106363D+00  0.412482D-01  0.203840D+00 -0.375197D+00
                11            12            13            14            15 
      1a -0.366716D+00  0.204140D+00  0.399129D-01 -0.108249D+00  0.386699D-01
      1b -0.136761D+00 -0.418110D+00  0.115945D+00  0.650106D-01 -0.200511D-01
      2a -0.370859D+00  0.119477D-01  0.114967D+00 -0.117603D-01  0.374381D-01
      2b  0.620657D-01 -0.398000D+00  0.178432D-01  0.130530D+00 -0.137588D+00
      3a  0.148189D+00 -0.567838D-01 -0.379676D+00  0.719549D-02 -0.356101D+00
      3b -0.848137D-01  0.343022D-01  0.697110D-02 -0.345923D+00  0.292132D+00
      4a  0.195776D+00 -0.967400D-01 -0.336284D+00  0.268242D+00 -0.368283D+00
      4b  0.115520D-01  0.131729D+00 -0.267319D+00 -0.309385D+00 -0.795892D-02
      5a  0.343540D+00 -0.139241D+00  0.126563D+00 -0.925610D-01  0.284509D-01
      5b  0.169367D+00  0.346122D+00  0.410287D-02  0.187426D+00 -0.857125D-01
      6a  0.563564D+00 -0.119124D-01 -0.117877D+00  0.894132D-01  0.785072D-01
      6b -0.119124D-01  0.547723D+00  0.476984D-01  0.812169D-02  0.165934D-02
      7a -0.117877D+00  0.476984D-01  0.677652D+00 -0.646926D-01  0.371340D+00
      7b  0.894132D-01  0.812169D-02 -0.646926D-01  0.484349D+00 -0.298257D+00
      8a  0.785072D-01  0.165934D-02  0.371340D+00 -0.298257D+00  0.724263D+00
      8b  0.759551D-01  0.160963D+00  0.299075D+00  0.326774D+00  0.766690D-01
      9a -0.352363D+00  0.124352D+00 -0.554855D-01  0.109257D+00 -0.253869D+00
      9b -0.188105D+00 -0.353057D+00 -0.580534D-01  0.612303D-01 -0.912120D-01
     10a -0.350231D+00 -0.350930D-01 -0.117033D+00  0.861723D-01 -0.926885D-01
     10b -0.223372D-01 -0.332149D+00  0.632226D-01  0.518906D-02  0.610804D-01
                16            17            18            19            20 
      1a  0.776898D-02  0.121534D+00 -0.301439D-02  0.152140D+00 -0.186565D-01
      1b  0.613272D-01 -0.114784D-01  0.144463D+00  0.144686D-02  0.177521D+00
      2a  0.134240D+00  0.121517D+00 -0.100594D-01  0.122826D+00  0.120551D-01
      2b  0.648562D-01  0.268457D-01  0.148391D+00  0.350470D-02  0.142607D+00
      3a -0.311148D+00  0.651665D-01  0.132309D+00  0.574201D-01  0.472676D-02
      3b -0.328349D+00 -0.136126D+00  0.341636D-01 -0.208145D-01  0.380804D-01
      4a -0.878756D-02  0.126655D+00 -0.865666D-02  0.606281D-01 -0.106363D+00
      4b -0.355856D+00  0.187100D-01  0.114576D+00  0.114596D+00  0.412482D-01
      5a -0.554311D-01 -0.396219D+00  0.132545D-01 -0.415946D+00  0.203840D+00
      5b  0.136718D+00  0.663417D-01 -0.376572D+00 -0.136304D+00 -0.375197D+00
      6a  0.759551D-01 -0.352363D+00 -0.188105D+00 -0.350231D+00 -0.223372D-01
      6b  0.160963D+00  0.124352D+00 -0.353057D+00 -0.350930D-01 -0.332149D+00
      7a  0.299075D+00 -0.554855D-01 -0.580534D-01 -0.117033D+00  0.632226D-01
      7b  0.326774D+00  0.109257D+00  0.612303D-01  0.861723D-01  0.518906D-02
      8a  0.766690D-01 -0.253869D+00 -0.912120D-01 -0.926885D-01  0.610804D-01
      8b  0.530332D+00 -0.699797D-01 -0.119327D+00 -0.103405D+00  0.105547D-01
      9a -0.699797D-01  0.876552D+00  0.276552D-01  0.699553D+00 -0.432893D+00
      9b -0.119327D+00  0.276552D-01  0.824179D+00  0.426158D+00  0.647059D+00
     10a -0.103405D+00  0.699553D+00  0.426158D+00  0.843464D+00 -0.357066D-01
     10b  0.105547D-01 -0.432893D+00  0.647059D+00 -0.357066D-01  0.769837D+00
 jaja non-ortho density matrix               [Gau-style] (imaginary):
                 1             2             3             4             5 
      1a  0.000000D+00  0.000000D+00  0.000000D+00  0.000000D+00  0.000000D+00
      1b  0.000000D+00  0.000000D+00  0.000000D+00  0.000000D+00  0.000000D+00
      2a  0.000000D+00  0.000000D+00  0.000000D+00  0.000000D+00  0.000000D+00
      2b  0.000000D+00  0.000000D+00  0.000000D+00  0.000000D+00  0.000000D+00
      3a  0.000000D+00  0.000000D+00  0.000000D+00  0.000000D+00  0.000000D+00
      3b  0.000000D+00  0.000000D+00  0.000000D+00  0.000000D+00  0.000000D+00
      4a  0.000000D+00  0.000000D+00  0.000000D+00  0.000000D+00  0.000000D+00
      4b  0.000000D+00  0.000000D+00  0.000000D+00  0.000000D+00  0.000000D+00
      5a  0.000000D+00  0.000000D+00  0.000000D+00  0.000000D+00  0.000000D+00
      5b  0.000000D+00  0.000000D+00  0.000000D+00  0.000000D+00  0.000000D+00
      6a  0.000000D+00  0.000000D+00  0.000000D+00  0.000000D+00  0.000000D+00
      6b  0.000000D+00  0.000000D+00  0.000000D+00  0.000000D+00  0.000000D+00
      7a  0.000000D+00  0.000000D+00  0.000000D+00  0.000000D+00  0.000000D+00
      7b  0.000000D+00  0.000000D+00  0.000000D+00  0.000000D+00  0.000000D+00
      8a  0.000000D+00  0.000000D+00  0.000000D+00  0.000000D+00  0.000000D+00
      8b  0.000000D+00  0.000000D+00  0.000000D+00  0.000000D+00  0.000000D+00
      9a  0.000000D+00  0.000000D+00  0.000000D+00  0.000000D+00  0.000000D+00
      9b  0.000000D+00  0.000000D+00  0.000000D+00  0.000000D+00  0.000000D+00
     10a  0.000000D+00  0.000000D+00  0.000000D+00  0.000000D+00  0.000000D+00
     10b  0.000000D+00  0.000000D+00  0.000000D+00  0.000000D+00  0.000000D+00
                 6             7             8             9            10 
      1a  0.000000D+00  0.000000D+00  0.000000D+00  0.000000D+00  0.000000D+00
      1b  0.000000D+00  0.000000D+00  0.000000D+00  0.000000D+00  0.000000D+00
      2a  0.000000D+00  0.000000D+00  0.000000D+00  0.000000D+00  0.000000D+00
      2b  0.000000D+00  0.000000D+00  0.000000D+00  0.000000D+00  0.000000D+00
      3a  0.000000D+00  0.000000D+00  0.000000D+00  0.000000D+00  0.000000D+00
      3b  0.000000D+00  0.000000D+00  0.000000D+00  0.000000D+00  0.000000D+00
      4a  0.000000D+00  0.000000D+00  0.000000D+00  0.000000D+00  0.000000D+00
      4b  0.000000D+00  0.000000D+00  0.000000D+00  0.000000D+00  0.000000D+00
      5a  0.000000D+00  0.000000D+00  0.000000D+00  0.000000D+00  0.000000D+00
      5b  0.000000D+00  0.000000D+00  0.000000D+00  0.000000D+00  0.000000D+00
      6a  0.000000D+00  0.000000D+00  0.000000D+00  0.000000D+00  0.000000D+00
      6b  0.000000D+00  0.000000D+00  0.000000D+00  0.000000D+00  0.000000D+00
      7a  0.000000D+00  0.000000D+00  0.000000D+00  0.000000D+00  0.000000D+00
      7b  0.000000D+00  0.000000D+00  0.000000D+00  0.000000D+00  0.000000D+00
      8a  0.000000D+00  0.000000D+00  0.000000D+00  0.000000D+00  0.000000D+00
      8b  0.000000D+00  0.000000D+00  0.000000D+00  0.000000D+00  0.000000D+00
      9a  0.000000D+00  0.000000D+00  0.000000D+00  0.000000D+00  0.000000D+00
      9b  0.000000D+00  0.000000D+00  0.000000D+00  0.000000D+00  0.000000D+00
     10a  0.000000D+00  0.000000D+00  0.000000D+00  0.000000D+00  0.000000D+00
     10b  0.000000D+00  0.000000D+00  0.000000D+00  0.000000D+00  0.000000D+00
                11            12            13            14            15 
      1a  0.000000D+00  0.000000D+00  0.000000D+00  0.000000D+00  0.000000D+00
      1b  0.000000D+00  0.000000D+00  0.000000D+00  0.000000D+00  0.000000D+00
      2a  0.000000D+00  0.000000D+00  0.000000D+00  0.000000D+00  0.000000D+00
      2b  0.000000D+00  0.000000D+00  0.000000D+00  0.000000D+00  0.000000D+00
      3a  0.000000D+00  0.000000D+00  0.000000D+00  0.000000D+00  0.000000D+00
      3b  0.000000D+00  0.000000D+00  0.000000D+00  0.000000D+00  0.000000D+00
      4a  0.000000D+00  0.000000D+00  0.000000D+00  0.000000D+00  0.000000D+00
      4b  0.000000D+00  0.000000D+00  0.000000D+00  0.000000D+00  0.000000D+00
      5a  0.000000D+00  0.000000D+00  0.000000D+00  0.000000D+00  0.000000D+00
      5b  0.000000D+00  0.000000D+00  0.000000D+00  0.000000D+00  0.000000D+00
      6a  0.000000D+00  0.000000D+00  0.000000D+00  0.000000D+00  0.000000D+00
      6b  0.000000D+00  0.000000D+00  0.000000D+00  0.000000D+00  0.000000D+00
      7a  0.000000D+00  0.000000D+00  0.000000D+00  0.000000D+00  0.000000D+00
      7b  0.000000D+00  0.000000D+00  0.000000D+00  0.000000D+00  0.000000D+00
      8a  0.000000D+00  0.000000D+00  0.000000D+00  0.000000D+00  0.000000D+00
      8b  0.000000D+00  0.000000D+00  0.000000D+00  0.000000D+00  0.000000D+00
      9a  0.000000D+00  0.000000D+00  0.000000D+00  0.000000D+00  0.000000D+00
      9b  0.000000D+00  0.000000D+00  0.000000D+00  0.000000D+00  0.000000D+00
     10a  0.000000D+00  0.000000D+00  0.000000D+00  0.000000D+00  0.000000D+00
     10b  0.000000D+00  0.000000D+00  0.000000D+00  0.000000D+00  0.000000D+00
                16            17            18            19            20 
      1a  0.000000D+00  0.000000D+00  0.000000D+00  0.000000D+00  0.000000D+00
      1b  0.000000D+00  0.000000D+00  0.000000D+00  0.000000D+00  0.000000D+00
      2a  0.000000D+00  0.000000D+00  0.000000D+00  0.000000D+00  0.000000D+00
      2b  0.000000D+00  0.000000D+00  0.000000D+00  0.000000D+00  0.000000D+00
      3a  0.000000D+00  0.000000D+00  0.000000D+00  0.000000D+00  0.000000D+00
      3b  0.000000D+00  0.000000D+00  0.000000D+00  0.000000D+00  0.000000D+00
      4a  0.000000D+00  0.000000D+00  0.000000D+00  0.000000D+00  0.000000D+00
      4b  0.000000D+00  0.000000D+00  0.000000D+00  0.000000D+00  0.000000D+00
      5a  0.000000D+00  0.000000D+00  0.000000D+00  0.000000D+00  0.000000D+00
      5b  0.000000D+00  0.000000D+00  0.000000D+00  0.000000D+00  0.000000D+00
      6a  0.000000D+00  0.000000D+00  0.000000D+00  0.000000D+00  0.000000D+00
      6b  0.000000D+00  0.000000D+00  0.000000D+00  0.000000D+00  0.000000D+00
      7a  0.000000D+00  0.000000D+00  0.000000D+00  0.000000D+00  0.000000D+00
      7b  0.000000D+00  0.000000D+00  0.000000D+00  0.000000D+00  0.000000D+00
      8a  0.000000D+00  0.000000D+00  0.000000D+00  0.000000D+00  0.000000D+00
      8b  0.000000D+00  0.000000D+00  0.000000D+00  0.000000D+00  0.000000D+00
      9a  0.000000D+00  0.000000D+00  0.000000D+00  0.000000D+00  0.000000D+00
      9b  0.000000D+00  0.000000D+00  0.000000D+00  0.000000D+00  0.000000D+00
     10a  0.000000D+00  0.000000D+00  0.000000D+00  0.000000D+00  0.000000D+00
     10b  0.000000D+00  0.000000D+00  0.000000D+00  0.000000D+00  0.000000D+00
FORTRAN STOP
