 Entering Gaussian System, Link 0=gdv
 AtFile(1): H.gbs
            H     0
            S   10   1.00
               1000.000000000000            0.000068713567
                316.227766000000            0.000169141320
                100.000000000000            0.000823394812
                 31.622776600000            0.003425569236
                 10.000000000000            0.013951996000
                  3.162277660000            0.056909313560
                  1.000000000000            0.198286399900
                  0.316227766000            0.496922426700
                  0.100000000000            0.369846276400
                  0.031622776600            0.003752720039
            ****
 Initial command:
 /users/lcj1/GHF_hess/exe-dir/l1.exe "/users/lcj1/GHF_hess/h10_2rows/mixrmY/Gau-23752.inp" -scrdir="/users/lcj1/GHF_hess/h10_2rows/mixrmY/"
 Entering Link 1 = /users/lcj1/GHF_hess/exe-dir/l1.exe PID=     23753.
  
 Copyright (c) 1988,1990,1992,1993,1995,1998,2003,2009,2012,
            Gaussian, Inc.  All Rights Reserved.
  
 This is the private, development version of
 the Gaussian(R) DV system of programs. It is based on
 the Gaussian(R) 09 system (copyright 2009, Gaussian, Inc.),
 the Gaussian(R) 03 system (copyright 2003, Gaussian, Inc.),
 the Gaussian(R) 98 system (copyright 1998, Gaussian, Inc.),
 the Gaussian(R) 94 system (copyright 1995, Gaussian, Inc.),
 the Gaussian 92(TM) system (copyright 1992, Gaussian, Inc.),
 the Gaussian 90(TM) system (copyright 1990, Gaussian, Inc.),
 the Gaussian 88(TM) system (copyright 1988, Gaussian, Inc.),
 the Gaussian 86(TM) system (copyright 1986, Carnegie Mellon
 University), and the Gaussian 82(TM) system (copyright 1983,
 Carnegie Mellon University). Gaussian is a federally registered
 trademark of Gaussian, Inc.
  
 This software contains proprietary and confidential information,
 including trade secrets, belonging to Gaussian, Inc.
  
 This software is provided under written license and may be
 used, copied, transmitted, or stored only in accord with that
 written license.
  
 The following legend is applicable only to US Government
 contracts under FAR:
  
                    RESTRICTED RIGHTS LEGEND
  
 Use, reproduction and disclosure by the US Government is
 subject to restrictions as set forth in subparagraphs (a)
 and (c) of the Commercial Computer Software - Restricted
 Rights clause in FAR 52.227-19.
  
 Gaussian, Inc.
 340 Quinnipiac St., Bldg. 40, Wallingford CT 06492
  
  
 ---------------------------------------------------------------
 Warning -- This program may not be used in any manner that
 competes with the business of Gaussian, Inc. or will provide
 assistance to any competitor of Gaussian, Inc.  The licensee
 of this program is prohibited from giving any competitor of
 Gaussian, Inc. access to this program.  By using this program,
 the user acknowledges that Gaussian, Inc. is engaged in the
 business of creating and licensing software in the field of
 computational chemistry and represents and warrants to the
 licensee that it is not a competitor of Gaussian, Inc. and that
 it will not use this program in any manner prohibited above.
 ---------------------------------------------------------------
  

 Cite this work as:
 Gaussian Development Version, Revision H.21,
 M. J. Frisch, G. W. Trucks, H. B. Schlegel, G. E. Scuseria, 
 M. A. Robb, J. R. Cheeseman, G. Scalmani, V. Barone, B. Mennucci, 
 G. A. Petersson, H. Nakatsuji, M. Caricato, X. Li, H. P. Hratchian, 
 A. F. Izmaylov, J. Bloino, G. Zheng, J. L. Sonnenberg, W. Liang, 
 M. Hada, M. Ehara, K. Toyota, R. Fukuda, J. Hasegawa, M. Ishida, 
 T. Nakajima, Y. Honda, O. Kitao, H. Nakai, T. Vreven, 
 J. A. Montgomery, Jr., J. E. Peralta, F. Ogliaro, M. Bearpark, 
 J. J. Heyd, E. Brothers, K. N. Kudin, V. N. Staroverov, T. Keith, 
 R. Kobayashi, J. Normand, K. Raghavachari, A. Rendell, J. C. Burant, 
 S. S. Iyengar, J. Tomasi, M. Cossi, N. Rega, J. M. Millam, M. Klene, 
 J. E. Knox, J. B. Cross, V. Bakken, C. Adamo, J. Jaramillo, 
 R. Gomperts, R. E. Stratmann, O. Yazyev, A. J. Austin, R. Cammi, 
 C. Pomelli, J. W. Ochterski, R. L. Martin, K. Morokuma, 
 V. G. Zakrzewski, G. A. Voth, P. Salvador, J. J. Dannenberg, 
 S. Dapprich, P. V. Parandekar, N. J. Mayhall, A. D. Daniels, 
 O. Farkas, J. B. Foresman, J. V. Ortiz, J. Cioslowski, 
 and D. J. Fox, Gaussian, Inc., Wallingford CT, 2010.
 
 ******************************************
 Gaussian DV:  EM64L-GDVRevH.21 13-May-2012
                28-Feb-2017 
 ******************************************
 %chk=h10.chk
 ----------------------------------------------------------------------
 #ghf/gen scf(tight,novaracc,noincfock,fulldiag) stable guess=(read,mix
 ) geom=nocrowd use=l802 use=l902 test
 ----------------------------------------------------------------------
 ********************************************
   THE COMPLEX ERI TRANSFORMATION WITH L802  
        COMPLEX STABILITY WITH L902          
 ********************************************
 1/38=1/1;
 2/12=1,17=6,18=5,40=1/2;
 3/5=7,16=1,25=20,28=1,116=7/1,2,3,20;
 4/5=1,13=-1/1;
 5/5=100001,16=1,32=2,38=6/2;
 8/6=1,10=90,11=11/1,2;
 9/8=4,13=1/1,2;
 6/7=2,8=2,9=2,10=2,28=1/1;
 99/5=1,9=1/99;
 ----------------------------------------------------------------------
 hf stability analysis of h10 triangular lattice, y= 0.3503135618487248
 1 alpha= 12.000000000000000
 ----------------------------------------------------------------------
 Symbolic Z-Matrix:
 Charge =  0 Multiplicity = 1
 H
 H                    1     1.68492 
 H                    1     1.68492  2     156. 
 H                    2     1.68492  1     24.      3     0.       0
 H                    3     1.68492  1     180.     2     0.       0
 H                    4     1.68492  2     180.     1     0.       0
 H                    5     1.68492  3     180.     2     0.       0
 H                    6     1.68492  4     180.     1     0.       0
 H                    7     1.68492  5     180.     2     0.       0
 H                    8     1.68492  6     180.     1     0.       0
 
                          Input orientation:                          
 ---------------------------------------------------------------------
 Center     Atomic      Atomic             Coordinates (Angstroms)
 Number     Number       Type             X           Y           Z
 ---------------------------------------------------------------------
      1          1           0        0.000000    0.000000    0.000000
      2          1           0        0.000000    0.000000    1.684915
      3          1           0        0.685317    0.000000   -1.539247
      4          1           0        0.685317    0.000000    0.145669
      5          1           0        1.370633    0.000000   -3.078493
      6          1           0        1.370633    0.000000   -1.393578
      7          1           0        2.055950    0.000000   -4.617740
      8          1           0        2.055950    0.000000   -2.932825
      9          1           0        2.741267    0.000000   -6.156986
     10          1           0        2.741267    0.000000   -4.472071
 ---------------------------------------------------------------------
                    Distance matrix (angstroms):
                    1          2          3          4          5
     1  H    0.000000
     2  H    1.684915   0.000000
     3  H    1.684915   3.296191   0.000000
     4  H    0.700627   1.684915   1.684915   0.000000
     5  H    3.369830   4.956682   1.684915   3.296191   0.000000
     6  H    1.954660   3.369830   0.700627   1.684915   1.684915
     7  H    5.054745   6.629509   3.369830   4.956682   1.684915
     8  H    3.581674   5.054745   1.954660   3.369830   0.700627
     9  H    6.739660   8.307223   5.054745   6.629509   3.369830
    10  H    5.245375   6.739660   3.581674   5.054745   1.954660
                    6          7          8          9         10
     6  H    0.000000
     7  H    3.296191   0.000000
     8  H    1.684915   1.684915   0.000000
     9  H    4.956682   1.684915   3.296191   0.000000
    10  H    3.369830   0.700627   1.684915   1.684915   0.000000
 Stoichiometry    H10
 Framework group  C2H[SGH(H10)]
 Deg. of freedom     9
 Full point group                 C2H     NOp   4
 Largest Abelian subgroup         C2H     NOp   4
 Largest concise Abelian subgroup C2      NOp   2
                         Standard orientation:                         
 ---------------------------------------------------------------------
 Center     Atomic      Atomic             Coordinates (Angstroms)
 Number     Number       Type             X           Y           Z
 ---------------------------------------------------------------------
      1          1           0        1.370633   -2.236036    0.000000
      2          1           0        1.370633   -3.920951    0.000000
      3          1           0        0.685317   -0.696789    0.000000
      4          1           0        0.685317   -2.381704    0.000000
      5          1           0        0.000000    0.842458    0.000000
      6          1           0        0.000000   -0.842458    0.000000
      7          1           0       -0.685317    2.381704    0.000000
      8          1           0       -0.685317    0.696789    0.000000
      9          1           0       -1.370633    3.920951    0.000000
     10          1           0       -1.370633    2.236036    0.000000
 ---------------------------------------------------------------------
 Rotational constants (GHZ):    472.4821018      7.9830718      7.8504306
 General basis read from cards:  (5D, 7F)
 There are     5 symmetry adapted cartesian basis functions of AG  symmetry.
 There are     0 symmetry adapted cartesian basis functions of BG  symmetry.
 There are     0 symmetry adapted cartesian basis functions of AU  symmetry.
 There are     5 symmetry adapted cartesian basis functions of BU  symmetry.
 There are     5 symmetry adapted basis functions of AG  symmetry.
 There are     0 symmetry adapted basis functions of BG  symmetry.
 There are     0 symmetry adapted basis functions of AU  symmetry.
 There are     5 symmetry adapted basis functions of BU  symmetry.
    10 basis functions,   100 primitive gaussians,    10 cartesian basis functions
     5 alpha electrons        5 beta electrons
       nuclear repulsion energy        11.0163819803 Hartrees.
 NAtoms=   10 NActive=   10 NUniq=    5 SFac= 4.00D+00 NAtFMM=   60 NAOKFM=F Big=F
 Integral buffers will be    131072 words long.
 Regular integral format.
 Two-electron integral symmetry is turned off.
 One-electron integrals computed using PRISM.
 NBasis=    10 RedAO= T EigKep=  1.61D-01  NBF=     5     0     0     5
 NBsUse=    10 1.00D-06 EigRej= -1.00D+00 NBFU=     5     0     0     5
 IOp(28)                       1
                        1                       0
                        2                       1
                        3                       1
                        4                      20
                        5                       0
                        6                       0
                        7                      10
                        8                       1
                        9                       4
                       10                       0
                       11              1073741824
                       12                      20
                       13                       2
                       14                  131070
                       15                       1
                       16                       1
                       17                  131073
                       18                       0
                       19                       0
                       20                       0
                       21                       2
                       22                  131070
                       23                       0
                       24                       0
                       25                       0
                       26                       0
                       27                   65535
                       28                       2
                       29                  131072
                       30                       0
 IHMeth                       1
 ib3: ISMode =                        0                       4
 Enter DskPsm, NBasis=  10 NBas6D=  10 NShell=  10 IDoSP=4.
 Out2e will use a cutoff of  1.00D-10
 FoFCou: FMM=F IPFlag=           0 FMFlag=           0 FMFlg1=           0
         NFxFlg=           0 DoJE=F BraDBF=F KetDBF=F FulRan=T
         wScrn=  0.000000 ICntrl=     600 IOpCl=  9 I1Cent=           0 NGrid=           0
         NMat0=    0 NMatS0=      0 NMatT0=    0 NMatD0=    0 NMtDS0=    0 NMtDT0=    0
 Symmetry not used in FoFCou.
 Entering PrmDigJobTyp =                      20
 LenSav and NKeep                       0                       0
 Entered Stor2E with KNTT1,2                       2                  131070
 Leave Stor2X
 Entering PrmDigJobTyp =                      20
 LenSav and NKeep                       0                       0
 Entered Stor2E with KNTT1,2                       2                  131056
 Leave Stor2X
 Entering PrmDigJobTyp =                      20
 LenSav and NKeep                       0                       0
 Entered Stor2E with KNTT1,2                       2                  131042
 Leave Stor2X
 Entering PrmDigJobTyp =                      20
 LenSav and NKeep                       0                       0
 Entered Stor2E with KNTT1,2                       2                  131028
 Leave Stor2X
 Entering PrmDigJobTyp =                      20
 LenSav and NKeep                       0                       0
 Entered Stor2E with KNTT1,2                       2                  131014
 Leave Stor2X
 Entering PrmDigJobTyp =                      20
 LenSav and NKeep                       0                       0
 Entered Stor2E with KNTT1,2                       2                  131000
 Leave Stor2X
 Entering PrmDigJobTyp =                      20
 LenSav and NKeep                       0                       0
 Entered Stor2E with KNTT1,2                       2                  130986
 Leave Stor2X
 Entering PrmDigJobTyp =                      20
 LenSav and NKeep                       0                       0
 Entered Stor2E with KNTT1,2                       2                  130972
 Leave Stor2X
 Entering PrmDigJobTyp =                      20
 LenSav and NKeep                       0                       0
 Entered Stor2E with KNTT1,2                       2                  130960
 Leave Stor2X
 Entering PrmDigJobTyp =                      20
 LenSav and NKeep                       0                       0
 Entered Stor2E with KNTT1,2                       2                  130944
 Leave Stor2X
 Entering PrmDigJobTyp =                      20
 LenSav and NKeep                       0                       0
 Entered Stor2E with KNTT1,2                       2                  130928
 Leave Stor2X
 Entering PrmDigJobTyp =                      20
 LenSav and NKeep                       0                       0
 Entered Stor2E with KNTT1,2                       2                  130912
 Leave Stor2X
 Entering PrmDigJobTyp =                      20
 LenSav and NKeep                       0                       0
 Entered Stor2E with KNTT1,2                       2                  130896
 Leave Stor2X
 Entering PrmDigJobTyp =                      20
 LenSav and NKeep                       0                       0
 Entered Stor2E with KNTT1,2                       2                  130880
 Leave Stor2X
 Entering PrmDigJobTyp =                      20
 LenSav and NKeep                       0                       0
 Entered Stor2E with KNTT1,2                       2                  130864
 Leave Stor2X
 Entering PrmDigJobTyp =                      20
 LenSav and NKeep                       0                       0
 Entered Stor2E with KNTT1,2                       2                  130848
 Leave Stor2X
 Entering PrmDigJobTyp =                      20
 LenSav and NKeep                       0                       0
 Entered Stor2E with KNTT1,2                       2                  130832
 Leave Stor2X
 Entering PrmDigJobTyp =                      20
 LenSav and NKeep                       0                       0
 Entered Stor2E with KNTT1,2                       2                  130816
 Leave Stor2X
 Entering PrmDigJobTyp =                      20
 LenSav and NKeep                       0                       0
 Entered Stor2E with KNTT1,2                       2                  130800
 Leave Stor2X
 Entering PrmDigJobTyp =                      20
 LenSav and NKeep                       0                       0
 Entered Stor2E with KNTT1,2                       2                  130784
 Leave Stor2X
 Entering PrmDigJobTyp =                      20
 LenSav and NKeep                       0                       0
 Entered Stor2E with KNTT1,2                       2                  130768
 Leave Stor2X
 Entering PrmDigJobTyp =                      20
 LenSav and NKeep                       0                       0
 Entered Stor2E with KNTT1,2                       2                  130752
 Leave Stor2X
 Entering PrmDigJobTyp =                      20
 LenSav and NKeep                       0                       0
 Entered Stor2E with KNTT1,2                       2                  130736
 Leave Stor2X
 Entering PrmDigJobTyp =                      20
 LenSav and NKeep                       0                       0
 Entered Stor2E with KNTT1,2                       2                  130720
 Leave Stor2X
 Entering PrmDigJobTyp =                      20
 LenSav and NKeep                       0                       0
 Entered Stor2E with KNTT1,2                       2                  130704
 Leave Stor2X
 Entering PrmDigJobTyp =                      20
 LenSav and NKeep                       0                       0
 Entered Stor2E with KNTT1,2                       2                  130700
 Leave Stor2X
 Entering PrmDigJobTyp =                      20
 LenSav and NKeep                       0                       0
 Entered Stor2E with KNTT1,2                       8                  130682
 Leave Stor2X
 Entering PrmDigJobTyp =                      20
 LenSav and NKeep                       0                       0
 Entered Stor2E with KNTT1,2                      22                  130672
 Leave Stor2X
 Entering PrmDigJobTyp =                      20
 LenSav and NKeep                       0                       0
 Entered Stor2E with KNTT1,2                      34                  130660
 Leave Stor2X
 Entering PrmDigJobTyp =                      20
 LenSav and NKeep                       0                       0
 Entered Stor2E with KNTT1,2                      52                  130654
 Leave Stor2X
 Entering PrmDigJobTyp =                      20
 LenSav and NKeep                       0                       0
 Entered Stor2E with KNTT1,2                      70                  130648
 Leave Stor2X
 Entering PrmDigJobTyp =                      20
 LenSav and NKeep                       0                       0
 Entered Stor2E with KNTT1,2                      88                  130642
 Leave Stor2X
 Entering PrmDigJobTyp =                      20
 LenSav and NKeep                       0                       0
 Entered Stor2E with KNTT1,2                     106                  130636
 Leave Stor2X
 Entering PrmDigJobTyp =                      20
 LenSav and NKeep                       0                       0
 Entered Stor2E with KNTT1,2                     114                  130630
 Leave Stor2X
 Entering PrmDigJobTyp =                      20
 LenSav and NKeep                       0                       0
 Entered Stor2E with KNTT1,2                     114                  130608
 Leave Stor2X
 Entering PrmDigJobTyp =                      20
 LenSav and NKeep                       0                       0
 Entered Stor2E with KNTT1,2                     114                  130586
 Leave Stor2X
 Entering PrmDigJobTyp =                      20
 LenSav and NKeep                       0                       0
 Entered Stor2E with KNTT1,2                     114                  130564
 Leave Stor2X
 Entering PrmDigJobTyp =                      20
 LenSav and NKeep                       0                       0
 Entered Stor2E with KNTT1,2                     114                  130542
 Leave Stor2X
 Entering PrmDigJobTyp =                      20
 LenSav and NKeep                       0                       0
 Entered Stor2E with KNTT1,2                     114                  130520
 Leave Stor2X
 Entering PrmDigJobTyp =                      20
 LenSav and NKeep                       0                       0
 Entered Stor2E with KNTT1,2                     114                  130498
 Leave Stor2X
 Entering PrmDigJobTyp =                      20
 LenSav and NKeep                       0                       0
 Entered Stor2E with KNTT1,2                     114                  130476
 Leave Stor2X
 Entering PrmDigJobTyp =                      20
 LenSav and NKeep                       0                       0
 Entered Stor2E with KNTT1,2                     114                  130454
 Leave Stor2X
 Entering PrmDigJobTyp =                      20
 LenSav and NKeep                       0                       0
 Entered Stor2E with KNTT1,2                     114                  130432
 Leave Stor2X
 Entering PrmDigJobTyp =                      20
 LenSav and NKeep                       0                       0
 Entered Stor2E with KNTT1,2                     114                  130410
 Leave Stor2X
 Entering PrmDigJobTyp =                      20
 LenSav and NKeep                       0                       0
 Entered Stor2E with KNTT1,2                     114                  130390
 Leave Stor2X
 Entering PrmDigJobTyp =                      20
 LenSav and NKeep                       0                       0
 Entered Stor2E with KNTT1,2                     132                  130376
 Leave Stor2X
 Entering PrmDigJobTyp =                      20
 LenSav and NKeep                       0                       0
 Entered Stor2E with KNTT1,2                     150                  130362
 Leave Stor2X
 Entering PrmDigJobTyp =                      20
 LenSav and NKeep                       0                       0
 Entered Stor2E with KNTT1,2                     168                  130348
 Leave Stor2X
 Entering PrmDigJobTyp =                      20
 LenSav and NKeep                       0                       0
 Entered Stor2E with KNTT1,2                     188                  130336
 Leave Stor2X
 Entering PrmDigJobTyp =                      20
 LenSav and NKeep                       0                       0
 Entered Stor2E with KNTT1,2                     204                  130320
 Leave Stor2X
 Entering PrmDigJobTyp =                      20
 LenSav and NKeep                       0                       0
 Entered Stor2E with KNTT1,2                     226                  130310
 Leave Stor2X
 Entering PrmDigJobTyp =                      20
 LenSav and NKeep                       0                       0
 Entered Stor2E with KNTT1,2                     244                  130296
 Leave Stor2X
 Entering PrmDigJobTyp =                      20
 LenSav and NKeep                       0                       0
 Entered Stor2E with KNTT1,2                     266                  130286
 Leave Stor2X
 Entering PrmDigJobTyp =                      20
 LenSav and NKeep                       0                       0
 Entered Stor2E with KNTT1,2                     284                  130272
 Leave Stor2X
 Entering PrmDigJobTyp =                      20
 LenSav and NKeep                       0                       0
 Entered Stor2E with KNTT1,2                     298                  130262
 Leave Stor2X
 Entering PrmDigJobTyp =                      20
 LenSav and NKeep                       0                       0
 Entered Stor2E with KNTT1,2                     318                  130240
 Leave Stor2X
 Entering PrmDigJobTyp =                      20
 LenSav and NKeep                       0                       0
 Entered Stor2E with KNTT1,2                     346                  130226
 Leave Stor2X
 Entering PrmDigJobTyp =                      20
 LenSav and NKeep                       0                       0
 Entered Stor2E with KNTT1,2                     374                  130212
 Leave Stor2X
 Entering PrmDigJobTyp =                      20
 LenSav and NKeep                       0                       0
 Entered Stor2E with KNTT1,2                     394                  130202
 Leave Stor2X
 Entering PrmDigJobTyp =                      20
 LenSav and NKeep                       0                       0
 Entered Stor2E with KNTT1,2                     394                  130188
 Leave Stor2X
 Entering PrmDigJobTyp =                      20
 LenSav and NKeep                       0                       0
 Entered Stor2E with KNTT1,2                     394                  130174
 Leave Stor2X
 Entering PrmDigJobTyp =                      20
 LenSav and NKeep                       0                       0
 Entered Stor2E with KNTT1,2                     394                  130160
 Leave Stor2X
 Entering PrmDigJobTyp =                      20
 LenSav and NKeep                       0                       0
 Entered Stor2E with KNTT1,2                     394                  130146
 Leave Stor2X
 Entering PrmDigJobTyp =                      20
 LenSav and NKeep                       0                       0
 Entered Stor2E with KNTT1,2                     394                  130132
 Leave Stor2X
 Entering PrmDigJobTyp =                      20
 LenSav and NKeep                       0                       0
 Entered Stor2E with KNTT1,2                     394                  130122
 Leave Stor2X
 Entering PrmDigJobTyp =                      20
 LenSav and NKeep                       0                       0
 Entered Stor2E with KNTT1,2                     404                  130112
 Leave Stor2X
 Entering PrmDigJobTyp =                      20
 LenSav and NKeep                       0                       0
 Entered Stor2E with KNTT1,2                     414                  130102
 Leave Stor2X
 Entering PrmDigJobTyp =                      20
 LenSav and NKeep                       0                       0
 Entered Stor2E with KNTT1,2                     432                  130100
 Leave Stor2X
 Entering PrmDigJobTyp =                      20
 LenSav and NKeep                       0                       0
 Entered Stor2E with KNTT1,2                     440                  130088
 Leave Stor2X
 Entering PrmDigJobTyp =                      20
 LenSav and NKeep                       0                       0
 Entered Stor2E with KNTT1,2                     454                  130082
 Leave Stor2X
 Entering PrmDigJobTyp =                      20
 LenSav and NKeep                       0                       0
 Entered Stor2E with KNTT1,2                     454                  130078
 Leave Stor2X
 Entering PrmDigJobTyp =                      20
 LenSav and NKeep                       0                       0
 Entered Stor2E with KNTT1,2                     470                  130068
 Leave Stor2X
 Entering PrmDigJobTyp =                      20
 LenSav and NKeep                       0                       0
 Entered Stor2E with KNTT1,2                     484                  130056
 Leave Stor2X
 Entering PrmDigJobTyp =                      20
 LenSav and NKeep                       0                       0
 Entered Stor2E with KNTT1,2                     500                  130046
 Leave Stor2X
 Entering PrmDigJobTyp =                      20
 LenSav and NKeep                       0                       0
 Entered Stor2E with KNTT1,2                     510                  130038
 Leave Stor2X
 Entering PrmDigJobTyp =                      20
 LenSav and NKeep                       0                       0
 Entered Stor2E with KNTT1,2                     520                  130032
 Leave Stor2X
 Entering PrmDigJobTyp =                      20
 LenSav and NKeep                       0                       0
 Entered Stor2E with KNTT1,2                     522                  130030
 Leave Stor2X
 Entering PrmDigJobTyp =                      20
 LenSav and NKeep                       0                       0
 Entered Stor2E with KNTT1,2                     522                  130002
 Leave Stor2X
 Entering PrmDigJobTyp =                      20
 LenSav and NKeep                       0                       0
 Entered Stor2E with KNTT1,2                     522                  129974
 Leave Stor2X
 Entering PrmDigJobTyp =                      20
 LenSav and NKeep                       0                       0
 Entered Stor2E with KNTT1,2                     522                  129946
 Leave Stor2X
 Entering PrmDigJobTyp =                      20
 LenSav and NKeep                       0                       0
 Entered Stor2E with KNTT1,2                     522                  129918
 Leave Stor2X
 Entering PrmDigJobTyp =                      20
 LenSav and NKeep                       0                       0
 Entered Stor2E with KNTT1,2                     522                  129890
 Leave Stor2X
 Entering PrmDigJobTyp =                      20
 LenSav and NKeep                       0                       0
 Entered Stor2E with KNTT1,2                     548                  129874
 Leave Stor2X
 Entering PrmDigJobTyp =                      20
 LenSav and NKeep                       0                       0
 Entered Stor2E with KNTT1,2                     570                  129854
 Leave Stor2X
 Entering PrmDigJobTyp =                      20
 LenSav and NKeep                       0                       0
 Entered Stor2E with KNTT1,2                     598                  129840
 Leave Stor2X
 Entering PrmDigJobTyp =                      20
 LenSav and NKeep                       0                       0
 Entered Stor2E with KNTT1,2                     622                  129822
 Leave Stor2X
 Entering PrmDigJobTyp =                      20
 LenSav and NKeep                       0                       0
 Entered Stor2E with KNTT1,2                     632                  129818
 Leave Stor2X
 Entering PrmDigJobTyp =                      20
 LenSav and NKeep                       0                       0
 Entered Stor2E with KNTT1,2                     666                  129798
 Leave Stor2X
 Entering PrmDigJobTyp =                      20
 LenSav and NKeep                       0                       0
 Entered Stor2E with KNTT1,2                     700                  129778
 Leave Stor2X
 Entering PrmDigJobTyp =                      20
 LenSav and NKeep                       0                       0
 Entered Stor2E with KNTT1,2                     734                  129758
 Leave Stor2X
 Entering PrmDigJobTyp =                      20
 LenSav and NKeep                       0                       0
 Entered Stor2E with KNTT1,2                     736                  129754
 Leave Stor2X
 Entering PrmDigJobTyp =                      20
 LenSav and NKeep                       0                       0
 Entered Stor2E with KNTT1,2                     756                  129742
 Leave Stor2X
 Entering PrmDigJobTyp =                      20
 LenSav and NKeep                       0                       0
 Entered Stor2E with KNTT1,2                     772                  129734
 Leave Stor2X
 Entering PrmDigJobTyp =                      20
 LenSav and NKeep                       0                       0
 Entered Stor2E with KNTT1,2                     806                  129712
 Leave Stor2X
 Entering PrmDigJobTyp =                      20
 LenSav and NKeep                       0                       0
 Entered Stor2E with KNTT1,2                     806                  129696
 Leave Stor2X
 Entering PrmDigJobTyp =                      20
 LenSav and NKeep                       0                       0
 Entered Stor2E with KNTT1,2                     806                  129680
 Leave Stor2X
 Entering PrmDigJobTyp =                      20
 LenSav and NKeep                       0                       0
 Entered Stor2E with KNTT1,2                     806                  129664
 Leave Stor2X
 Entering PrmDigJobTyp =                      20
 LenSav and NKeep                       0                       0
 Entered Stor2E with KNTT1,2                     806                  129652
 Leave Stor2X
 Entering PrmDigJobTyp =                      20
 LenSav and NKeep                       0                       0
 Entered Stor2E with KNTT1,2                     822                  129642
 Leave Stor2X
 Entering PrmDigJobTyp =                      20
 LenSav and NKeep                       0                       0
 Entered Stor2E with KNTT1,2                     836                  129630
 Leave Stor2X
 Entering PrmDigJobTyp =                      20
 LenSav and NKeep                       0                       0
 Entered Stor2E with KNTT1,2                     852                  129620
 Leave Stor2X
 Entering PrmDigJobTyp =                      20
 LenSav and NKeep                       0                       0
 Entered Stor2E with KNTT1,2                     872                  129606
 Leave Stor2X
 Entering PrmDigJobTyp =                      20
 LenSav and NKeep                       0                       0
 Entered Stor2E with KNTT1,2                     892                  129592
 Leave Stor2X
 Entering PrmDigJobTyp =                      20
 LenSav and NKeep                       0                       0
 Entered Stor2E with KNTT1,2                     892                  129588
 Leave Stor2X
 Entering PrmDigJobTyp =                      20
 LenSav and NKeep                       0                       0
 Entered Stor2E with KNTT1,2                     904                  129580
 Leave Stor2X
 Entering PrmDigJobTyp =                      20
 LenSav and NKeep                       0                       0
 Entered Stor2E with KNTT1,2                     904                  129576
 Leave Stor2X
 Entering PrmDigJobTyp =                      20
 LenSav and NKeep                       0                       0
 Entered Stor2E with KNTT1,2                     934                  129564
 Leave Stor2X
 Entering PrmDigJobTyp =                      20
 LenSav and NKeep                       0                       0
 Entered Stor2E with KNTT1,2                     940                  129558
 Leave Stor2X
 Entering PrmDigJobTyp =                      20
 LenSav and NKeep                       0                       0
 Entered Stor2E with KNTT1,2                     940                  129528
 Leave Stor2X
 Entering PrmDigJobTyp =                      20
 LenSav and NKeep                       0                       0
 Entered Stor2E with KNTT1,2                     940                  129498
 Leave Stor2X
 Entering PrmDigJobTyp =                      20
 LenSav and NKeep                       0                       0
 Entered Stor2E with KNTT1,2                     940                  129478
 Leave Stor2X
 Entering PrmDigJobTyp =                      20
 LenSav and NKeep                       0                       0
 Entered Stor2E with KNTT1,2                     972                  129464
 Leave Stor2X
 Entering PrmDigJobTyp =                      20
 LenSav and NKeep                       0                       0
 Entered Stor2E with KNTT1,2                    1000                  129446
 Leave Stor2X
 Entering PrmDigJobTyp =                      20
 LenSav and NKeep                       0                       0
 Entered Stor2E with KNTT1,2                    1008                  129442
 Leave Stor2X
 Entering PrmDigJobTyp =                      20
 LenSav and NKeep                       0                       0
 Entered Stor2E with KNTT1,2                    1050                  129424
 Leave Stor2X
 Entering PrmDigJobTyp =                      20
 LenSav and NKeep                       0                       0
 Entered Stor2E with KNTT1,2                    1072                  129410
 Leave Stor2X
 Entering PrmDigJobTyp =                      20
 LenSav and NKeep                       0                       0
 Entered Stor2E with KNTT1,2                    1096                  129402
 Leave Stor2X
 Entering PrmDigJobTyp =                      20
 LenSav and NKeep                       0                       0
 Entered Stor2E with KNTT1,2                    1124                  129374
 Leave Stor2X
 Entering PrmDigJobTyp =                      20
 LenSav and NKeep                       0                       0
 Entered Stor2E with KNTT1,2                    1144                  129370
 Leave Stor2X
 Entering PrmDigJobTyp =                      20
 LenSav and NKeep                       0                       0
 Entered Stor2E with KNTT1,2                    1152                  129358
 Leave Stor2X
 Entering PrmDigJobTyp =                      20
 LenSav and NKeep                       0                       0
 Entered Stor2E with KNTT1,2                    1152                  129338
 Leave Stor2X
 Entering PrmDigJobTyp =                      20
 LenSav and NKeep                       0                       0
 Entered Stor2E with KNTT1,2                    1170                  129330
 Leave Stor2X
 Entering PrmDigJobTyp =                      20
 LenSav and NKeep                       0                       0
 Entered Stor2E with KNTT1,2                    1186                  129322
 Leave Stor2X
 Entering PrmDigJobTyp =                      20
 LenSav and NKeep                       0                       0
 Entered Stor2E with KNTT1,2                    1194                  129322
 Leave Stor2X
 Entering PrmDigJobTyp =                      20
 LenSav and NKeep                       0                       0
 Entered Stor2E with KNTT1,2                    1200                  129314
 Leave Stor2X
 Entering PrmDigJobTyp =                      20
 LenSav and NKeep                       0                       0
 Entered Stor2E with KNTT1,2                    1206                  129314
 Leave Stor2X
 Entering PrmDigJobTyp =                      20
 LenSav and NKeep                       0                       0
 Entered Stor2E with KNTT1,2                    1206                  129306
 Leave Stor2X
 Entering PrmDigJobTyp =                      20
 LenSav and NKeep                       0                       0
 Entered Stor2E with KNTT1,2                    1206                  129306
 Leave Stor2X
 Entering PrmDigJobTyp =                      20
 LenSav and NKeep                       0                       0
 Entered Stor2E with KNTT1,2                    1206                  129286
 Leave Stor2X
 Entering PrmDigJobTyp =                      20
 LenSav and NKeep                       0                       0
 Entered Stor2E with KNTT1,2                    1224                  129278
 Leave Stor2X
 Entering PrmDigJobTyp =                      20
 LenSav and NKeep                       0                       0
 Entered Stor2E with KNTT1,2                    1240                  129270
 Leave Stor2X
 Entering PrmDigJobTyp =                      20
 LenSav and NKeep                       0                       0
 Entered Stor2E with KNTT1,2                    1244                  129266
 Leave Stor2X
 Entering PrmDigJobTyp =                      20
 LenSav and NKeep                       0                       0
 Entered Stor2E with KNTT1,2                    1254                  129262
 Leave Stor2X
 Entering PrmDigJobTyp =                      20
 LenSav and NKeep                       0                       0
 Entered Stor2E with KNTT1,2                    1256                  129258
 Leave Stor2X
 Entering PrmDigJobTyp =                      20
 LenSav and NKeep                       0                       0
 Entered Stor2E with KNTT1,2                    1260                  129254
 Leave Stor2X
 Entering PrmDigJobTyp =                      20
 LenSav and NKeep                       0                       0
 Entered Stor2E with KNTT1,2                    1262                  129254
 Leave Stor2X
 In PrSumR
 Called IWRITE
         1539 integrals produced for a total of         1539.
 Initial guess from the checkpoint file:  "h10.chk"
 B after Tr=     0.000000    0.000000    0.000000
         Rot=    0.569296    0.000000    0.000000    0.822132 Ang= 110.60 deg.
 Mixing orbitals, IMix= 1 IMixAn=  0 NRI=2 NE=   10 Coef=  7.07106781D-01  7.07106781D-01
 Also mixing orbitals    10 and    12 Coef=  7.07106781D-01  7.07106781D-01
 Initial guess <Sx>= 0.0000 <Sy>= 0.0000 <Sz>= 0.0000 <S**2>= 0.5000 S= 0.3660
 Two-electron integrals will be kept in memory, NGetB=      152788.
 Requested convergence on RMS density matrix=1.00D-08 within 128 cycles.
 Requested convergence on MAX density matrix=1.00D-06.
 Requested convergence on             energy=1.00D-06.
 No special actions if energy rises.
 Density File Not Found. Continue as usual
 SCF Done:  E(GHF) =  -5.19536408557     A.U. after   15 cycles
            NFock= 15  Conv=0.67D-08     -V/T= 2.0179
 <Sx>= 0.0000 <Sy>= 0.0000 <Sz>= 0.0000 <S**2>= 1.0000 S= 0.6180
 <L.S>= 0.000000000000E+00
 Range of M.O.s used for correlation:     1    10
 NBasis=    10 NAE=    10 NBE=     0 NFC=     0 NFV=     0
 NROrb=     20 NOA=    10 NOB=     0 NVA=    10 NVB=     0
 jaja DoHack is true or false? T
 jaja in hckghf.F, NBasis=                      10
 jaja in hckGHF/FixOG, LC =                      800
 jaja in hckGHF/FixOG, IRwC=                      548
 bfr conversion (real):
                 1             2             3             4             5 
      1a  0.119442D+00  0.000000D+00 -0.255476D+00  0.000000D+00  0.000000D+00
      1b  0.000000D+00  0.191589D+00  0.000000D+00  0.299612D+00  0.286042D+00
      2a -0.429078D-02  0.000000D+00  0.457012D-02  0.000000D+00  0.000000D+00
      2b  0.000000D+00  0.529062D-01  0.000000D+00  0.120129D+00  0.232677D+00
      3a  0.233581D+00  0.000000D+00 -0.238708D+00  0.000000D+00  0.000000D+00
      3b  0.000000D+00  0.262258D+00  0.000000D+00  0.111558D+00 -0.296438D+00
      4a  0.127393D+00  0.000000D+00 -0.268419D+00  0.000000D+00  0.000000D+00
      4b  0.000000D+00  0.199696D+00  0.000000D+00  0.307359D+00  0.280958D+00
      5a  0.263180D+00  0.000000D+00  0.100491D+00  0.000000D+00  0.000000D+00
      5b  0.000000D+00  0.233980D+00  0.000000D+00 -0.230384D+00 -0.141315D+00
      6a  0.233980D+00  0.000000D+00 -0.230384D+00  0.000000D+00  0.000000D+00
      6b  0.000000D+00  0.263180D+00  0.000000D+00  0.100491D+00 -0.310888D+00
      7a  0.199696D+00  0.000000D+00  0.307359D+00  0.000000D+00  0.000000D+00
      7b  0.000000D+00  0.127393D+00  0.000000D+00 -0.268419D+00  0.359461D+00
      8a  0.262258D+00  0.000000D+00  0.111558D+00  0.000000D+00  0.000000D+00
      8b  0.000000D+00  0.233581D+00  0.000000D+00 -0.238708D+00 -0.122557D+00
      9a  0.529062D-01  0.000000D+00  0.120129D+00  0.000000D+00  0.000000D+00
      9b  0.000000D+00 -0.429078D-02  0.000000D+00  0.457012D-02  0.593758D-02
     10a  0.191589D+00  0.000000D+00  0.299612D+00  0.000000D+00  0.000000D+00
     10b  0.000000D+00  0.119442D+00  0.000000D+00 -0.255476D+00  0.354032D+00
                 6             7             8             9            10 
      1a  0.354032D+00  0.000000D+00 -0.323635D+00  0.694685D-01  0.000000D+00
      1b  0.000000D+00  0.927538D-01  0.000000D+00  0.000000D+00 -0.384672D+00
      2a  0.593758D-02  0.000000D+00 -0.225215D-01  0.944913D-02  0.000000D+00
      2b  0.000000D+00  0.375381D+00  0.000000D+00  0.000000D+00  0.959156D+00
      3a -0.122557D+00  0.000000D+00  0.460838D+00 -0.149043D+00  0.000000D+00
      3b  0.000000D+00 -0.369475D+00  0.000000D+00  0.000000D+00  0.230164D+00
      4a  0.359461D+00  0.000000D+00 -0.308489D+00  0.606780D-01  0.000000D+00
      4b  0.000000D+00  0.765254D-01  0.000000D+00  0.000000D+00 -0.368626D+00
      5a -0.310888D+00  0.000000D+00 -0.352739D+00  0.251499D+00  0.000000D+00
      5b  0.000000D+00  0.455752D+00  0.000000D+00  0.000000D+00 -0.136071D+00
      6a -0.141315D+00  0.000000D+00  0.455752D+00 -0.136071D+00  0.000000D+00
      6b  0.000000D+00 -0.352739D+00  0.000000D+00  0.000000D+00  0.251499D+00
      7a  0.280958D+00  0.000000D+00  0.765254D-01 -0.368626D+00  0.000000D+00
      7b  0.000000D+00 -0.308489D+00  0.000000D+00  0.000000D+00  0.606780D-01
      8a -0.296438D+00  0.000000D+00 -0.369475D+00  0.230164D+00  0.000000D+00
      8b  0.000000D+00  0.460838D+00  0.000000D+00  0.000000D+00 -0.149043D+00
      9a  0.232677D+00  0.000000D+00  0.375381D+00  0.959156D+00  0.000000D+00
      9b  0.000000D+00 -0.225215D-01  0.000000D+00  0.000000D+00  0.944913D-02
     10a  0.286042D+00  0.000000D+00  0.927538D-01 -0.384672D+00  0.000000D+00
     10b  0.000000D+00 -0.323635D+00  0.000000D+00  0.000000D+00  0.694685D-01
                11            12            13            14            15 
      1a -0.240187D+00  0.000000D+00  0.000000D+00 -0.452956D+00  0.000000D+00
      1b  0.000000D+00  0.139058D-01  0.497375D+00  0.000000D+00 -0.854350D+00
      2a  0.106157D+01  0.000000D+00  0.000000D+00 -0.568835D-01  0.000000D+00
      2b  0.000000D+00 -0.291276D-02  0.163341D-01  0.000000D+00 -0.150138D-01
      3a -0.262499D-02  0.000000D+00  0.000000D+00 -0.759997D+00  0.000000D+00
      3b  0.000000D+00 -0.121494D-01  0.778750D+00  0.000000D+00 -0.510115D+00
      4a -0.178683D+00  0.000000D+00  0.000000D+00  0.515866D+00  0.000000D+00
      4b  0.000000D+00 -0.339225D-02 -0.548619D+00  0.000000D+00  0.905888D+00
      5a -0.264140D-01  0.000000D+00  0.000000D+00 -0.778649D+00  0.000000D+00
      5b  0.000000D+00  0.125571D+00  0.761074D+00  0.000000D+00  0.492852D+00
      6a  0.125571D+00  0.000000D+00  0.000000D+00  0.761074D+00  0.000000D+00
      6b  0.000000D+00 -0.264140D-01 -0.778649D+00  0.000000D+00  0.436953D+00
      7a -0.339225D-02  0.000000D+00  0.000000D+00 -0.548619D+00  0.000000D+00
      7b  0.000000D+00 -0.178683D+00  0.515866D+00  0.000000D+00  0.894474D+00
      8a -0.121494D-01  0.000000D+00  0.000000D+00  0.778750D+00  0.000000D+00
      8b  0.000000D+00 -0.262499D-02 -0.759997D+00  0.000000D+00 -0.562697D+00
      9a -0.291276D-02  0.000000D+00  0.000000D+00  0.163341D-01  0.000000D+00
      9b  0.000000D+00  0.106157D+01 -0.568835D-01  0.000000D+00 -0.367613D-01
     10a  0.139058D-01  0.000000D+00  0.000000D+00  0.497375D+00  0.000000D+00
     10b  0.000000D+00 -0.240187D+00 -0.452956D+00  0.000000D+00 -0.834871D+00
                16            17            18            19            20 
      1a -0.834871D+00  0.000000D+00  0.955933D+00  0.000000D+00 -0.672888D+00
      1b  0.000000D+00 -0.941853D+00  0.000000D+00 -0.641442D+00  0.000000D+00
      2a -0.367613D-01  0.000000D+00 -0.440836D-02  0.000000D+00  0.292372D-01
      2b  0.000000D+00  0.255394D-02  0.000000D+00  0.172825D-01  0.000000D+00
      3a -0.562697D+00  0.000000D+00 -0.537461D+00  0.000000D+00  0.110194D+01
      3b  0.000000D+00  0.589489D+00  0.000000D+00  0.108886D+01  0.000000D+00
      4a  0.894474D+00  0.000000D+00 -0.951827D+00  0.000000D+00  0.604008D+00
      4b  0.000000D+00  0.935816D+00  0.000000D+00  0.576942D+00  0.000000D+00
      5a  0.436953D+00  0.000000D+00 -0.694128D+00  0.000000D+00 -0.105626D+01
      5b  0.000000D+00  0.645877D+00  0.000000D+00 -0.107239D+01  0.000000D+00
      6a  0.492852D+00  0.000000D+00  0.645877D+00  0.000000D+00 -0.107239D+01
      6b  0.000000D+00 -0.694128D+00  0.000000D+00 -0.105626D+01  0.000000D+00
      7a  0.905888D+00  0.000000D+00  0.935816D+00  0.000000D+00  0.576942D+00
      7b  0.000000D+00 -0.951827D+00  0.000000D+00  0.604008D+00  0.000000D+00
      8a -0.510115D+00  0.000000D+00  0.589489D+00  0.000000D+00  0.108886D+01
      8b  0.000000D+00 -0.537461D+00  0.000000D+00  0.110194D+01  0.000000D+00
      9a -0.150138D-01  0.000000D+00  0.255394D-02  0.000000D+00  0.172825D-01
      9b  0.000000D+00 -0.440837D-02  0.000000D+00  0.292372D-01  0.000000D+00
     10a -0.854350D+00  0.000000D+00 -0.941853D+00  0.000000D+00 -0.641442D+00
     10b  0.000000D+00  0.955933D+00  0.000000D+00 -0.672888D+00  0.000000D+00
 bfr conversion (imaginary):
                 1             2             3             4             5 
      1a  0.000000D+00  0.000000D+00  0.000000D+00  0.000000D+00  0.000000D+00
      1b  0.000000D+00  0.000000D+00  0.000000D+00  0.000000D+00  0.000000D+00
      2a  0.000000D+00  0.000000D+00  0.000000D+00  0.000000D+00  0.000000D+00
      2b  0.000000D+00  0.000000D+00  0.000000D+00  0.000000D+00  0.000000D+00
      3a  0.000000D+00  0.000000D+00  0.000000D+00  0.000000D+00  0.000000D+00
      3b  0.000000D+00  0.000000D+00  0.000000D+00  0.000000D+00  0.000000D+00
      4a  0.000000D+00  0.000000D+00  0.000000D+00  0.000000D+00  0.000000D+00
      4b  0.000000D+00  0.000000D+00  0.000000D+00  0.000000D+00  0.000000D+00
      5a  0.000000D+00  0.000000D+00  0.000000D+00  0.000000D+00  0.000000D+00
      5b  0.000000D+00  0.000000D+00  0.000000D+00  0.000000D+00  0.000000D+00
      6a  0.000000D+00  0.000000D+00  0.000000D+00  0.000000D+00  0.000000D+00
      6b  0.000000D+00  0.000000D+00  0.000000D+00  0.000000D+00  0.000000D+00
      7a  0.000000D+00  0.000000D+00  0.000000D+00  0.000000D+00  0.000000D+00
      7b  0.000000D+00  0.000000D+00  0.000000D+00  0.000000D+00  0.000000D+00
      8a  0.000000D+00  0.000000D+00  0.000000D+00  0.000000D+00  0.000000D+00
      8b  0.000000D+00  0.000000D+00  0.000000D+00  0.000000D+00  0.000000D+00
      9a  0.000000D+00  0.000000D+00  0.000000D+00  0.000000D+00  0.000000D+00
      9b  0.000000D+00  0.000000D+00  0.000000D+00  0.000000D+00  0.000000D+00
     10a  0.000000D+00  0.000000D+00  0.000000D+00  0.000000D+00  0.000000D+00
     10b  0.000000D+00  0.000000D+00  0.000000D+00  0.000000D+00  0.000000D+00
                 6             7             8             9            10 
      1a  0.000000D+00  0.000000D+00  0.000000D+00  0.000000D+00  0.000000D+00
      1b  0.000000D+00  0.000000D+00  0.000000D+00  0.000000D+00  0.000000D+00
      2a  0.000000D+00  0.000000D+00  0.000000D+00  0.000000D+00  0.000000D+00
      2b  0.000000D+00  0.000000D+00  0.000000D+00  0.000000D+00  0.000000D+00
      3a  0.000000D+00  0.000000D+00  0.000000D+00  0.000000D+00  0.000000D+00
      3b  0.000000D+00  0.000000D+00  0.000000D+00  0.000000D+00  0.000000D+00
      4a  0.000000D+00  0.000000D+00  0.000000D+00  0.000000D+00  0.000000D+00
      4b  0.000000D+00  0.000000D+00  0.000000D+00  0.000000D+00  0.000000D+00
      5a  0.000000D+00  0.000000D+00  0.000000D+00  0.000000D+00  0.000000D+00
      5b  0.000000D+00  0.000000D+00  0.000000D+00  0.000000D+00  0.000000D+00
      6a  0.000000D+00  0.000000D+00  0.000000D+00  0.000000D+00  0.000000D+00
      6b  0.000000D+00  0.000000D+00  0.000000D+00  0.000000D+00  0.000000D+00
      7a  0.000000D+00  0.000000D+00  0.000000D+00  0.000000D+00  0.000000D+00
      7b  0.000000D+00  0.000000D+00  0.000000D+00  0.000000D+00  0.000000D+00
      8a  0.000000D+00  0.000000D+00  0.000000D+00  0.000000D+00  0.000000D+00
      8b  0.000000D+00  0.000000D+00  0.000000D+00  0.000000D+00  0.000000D+00
      9a  0.000000D+00  0.000000D+00  0.000000D+00  0.000000D+00  0.000000D+00
      9b  0.000000D+00  0.000000D+00  0.000000D+00  0.000000D+00  0.000000D+00
     10a  0.000000D+00  0.000000D+00  0.000000D+00  0.000000D+00  0.000000D+00
     10b  0.000000D+00  0.000000D+00  0.000000D+00  0.000000D+00  0.000000D+00
                11            12            13            14            15 
      1a  0.000000D+00  0.000000D+00  0.000000D+00  0.000000D+00  0.000000D+00
      1b  0.000000D+00  0.000000D+00  0.000000D+00  0.000000D+00  0.000000D+00
      2a  0.000000D+00  0.000000D+00  0.000000D+00  0.000000D+00  0.000000D+00
      2b  0.000000D+00  0.000000D+00  0.000000D+00  0.000000D+00  0.000000D+00
      3a  0.000000D+00  0.000000D+00  0.000000D+00  0.000000D+00  0.000000D+00
      3b  0.000000D+00  0.000000D+00  0.000000D+00  0.000000D+00  0.000000D+00
      4a  0.000000D+00  0.000000D+00  0.000000D+00  0.000000D+00  0.000000D+00
      4b  0.000000D+00  0.000000D+00  0.000000D+00  0.000000D+00  0.000000D+00
      5a  0.000000D+00  0.000000D+00  0.000000D+00  0.000000D+00  0.000000D+00
      5b  0.000000D+00  0.000000D+00  0.000000D+00  0.000000D+00  0.000000D+00
      6a  0.000000D+00  0.000000D+00  0.000000D+00  0.000000D+00  0.000000D+00
      6b  0.000000D+00  0.000000D+00  0.000000D+00  0.000000D+00  0.000000D+00
      7a  0.000000D+00  0.000000D+00  0.000000D+00  0.000000D+00  0.000000D+00
      7b  0.000000D+00  0.000000D+00  0.000000D+00  0.000000D+00  0.000000D+00
      8a  0.000000D+00  0.000000D+00  0.000000D+00  0.000000D+00  0.000000D+00
      8b  0.000000D+00  0.000000D+00  0.000000D+00  0.000000D+00  0.000000D+00
      9a  0.000000D+00  0.000000D+00  0.000000D+00  0.000000D+00  0.000000D+00
      9b  0.000000D+00  0.000000D+00  0.000000D+00  0.000000D+00  0.000000D+00
     10a  0.000000D+00  0.000000D+00  0.000000D+00  0.000000D+00  0.000000D+00
     10b  0.000000D+00  0.000000D+00  0.000000D+00  0.000000D+00  0.000000D+00
                16            17            18            19            20 
      1a  0.000000D+00  0.000000D+00  0.000000D+00  0.000000D+00  0.000000D+00
      1b  0.000000D+00  0.000000D+00  0.000000D+00  0.000000D+00  0.000000D+00
      2a  0.000000D+00  0.000000D+00  0.000000D+00  0.000000D+00  0.000000D+00
      2b  0.000000D+00  0.000000D+00  0.000000D+00  0.000000D+00  0.000000D+00
      3a  0.000000D+00  0.000000D+00  0.000000D+00  0.000000D+00  0.000000D+00
      3b  0.000000D+00  0.000000D+00  0.000000D+00  0.000000D+00  0.000000D+00
      4a  0.000000D+00  0.000000D+00  0.000000D+00  0.000000D+00  0.000000D+00
      4b  0.000000D+00  0.000000D+00  0.000000D+00  0.000000D+00  0.000000D+00
      5a  0.000000D+00  0.000000D+00  0.000000D+00  0.000000D+00  0.000000D+00
      5b  0.000000D+00  0.000000D+00  0.000000D+00  0.000000D+00  0.000000D+00
      6a  0.000000D+00  0.000000D+00  0.000000D+00  0.000000D+00  0.000000D+00
      6b  0.000000D+00  0.000000D+00  0.000000D+00  0.000000D+00  0.000000D+00
      7a  0.000000D+00  0.000000D+00  0.000000D+00  0.000000D+00  0.000000D+00
      7b  0.000000D+00  0.000000D+00  0.000000D+00  0.000000D+00  0.000000D+00
      8a  0.000000D+00  0.000000D+00  0.000000D+00  0.000000D+00  0.000000D+00
      8b  0.000000D+00  0.000000D+00  0.000000D+00  0.000000D+00  0.000000D+00
      9a  0.000000D+00  0.000000D+00  0.000000D+00  0.000000D+00  0.000000D+00
      9b  0.000000D+00  0.000000D+00  0.000000D+00  0.000000D+00  0.000000D+00
     10a  0.000000D+00  0.000000D+00  0.000000D+00  0.000000D+00  0.000000D+00
     10b  0.000000D+00  0.000000D+00  0.000000D+00  0.000000D+00  0.000000D+00
 afr conversion (alpha, real):
                 1             2             3             4             5 
      1   0.119442D+00  0.000000D+00 -0.255476D+00  0.000000D+00  0.000000D+00
      2  -0.429078D-02  0.000000D+00  0.457012D-02  0.000000D+00  0.000000D+00
      3   0.233581D+00  0.000000D+00 -0.238708D+00  0.000000D+00  0.000000D+00
      4   0.127393D+00  0.000000D+00 -0.268419D+00  0.000000D+00  0.000000D+00
      5   0.263180D+00  0.000000D+00  0.100491D+00  0.000000D+00  0.000000D+00
      6   0.233980D+00  0.000000D+00 -0.230384D+00  0.000000D+00  0.000000D+00
      7   0.199696D+00  0.000000D+00  0.307359D+00  0.000000D+00  0.000000D+00
      8   0.262258D+00  0.000000D+00  0.111558D+00  0.000000D+00  0.000000D+00
      9   0.529062D-01  0.000000D+00  0.120129D+00  0.000000D+00  0.000000D+00
     10   0.191589D+00  0.000000D+00  0.299612D+00  0.000000D+00  0.000000D+00
                 6             7             8             9            10 
      1   0.354032D+00  0.000000D+00 -0.323635D+00  0.694685D-01  0.000000D+00
      2   0.593758D-02  0.000000D+00 -0.225215D-01  0.944913D-02  0.000000D+00
      3  -0.122557D+00  0.000000D+00  0.460838D+00 -0.149043D+00  0.000000D+00
      4   0.359461D+00  0.000000D+00 -0.308489D+00  0.606780D-01  0.000000D+00
      5  -0.310888D+00  0.000000D+00 -0.352739D+00  0.251499D+00  0.000000D+00
      6  -0.141315D+00  0.000000D+00  0.455752D+00 -0.136071D+00  0.000000D+00
      7   0.280958D+00  0.000000D+00  0.765254D-01 -0.368626D+00  0.000000D+00
      8  -0.296438D+00  0.000000D+00 -0.369475D+00  0.230164D+00  0.000000D+00
      9   0.232677D+00  0.000000D+00  0.375381D+00  0.959156D+00  0.000000D+00
     10   0.286042D+00  0.000000D+00  0.927538D-01 -0.384672D+00  0.000000D+00
                11            12            13            14            15 
      1  -0.240187D+00  0.000000D+00  0.000000D+00 -0.452956D+00  0.000000D+00
      2   0.106157D+01  0.000000D+00  0.000000D+00 -0.568835D-01  0.000000D+00
      3  -0.262499D-02  0.000000D+00  0.000000D+00 -0.759997D+00  0.000000D+00
      4  -0.178683D+00  0.000000D+00  0.000000D+00  0.515866D+00  0.000000D+00
      5  -0.264140D-01  0.000000D+00  0.000000D+00 -0.778649D+00  0.000000D+00
      6   0.125571D+00  0.000000D+00  0.000000D+00  0.761074D+00  0.000000D+00
      7  -0.339225D-02  0.000000D+00  0.000000D+00 -0.548619D+00  0.000000D+00
      8  -0.121494D-01  0.000000D+00  0.000000D+00  0.778750D+00  0.000000D+00
      9  -0.291276D-02  0.000000D+00  0.000000D+00  0.163341D-01  0.000000D+00
     10   0.139058D-01  0.000000D+00  0.000000D+00  0.497375D+00  0.000000D+00
                16            17            18            19            20 
      1  -0.834871D+00  0.000000D+00  0.955933D+00  0.000000D+00 -0.672888D+00
      2  -0.367613D-01  0.000000D+00 -0.440836D-02  0.000000D+00  0.292372D-01
      3  -0.562697D+00  0.000000D+00 -0.537461D+00  0.000000D+00  0.110194D+01
      4   0.894474D+00  0.000000D+00 -0.951827D+00  0.000000D+00  0.604008D+00
      5   0.436953D+00  0.000000D+00 -0.694128D+00  0.000000D+00 -0.105626D+01
      6   0.492852D+00  0.000000D+00  0.645877D+00  0.000000D+00 -0.107239D+01
      7   0.905888D+00  0.000000D+00  0.935816D+00  0.000000D+00  0.576942D+00
      8  -0.510115D+00  0.000000D+00  0.589489D+00  0.000000D+00  0.108886D+01
      9  -0.150138D-01  0.000000D+00  0.255394D-02  0.000000D+00  0.172825D-01
     10  -0.854350D+00  0.000000D+00 -0.941853D+00  0.000000D+00 -0.641442D+00
 afr conversion (alpha, imaginary):
                 1             2             3             4             5 
      1   0.000000D+00  0.000000D+00  0.000000D+00  0.000000D+00  0.000000D+00
      2   0.000000D+00  0.000000D+00  0.000000D+00  0.000000D+00  0.000000D+00
      3   0.000000D+00  0.000000D+00  0.000000D+00  0.000000D+00  0.000000D+00
      4   0.000000D+00  0.000000D+00  0.000000D+00  0.000000D+00  0.000000D+00
      5   0.000000D+00  0.000000D+00  0.000000D+00  0.000000D+00  0.000000D+00
      6   0.000000D+00  0.000000D+00  0.000000D+00  0.000000D+00  0.000000D+00
      7   0.000000D+00  0.000000D+00  0.000000D+00  0.000000D+00  0.000000D+00
      8   0.000000D+00  0.000000D+00  0.000000D+00  0.000000D+00  0.000000D+00
      9   0.000000D+00  0.000000D+00  0.000000D+00  0.000000D+00  0.000000D+00
     10   0.000000D+00  0.000000D+00  0.000000D+00  0.000000D+00  0.000000D+00
                 6             7             8             9            10 
      1   0.000000D+00  0.000000D+00  0.000000D+00  0.000000D+00  0.000000D+00
      2   0.000000D+00  0.000000D+00  0.000000D+00  0.000000D+00  0.000000D+00
      3   0.000000D+00  0.000000D+00  0.000000D+00  0.000000D+00  0.000000D+00
      4   0.000000D+00  0.000000D+00  0.000000D+00  0.000000D+00  0.000000D+00
      5   0.000000D+00  0.000000D+00  0.000000D+00  0.000000D+00  0.000000D+00
      6   0.000000D+00  0.000000D+00  0.000000D+00  0.000000D+00  0.000000D+00
      7   0.000000D+00  0.000000D+00  0.000000D+00  0.000000D+00  0.000000D+00
      8   0.000000D+00  0.000000D+00  0.000000D+00  0.000000D+00  0.000000D+00
      9   0.000000D+00  0.000000D+00  0.000000D+00  0.000000D+00  0.000000D+00
     10   0.000000D+00  0.000000D+00  0.000000D+00  0.000000D+00  0.000000D+00
                11            12            13            14            15 
      1   0.000000D+00  0.000000D+00  0.000000D+00  0.000000D+00  0.000000D+00
      2   0.000000D+00  0.000000D+00  0.000000D+00  0.000000D+00  0.000000D+00
      3   0.000000D+00  0.000000D+00  0.000000D+00  0.000000D+00  0.000000D+00
      4   0.000000D+00  0.000000D+00  0.000000D+00  0.000000D+00  0.000000D+00
      5   0.000000D+00  0.000000D+00  0.000000D+00  0.000000D+00  0.000000D+00
      6   0.000000D+00  0.000000D+00  0.000000D+00  0.000000D+00  0.000000D+00
      7   0.000000D+00  0.000000D+00  0.000000D+00  0.000000D+00  0.000000D+00
      8   0.000000D+00  0.000000D+00  0.000000D+00  0.000000D+00  0.000000D+00
      9   0.000000D+00  0.000000D+00  0.000000D+00  0.000000D+00  0.000000D+00
     10   0.000000D+00  0.000000D+00  0.000000D+00  0.000000D+00  0.000000D+00
                16            17            18            19            20 
      1   0.000000D+00  0.000000D+00  0.000000D+00  0.000000D+00  0.000000D+00
      2   0.000000D+00  0.000000D+00  0.000000D+00  0.000000D+00  0.000000D+00
      3   0.000000D+00  0.000000D+00  0.000000D+00  0.000000D+00  0.000000D+00
      4   0.000000D+00  0.000000D+00  0.000000D+00  0.000000D+00  0.000000D+00
      5   0.000000D+00  0.000000D+00  0.000000D+00  0.000000D+00  0.000000D+00
      6   0.000000D+00  0.000000D+00  0.000000D+00  0.000000D+00  0.000000D+00
      7   0.000000D+00  0.000000D+00  0.000000D+00  0.000000D+00  0.000000D+00
      8   0.000000D+00  0.000000D+00  0.000000D+00  0.000000D+00  0.000000D+00
      9   0.000000D+00  0.000000D+00  0.000000D+00  0.000000D+00  0.000000D+00
     10   0.000000D+00  0.000000D+00  0.000000D+00  0.000000D+00  0.000000D+00
 afr conversion (beta, real):
                 1             2             3             4             5 
      1   0.000000D+00  0.191589D+00  0.000000D+00  0.299612D+00  0.286042D+00
      2   0.000000D+00  0.529062D-01  0.000000D+00  0.120129D+00  0.232677D+00
      3   0.000000D+00  0.262258D+00  0.000000D+00  0.111558D+00 -0.296438D+00
      4   0.000000D+00  0.199696D+00  0.000000D+00  0.307359D+00  0.280958D+00
      5   0.000000D+00  0.233980D+00  0.000000D+00 -0.230384D+00 -0.141315D+00
      6   0.000000D+00  0.263180D+00  0.000000D+00  0.100491D+00 -0.310888D+00
      7   0.000000D+00  0.127393D+00  0.000000D+00 -0.268419D+00  0.359461D+00
      8   0.000000D+00  0.233581D+00  0.000000D+00 -0.238708D+00 -0.122557D+00
      9   0.000000D+00 -0.429078D-02  0.000000D+00  0.457012D-02  0.593758D-02
     10   0.000000D+00  0.119442D+00  0.000000D+00 -0.255476D+00  0.354032D+00
                 6             7             8             9            10 
      1   0.000000D+00  0.927538D-01  0.000000D+00  0.000000D+00 -0.384672D+00
      2   0.000000D+00  0.375381D+00  0.000000D+00  0.000000D+00  0.959156D+00
      3   0.000000D+00 -0.369475D+00  0.000000D+00  0.000000D+00  0.230164D+00
      4   0.000000D+00  0.765254D-01  0.000000D+00  0.000000D+00 -0.368626D+00
      5   0.000000D+00  0.455752D+00  0.000000D+00  0.000000D+00 -0.136071D+00
      6   0.000000D+00 -0.352739D+00  0.000000D+00  0.000000D+00  0.251499D+00
      7   0.000000D+00 -0.308489D+00  0.000000D+00  0.000000D+00  0.606780D-01
      8   0.000000D+00  0.460838D+00  0.000000D+00  0.000000D+00 -0.149043D+00
      9   0.000000D+00 -0.225215D-01  0.000000D+00  0.000000D+00  0.944913D-02
     10   0.000000D+00 -0.323635D+00  0.000000D+00  0.000000D+00  0.694685D-01
                11            12            13            14            15 
      1   0.000000D+00  0.139058D-01  0.497375D+00  0.000000D+00 -0.854350D+00
      2   0.000000D+00 -0.291276D-02  0.163341D-01  0.000000D+00 -0.150138D-01
      3   0.000000D+00 -0.121494D-01  0.778750D+00  0.000000D+00 -0.510115D+00
      4   0.000000D+00 -0.339225D-02 -0.548619D+00  0.000000D+00  0.905888D+00
      5   0.000000D+00  0.125571D+00  0.761074D+00  0.000000D+00  0.492852D+00
      6   0.000000D+00 -0.264140D-01 -0.778649D+00  0.000000D+00  0.436953D+00
      7   0.000000D+00 -0.178683D+00  0.515866D+00  0.000000D+00  0.894474D+00
      8   0.000000D+00 -0.262499D-02 -0.759997D+00  0.000000D+00 -0.562697D+00
      9   0.000000D+00  0.106157D+01 -0.568835D-01  0.000000D+00 -0.367613D-01
     10   0.000000D+00 -0.240187D+00 -0.452956D+00  0.000000D+00 -0.834871D+00
                16            17            18            19            20 
      1   0.000000D+00 -0.941853D+00  0.000000D+00 -0.641442D+00  0.000000D+00
      2   0.000000D+00  0.255394D-02  0.000000D+00  0.172825D-01  0.000000D+00
      3   0.000000D+00  0.589489D+00  0.000000D+00  0.108886D+01  0.000000D+00
      4   0.000000D+00  0.935816D+00  0.000000D+00  0.576942D+00  0.000000D+00
      5   0.000000D+00  0.645877D+00  0.000000D+00 -0.107239D+01  0.000000D+00
      6   0.000000D+00 -0.694128D+00  0.000000D+00 -0.105626D+01  0.000000D+00
      7   0.000000D+00 -0.951827D+00  0.000000D+00  0.604008D+00  0.000000D+00
      8   0.000000D+00 -0.537461D+00  0.000000D+00  0.110194D+01  0.000000D+00
      9   0.000000D+00 -0.440837D-02  0.000000D+00  0.292372D-01  0.000000D+00
     10   0.000000D+00  0.955933D+00  0.000000D+00 -0.672888D+00  0.000000D+00
 afr conversion (beta, imaginary):
                 1             2             3             4             5 
      1   0.000000D+00  0.000000D+00  0.000000D+00  0.000000D+00  0.000000D+00
      2   0.000000D+00  0.000000D+00  0.000000D+00  0.000000D+00  0.000000D+00
      3   0.000000D+00  0.000000D+00  0.000000D+00  0.000000D+00  0.000000D+00
      4   0.000000D+00  0.000000D+00  0.000000D+00  0.000000D+00  0.000000D+00
      5   0.000000D+00  0.000000D+00  0.000000D+00  0.000000D+00  0.000000D+00
      6   0.000000D+00  0.000000D+00  0.000000D+00  0.000000D+00  0.000000D+00
      7   0.000000D+00  0.000000D+00  0.000000D+00  0.000000D+00  0.000000D+00
      8   0.000000D+00  0.000000D+00  0.000000D+00  0.000000D+00  0.000000D+00
      9   0.000000D+00  0.000000D+00  0.000000D+00  0.000000D+00  0.000000D+00
     10   0.000000D+00  0.000000D+00  0.000000D+00  0.000000D+00  0.000000D+00
                 6             7             8             9            10 
      1   0.000000D+00  0.000000D+00  0.000000D+00  0.000000D+00  0.000000D+00
      2   0.000000D+00  0.000000D+00  0.000000D+00  0.000000D+00  0.000000D+00
      3   0.000000D+00  0.000000D+00  0.000000D+00  0.000000D+00  0.000000D+00
      4   0.000000D+00  0.000000D+00  0.000000D+00  0.000000D+00  0.000000D+00
      5   0.000000D+00  0.000000D+00  0.000000D+00  0.000000D+00  0.000000D+00
      6   0.000000D+00  0.000000D+00  0.000000D+00  0.000000D+00  0.000000D+00
      7   0.000000D+00  0.000000D+00  0.000000D+00  0.000000D+00  0.000000D+00
      8   0.000000D+00  0.000000D+00  0.000000D+00  0.000000D+00  0.000000D+00
      9   0.000000D+00  0.000000D+00  0.000000D+00  0.000000D+00  0.000000D+00
     10   0.000000D+00  0.000000D+00  0.000000D+00  0.000000D+00  0.000000D+00
                11            12            13            14            15 
      1   0.000000D+00  0.000000D+00  0.000000D+00  0.000000D+00  0.000000D+00
      2   0.000000D+00  0.000000D+00  0.000000D+00  0.000000D+00  0.000000D+00
      3   0.000000D+00  0.000000D+00  0.000000D+00  0.000000D+00  0.000000D+00
      4   0.000000D+00  0.000000D+00  0.000000D+00  0.000000D+00  0.000000D+00
      5   0.000000D+00  0.000000D+00  0.000000D+00  0.000000D+00  0.000000D+00
      6   0.000000D+00  0.000000D+00  0.000000D+00  0.000000D+00  0.000000D+00
      7   0.000000D+00  0.000000D+00  0.000000D+00  0.000000D+00  0.000000D+00
      8   0.000000D+00  0.000000D+00  0.000000D+00  0.000000D+00  0.000000D+00
      9   0.000000D+00  0.000000D+00  0.000000D+00  0.000000D+00  0.000000D+00
     10   0.000000D+00  0.000000D+00  0.000000D+00  0.000000D+00  0.000000D+00
                16            17            18            19            20 
      1   0.000000D+00  0.000000D+00  0.000000D+00  0.000000D+00  0.000000D+00
      2   0.000000D+00  0.000000D+00  0.000000D+00  0.000000D+00  0.000000D+00
      3   0.000000D+00  0.000000D+00  0.000000D+00  0.000000D+00  0.000000D+00
      4   0.000000D+00  0.000000D+00  0.000000D+00  0.000000D+00  0.000000D+00
      5   0.000000D+00  0.000000D+00  0.000000D+00  0.000000D+00  0.000000D+00
      6   0.000000D+00  0.000000D+00  0.000000D+00  0.000000D+00  0.000000D+00
      7   0.000000D+00  0.000000D+00  0.000000D+00  0.000000D+00  0.000000D+00
      8   0.000000D+00  0.000000D+00  0.000000D+00  0.000000D+00  0.000000D+00
      9   0.000000D+00  0.000000D+00  0.000000D+00  0.000000D+00  0.000000D+00
     10   0.000000D+00  0.000000D+00  0.000000D+00  0.000000D+00  0.000000D+00
 jaja in hckghf.F, ISPECT =                     548
Spin block MO for GHF transformation
NOA =   10   NOB =   10
NVA =   10   NVB =   10
 NOAvA in Hack                     100
 jaja in tranN3.F, ISPECT =                     548
 in l802/tranN3.F, LSPECT =                      800
 NMat, NBtSiz,MDV                    8372                   16000
                133954722
 TranN3:  NGot= 134217728 NBasic=    263006 NTTT=       550 NMat=      8372.
 Defined bucket =                      51                   10000
 Defined bucket =                      52                   10000
 Defined bucket =                      53                   10000
 Defined bucket =                      55                   10000
 Defined bucket =                      57                   10000
 Defined bucket =                      58                   10000
 Defined bucket =                      60                   10000
 Defined bucket =                      72                   10000
 Defined bucket =                      73                   10000
 Defined bucket =                      74                   10000
 Defined bucket =                      75                   10000
 Defined bucket =                      76                   10000
 (IK/LS) integrals will be saved in memory.
 TrCghf made   2 passes through the AO integrals.
 jaja DoHack is true or false? F
 jaja in hckghf.F, NBasis=                      10
 jaja in hckGHF/FixOG, LC =                      800
 jaja in hckGHF/FixOG, IRwC=                      548
 bfr conversion (alpha, real):
                 1             2             3             4             5 
      1   0.119442D+00  0.000000D+00 -0.255476D+00  0.000000D+00  0.000000D+00
      2  -0.429078D-02  0.000000D+00  0.457012D-02  0.000000D+00  0.000000D+00
      3   0.233581D+00  0.000000D+00 -0.238708D+00  0.000000D+00  0.000000D+00
      4   0.127393D+00  0.000000D+00 -0.268419D+00  0.000000D+00  0.000000D+00
      5   0.263180D+00  0.000000D+00  0.100491D+00  0.000000D+00  0.000000D+00
      6   0.233980D+00  0.000000D+00 -0.230384D+00  0.000000D+00  0.000000D+00
      7   0.199696D+00  0.000000D+00  0.307359D+00  0.000000D+00  0.000000D+00
      8   0.262258D+00  0.000000D+00  0.111558D+00  0.000000D+00  0.000000D+00
      9   0.529062D-01  0.000000D+00  0.120129D+00  0.000000D+00  0.000000D+00
     10   0.191589D+00  0.000000D+00  0.299612D+00  0.000000D+00  0.000000D+00
                 6             7             8             9            10 
      1   0.354032D+00  0.000000D+00 -0.323635D+00  0.694685D-01  0.000000D+00
      2   0.593758D-02  0.000000D+00 -0.225215D-01  0.944913D-02  0.000000D+00
      3  -0.122557D+00  0.000000D+00  0.460838D+00 -0.149043D+00  0.000000D+00
      4   0.359461D+00  0.000000D+00 -0.308489D+00  0.606780D-01  0.000000D+00
      5  -0.310888D+00  0.000000D+00 -0.352739D+00  0.251499D+00  0.000000D+00
      6  -0.141315D+00  0.000000D+00  0.455752D+00 -0.136071D+00  0.000000D+00
      7   0.280958D+00  0.000000D+00  0.765254D-01 -0.368626D+00  0.000000D+00
      8  -0.296438D+00  0.000000D+00 -0.369475D+00  0.230164D+00  0.000000D+00
      9   0.232677D+00  0.000000D+00  0.375381D+00  0.959156D+00  0.000000D+00
     10   0.286042D+00  0.000000D+00  0.927538D-01 -0.384672D+00  0.000000D+00
                11            12            13            14            15 
      1  -0.240187D+00  0.000000D+00  0.000000D+00 -0.452956D+00  0.000000D+00
      2   0.106157D+01  0.000000D+00  0.000000D+00 -0.568835D-01  0.000000D+00
      3  -0.262499D-02  0.000000D+00  0.000000D+00 -0.759997D+00  0.000000D+00
      4  -0.178683D+00  0.000000D+00  0.000000D+00  0.515866D+00  0.000000D+00
      5  -0.264140D-01  0.000000D+00  0.000000D+00 -0.778649D+00  0.000000D+00
      6   0.125571D+00  0.000000D+00  0.000000D+00  0.761074D+00  0.000000D+00
      7  -0.339225D-02  0.000000D+00  0.000000D+00 -0.548619D+00  0.000000D+00
      8  -0.121494D-01  0.000000D+00  0.000000D+00  0.778750D+00  0.000000D+00
      9  -0.291276D-02  0.000000D+00  0.000000D+00  0.163341D-01  0.000000D+00
     10   0.139058D-01  0.000000D+00  0.000000D+00  0.497375D+00  0.000000D+00
                16            17            18            19            20 
      1  -0.834871D+00  0.000000D+00  0.955933D+00  0.000000D+00 -0.672888D+00
      2  -0.367613D-01  0.000000D+00 -0.440836D-02  0.000000D+00  0.292372D-01
      3  -0.562697D+00  0.000000D+00 -0.537461D+00  0.000000D+00  0.110194D+01
      4   0.894474D+00  0.000000D+00 -0.951827D+00  0.000000D+00  0.604008D+00
      5   0.436953D+00  0.000000D+00 -0.694128D+00  0.000000D+00 -0.105626D+01
      6   0.492852D+00  0.000000D+00  0.645877D+00  0.000000D+00 -0.107239D+01
      7   0.905888D+00  0.000000D+00  0.935816D+00  0.000000D+00  0.576942D+00
      8  -0.510115D+00  0.000000D+00  0.589489D+00  0.000000D+00  0.108886D+01
      9  -0.150138D-01  0.000000D+00  0.255394D-02  0.000000D+00  0.172825D-01
     10  -0.854350D+00  0.000000D+00 -0.941853D+00  0.000000D+00 -0.641442D+00
 bfr conversion (alpha, imaginary):
                 1             2             3             4             5 
      1   0.000000D+00  0.000000D+00  0.000000D+00  0.000000D+00  0.000000D+00
      2   0.000000D+00  0.000000D+00  0.000000D+00  0.000000D+00  0.000000D+00
      3   0.000000D+00  0.000000D+00  0.000000D+00  0.000000D+00  0.000000D+00
      4   0.000000D+00  0.000000D+00  0.000000D+00  0.000000D+00  0.000000D+00
      5   0.000000D+00  0.000000D+00  0.000000D+00  0.000000D+00  0.000000D+00
      6   0.000000D+00  0.000000D+00  0.000000D+00  0.000000D+00  0.000000D+00
      7   0.000000D+00  0.000000D+00  0.000000D+00  0.000000D+00  0.000000D+00
      8   0.000000D+00  0.000000D+00  0.000000D+00  0.000000D+00  0.000000D+00
      9   0.000000D+00  0.000000D+00  0.000000D+00  0.000000D+00  0.000000D+00
     10   0.000000D+00  0.000000D+00  0.000000D+00  0.000000D+00  0.000000D+00
                 6             7             8             9            10 
      1   0.000000D+00  0.000000D+00  0.000000D+00  0.000000D+00  0.000000D+00
      2   0.000000D+00  0.000000D+00  0.000000D+00  0.000000D+00  0.000000D+00
      3   0.000000D+00  0.000000D+00  0.000000D+00  0.000000D+00  0.000000D+00
      4   0.000000D+00  0.000000D+00  0.000000D+00  0.000000D+00  0.000000D+00
      5   0.000000D+00  0.000000D+00  0.000000D+00  0.000000D+00  0.000000D+00
      6   0.000000D+00  0.000000D+00  0.000000D+00  0.000000D+00  0.000000D+00
      7   0.000000D+00  0.000000D+00  0.000000D+00  0.000000D+00  0.000000D+00
      8   0.000000D+00  0.000000D+00  0.000000D+00  0.000000D+00  0.000000D+00
      9   0.000000D+00  0.000000D+00  0.000000D+00  0.000000D+00  0.000000D+00
     10   0.000000D+00  0.000000D+00  0.000000D+00  0.000000D+00  0.000000D+00
                11            12            13            14            15 
      1   0.000000D+00  0.000000D+00  0.000000D+00  0.000000D+00  0.000000D+00
      2   0.000000D+00  0.000000D+00  0.000000D+00  0.000000D+00  0.000000D+00
      3   0.000000D+00  0.000000D+00  0.000000D+00  0.000000D+00  0.000000D+00
      4   0.000000D+00  0.000000D+00  0.000000D+00  0.000000D+00  0.000000D+00
      5   0.000000D+00  0.000000D+00  0.000000D+00  0.000000D+00  0.000000D+00
      6   0.000000D+00  0.000000D+00  0.000000D+00  0.000000D+00  0.000000D+00
      7   0.000000D+00  0.000000D+00  0.000000D+00  0.000000D+00  0.000000D+00
      8   0.000000D+00  0.000000D+00  0.000000D+00  0.000000D+00  0.000000D+00
      9   0.000000D+00  0.000000D+00  0.000000D+00  0.000000D+00  0.000000D+00
     10   0.000000D+00  0.000000D+00  0.000000D+00  0.000000D+00  0.000000D+00
                16            17            18            19            20 
      1   0.000000D+00  0.000000D+00  0.000000D+00  0.000000D+00  0.000000D+00
      2   0.000000D+00  0.000000D+00  0.000000D+00  0.000000D+00  0.000000D+00
      3   0.000000D+00  0.000000D+00  0.000000D+00  0.000000D+00  0.000000D+00
      4   0.000000D+00  0.000000D+00  0.000000D+00  0.000000D+00  0.000000D+00
      5   0.000000D+00  0.000000D+00  0.000000D+00  0.000000D+00  0.000000D+00
      6   0.000000D+00  0.000000D+00  0.000000D+00  0.000000D+00  0.000000D+00
      7   0.000000D+00  0.000000D+00  0.000000D+00  0.000000D+00  0.000000D+00
      8   0.000000D+00  0.000000D+00  0.000000D+00  0.000000D+00  0.000000D+00
      9   0.000000D+00  0.000000D+00  0.000000D+00  0.000000D+00  0.000000D+00
     10   0.000000D+00  0.000000D+00  0.000000D+00  0.000000D+00  0.000000D+00
 bfr conversion (beta, real):
                 1             2             3             4             5 
      1   0.000000D+00  0.191589D+00  0.000000D+00  0.299612D+00  0.286042D+00
      2   0.000000D+00  0.529062D-01  0.000000D+00  0.120129D+00  0.232677D+00
      3   0.000000D+00  0.262258D+00  0.000000D+00  0.111558D+00 -0.296438D+00
      4   0.000000D+00  0.199696D+00  0.000000D+00  0.307359D+00  0.280958D+00
      5   0.000000D+00  0.233980D+00  0.000000D+00 -0.230384D+00 -0.141315D+00
      6   0.000000D+00  0.263180D+00  0.000000D+00  0.100491D+00 -0.310888D+00
      7   0.000000D+00  0.127393D+00  0.000000D+00 -0.268419D+00  0.359461D+00
      8   0.000000D+00  0.233581D+00  0.000000D+00 -0.238708D+00 -0.122557D+00
      9   0.000000D+00 -0.429078D-02  0.000000D+00  0.457012D-02  0.593758D-02
     10   0.000000D+00  0.119442D+00  0.000000D+00 -0.255476D+00  0.354032D+00
                 6             7             8             9            10 
      1   0.000000D+00  0.927538D-01  0.000000D+00  0.000000D+00 -0.384672D+00
      2   0.000000D+00  0.375381D+00  0.000000D+00  0.000000D+00  0.959156D+00
      3   0.000000D+00 -0.369475D+00  0.000000D+00  0.000000D+00  0.230164D+00
      4   0.000000D+00  0.765254D-01  0.000000D+00  0.000000D+00 -0.368626D+00
      5   0.000000D+00  0.455752D+00  0.000000D+00  0.000000D+00 -0.136071D+00
      6   0.000000D+00 -0.352739D+00  0.000000D+00  0.000000D+00  0.251499D+00
      7   0.000000D+00 -0.308489D+00  0.000000D+00  0.000000D+00  0.606780D-01
      8   0.000000D+00  0.460838D+00  0.000000D+00  0.000000D+00 -0.149043D+00
      9   0.000000D+00 -0.225215D-01  0.000000D+00  0.000000D+00  0.944913D-02
     10   0.000000D+00 -0.323635D+00  0.000000D+00  0.000000D+00  0.694685D-01
                11            12            13            14            15 
[...]
      6b-0.109600D-03 -0.445906D-01 -0.229853D-02 -0.232424D-01 -0.142144D-02
      7a-0.177583D+00  0.157359D-02 -0.391101D-02 -0.230823D-03 -0.751828D-01
      7b 0.868064D-02 -0.131732D+00 -0.620317D-02 -0.228697D-01 -0.380440D-01
      8a-0.528652D-01 -0.245666D-02  0.107177D-01 -0.467367D-02 -0.224821D+00
      8b 0.403531D-02 -0.207148D+00 -0.313381D-01 -0.926161D-01  0.728368D-02
      9a 0.630048D-01 -0.107678D-01  0.168537D-01  0.412849D-02 -0.294513D+00
      9b-0.411291D-01  0.101481D-01 -0.101363D-01 -0.138453D-03  0.192294D+00
     10a-0.177797D+00  0.234255D-02 -0.448761D-02  0.534899D-03 -0.574821D-01
     10b 0.101420D-01 -0.124768D+00 -0.479666D-02 -0.191714D-01 -0.388575D-01
                3b            4a            4b            5a            5b
      3b 0.453817D+00
      4a 0.267244D-02  0.646676D+00
      4b-0.443886D-02 -0.939927D-02  0.661103D+00
      5a 0.610348D-02 -0.700087D-01 -0.956207D-03  0.629741D+00
      5b-0.825228D-01  0.419842D-02 -0.220057D+00 -0.210029D-01  0.510527D+00
      6a-0.527697D-02  0.465703D-02  0.193082D-02 -0.186554D+00  0.103440D-01
      6b 0.454835D+00 -0.116184D-03 -0.284162D-01  0.319418D-02 -0.635844D-01
      7a-0.829168D-02 -0.177593D+00  0.200613D-02 -0.215557D+00  0.283122D-01
      7b-0.154691D+00  0.692624D-02 -0.136552D+00  0.517737D-01  0.694619D-01
      8a 0.554447D-02 -0.694028D-01 -0.152032D-02  0.619107D+00 -0.169226D-01
      8b-0.990968D-01  0.512708D-02 -0.217779D+00 -0.109588D-01  0.514497D+00
      9a 0.354450D-01  0.453508D-01 -0.652415D-02  0.400134D+00 -0.115641D+00
      9b-0.175410D-01 -0.295926D-01  0.787500D-02 -0.266991D+00  0.572769D-01
     10a-0.826652D-02 -0.176839D+00  0.273985D-02 -0.241864D+00  0.294740D-01
     10b-0.143569D+00  0.828686D-02 -0.128954D+00  0.552118D-01  0.493263D-01
                6a            6b            7a            7b            8a
      6a 0.619719D+00
      6b 0.475729D-03  0.457303D+00
      7a-0.871947D-01 -0.562313D-02  0.910572D+00
      7b-0.352486D-01 -0.157047D+00 -0.706512D-01  0.658892D+00
      8a-0.201737D+00  0.278527D-02 -0.177582D+00  0.450797D-01  0.610799D+00
      8b 0.613664D-02 -0.805554D-01  0.166933D-01  0.928898D-01 -0.764905D-02
      9a-0.268870D+00  0.223610D-01 -0.596794D+00  0.327081D+00  0.351284D+00
      9b 0.175601D+00 -0.975539D-02  0.386070D+00 -0.203121D+00 -0.235974D+00
     10a-0.705292D-01 -0.533040D-02  0.917937D+00 -0.773798D-01 -0.203521D+00
     10b-0.358137D-01 -0.146527D+00 -0.802638D-01  0.646011D+00  0.479727D-01
                8b            9a            9b           10a           10b
      8b 0.519997D+00
      9a-0.808255D-01  0.266244D+01
      9b 0.349956D-01 -0.168528D+01  0.106776D+01
     10a 0.171737D-01 -0.630898D+00  0.408163D+00  0.926661D+00
     10b 0.722597D-01  0.342752D+00 -0.212565D+00 -0.871363D-01  0.634308D+00
 jaja lower-tri density matrix (imaginary):
                1a            1b            2a            2b            3a
      1a 0.000000D+00
      1b 0.000000D+00  0.000000D+00
      2a 0.000000D+00  0.000000D+00  0.000000D+00
      2b 0.000000D+00  0.000000D+00  0.000000D+00  0.000000D+00
      3a 0.000000D+00  0.000000D+00  0.000000D+00  0.000000D+00  0.000000D+00
      3b 0.000000D+00  0.000000D+00  0.000000D+00  0.000000D+00  0.000000D+00
      4a 0.000000D+00  0.000000D+00  0.000000D+00  0.000000D+00  0.000000D+00
      4b 0.000000D+00  0.000000D+00  0.000000D+00  0.000000D+00  0.000000D+00
      5a 0.000000D+00  0.000000D+00  0.000000D+00  0.000000D+00  0.000000D+00
      5b 0.000000D+00  0.000000D+00  0.000000D+00  0.000000D+00  0.000000D+00
      6a 0.000000D+00  0.000000D+00  0.000000D+00  0.000000D+00  0.000000D+00
      6b 0.000000D+00  0.000000D+00  0.000000D+00  0.000000D+00  0.000000D+00
      7a 0.000000D+00  0.000000D+00  0.000000D+00  0.000000D+00  0.000000D+00
      7b 0.000000D+00  0.000000D+00  0.000000D+00  0.000000D+00  0.000000D+00
      8a 0.000000D+00  0.000000D+00  0.000000D+00  0.000000D+00  0.000000D+00
      8b 0.000000D+00  0.000000D+00  0.000000D+00  0.000000D+00  0.000000D+00
      9a 0.000000D+00  0.000000D+00  0.000000D+00  0.000000D+00  0.000000D+00
      9b 0.000000D+00  0.000000D+00  0.000000D+00  0.000000D+00  0.000000D+00
     10a 0.000000D+00  0.000000D+00  0.000000D+00  0.000000D+00  0.000000D+00
     10b 0.000000D+00  0.000000D+00  0.000000D+00  0.000000D+00  0.000000D+00
                3b            4a            4b            5a            5b
      3b 0.000000D+00
      4a 0.000000D+00  0.000000D+00
      4b 0.000000D+00  0.000000D+00  0.000000D+00
      5a 0.000000D+00  0.000000D+00  0.000000D+00  0.000000D+00
      5b 0.000000D+00  0.000000D+00  0.000000D+00  0.000000D+00  0.000000D+00
      6a 0.000000D+00  0.000000D+00  0.000000D+00  0.000000D+00  0.000000D+00
      6b 0.000000D+00  0.000000D+00  0.000000D+00  0.000000D+00  0.000000D+00
      7a 0.000000D+00  0.000000D+00  0.000000D+00  0.000000D+00  0.000000D+00
      7b 0.000000D+00  0.000000D+00  0.000000D+00  0.000000D+00  0.000000D+00
      8a 0.000000D+00  0.000000D+00  0.000000D+00  0.000000D+00  0.000000D+00
      8b 0.000000D+00  0.000000D+00  0.000000D+00  0.000000D+00  0.000000D+00
      9a 0.000000D+00  0.000000D+00  0.000000D+00  0.000000D+00  0.000000D+00
      9b 0.000000D+00  0.000000D+00  0.000000D+00  0.000000D+00  0.000000D+00
     10a 0.000000D+00  0.000000D+00  0.000000D+00  0.000000D+00  0.000000D+00
     10b 0.000000D+00  0.000000D+00  0.000000D+00  0.000000D+00  0.000000D+00
                6a            6b            7a            7b            8a
      6a 0.000000D+00
      6b 0.000000D+00  0.000000D+00
      7a 0.000000D+00  0.000000D+00  0.000000D+00
      7b 0.000000D+00  0.000000D+00  0.000000D+00  0.000000D+00
      8a 0.000000D+00  0.000000D+00  0.000000D+00  0.000000D+00  0.000000D+00
      8b 0.000000D+00  0.000000D+00  0.000000D+00  0.000000D+00  0.000000D+00
      9a 0.000000D+00  0.000000D+00  0.000000D+00  0.000000D+00  0.000000D+00
      9b 0.000000D+00  0.000000D+00  0.000000D+00  0.000000D+00  0.000000D+00
     10a 0.000000D+00  0.000000D+00  0.000000D+00  0.000000D+00  0.000000D+00
     10b 0.000000D+00  0.000000D+00  0.000000D+00  0.000000D+00  0.000000D+00
                8b            9a            9b           10a           10b
      8b 0.000000D+00
      9a 0.000000D+00  0.000000D+00
      9b 0.000000D+00  0.000000D+00  0.000000D+00
     10a 0.000000D+00  0.000000D+00  0.000000D+00  0.000000D+00
     10b 0.000000D+00  0.000000D+00  0.000000D+00  0.000000D+00  0.000000D+00
 jaja non-ortho density matrix               [Gau-style] (real):
                 1             2             3             4             5 
      1a  0.625723D+00 -0.176548D-02 -0.774541D-02 -0.516446D-01 -0.418452D-02
      1b -0.176548D-02  0.652050D+00  0.254275D-01  0.882539D-01  0.336002D-02
      2a -0.774541D-02  0.254275D-01  0.828528D-01  0.257309D+00 -0.188705D-01
      2b -0.516446D-01  0.882539D-01  0.257309D+00  0.809329D+00  0.122900D-01
      3a -0.418452D-02  0.336002D-02 -0.188705D-01  0.122900D-01  0.640301D+00
      3b  0.299389D-02 -0.208245D-01 -0.393563D-02 -0.289715D-01 -0.721074D-02
      4a  0.635566D+00 -0.404969D-02 -0.815916D-02 -0.503680D-01  0.210173D-01
      4b -0.699538D-02  0.656181D+00  0.276248D-01  0.947091D-01  0.275415D-02
      5a -0.537110D-01 -0.201710D-02  0.110577D-01 -0.264627D-02 -0.210375D+00
      5b  0.277357D-02 -0.209991D+00 -0.308289D-01 -0.907469D-01  0.119183D-01
      6a -0.196000D-01  0.228369D-02 -0.170873D-01  0.166276D-01  0.629330D+00
      6b -0.109600D-03 -0.445906D-01 -0.229853D-02 -0.232424D-01 -0.142144D-02
      7a -0.177583D+00  0.157359D-02 -0.391101D-02 -0.230823D-03 -0.751828D-01
      7b  0.868064D-02 -0.131732D+00 -0.620317D-02 -0.228697D-01 -0.380440D-01
      8a -0.528652D-01 -0.245666D-02  0.107177D-01 -0.467367D-02 -0.224821D+00
      8b  0.403531D-02 -0.207148D+00 -0.313381D-01 -0.926161D-01  0.728368D-02
      9a  0.630048D-01 -0.107678D-01  0.168537D-01  0.412849D-02 -0.294513D+00
      9b -0.411291D-01  0.101481D-01 -0.101363D-01 -0.138453D-03  0.192294D+00
     10a -0.177797D+00  0.234255D-02 -0.448761D-02  0.534899D-03 -0.574821D-01
     10b  0.101420D-01 -0.124768D+00 -0.479666D-02 -0.191714D-01 -0.388575D-01
                 6             7             8             9            10 
      1a  0.299389D-02  0.635566D+00 -0.699538D-02 -0.537110D-01  0.277357D-02
      1b -0.208245D-01 -0.404969D-02  0.656181D+00 -0.201710D-02 -0.209991D+00
      2a -0.393563D-02 -0.815916D-02  0.276248D-01  0.110577D-01 -0.308289D-01
      2b -0.289715D-01 -0.503680D-01  0.947091D-01 -0.264627D-02 -0.907469D-01
      3a -0.721074D-02  0.210173D-01  0.275415D-02 -0.210375D+00  0.119183D-01
      3b  0.453817D+00  0.267244D-02 -0.443886D-02  0.610348D-02 -0.825228D-01
      4a  0.267244D-02  0.646676D+00 -0.939927D-02 -0.700087D-01  0.419842D-02
      4b -0.443886D-02 -0.939927D-02  0.661103D+00 -0.956207D-03 -0.220057D+00
      5a  0.610348D-02 -0.700087D-01 -0.956207D-03  0.629741D+00 -0.210029D-01
      5b -0.825228D-01  0.419842D-02 -0.220057D+00 -0.210029D-01  0.510527D+00
      6a -0.527697D-02  0.465703D-02  0.193082D-02 -0.186554D+00  0.103440D-01
      6b  0.454835D+00 -0.116184D-03 -0.284162D-01  0.319418D-02 -0.635844D-01
      7a -0.829168D-02 -0.177593D+00  0.200613D-02 -0.215557D+00  0.283122D-01
      7b -0.154691D+00  0.692624D-02 -0.136552D+00  0.517737D-01  0.694619D-01
      8a  0.554447D-02 -0.694028D-01 -0.152032D-02  0.619107D+00 -0.169226D-01
      8b -0.990968D-01  0.512708D-02 -0.217779D+00 -0.109588D-01  0.514497D+00
      9a  0.354450D-01  0.453508D-01 -0.652415D-02  0.400134D+00 -0.115641D+00
      9b -0.175410D-01 -0.295926D-01  0.787500D-02 -0.266991D+00  0.572769D-01
     10a -0.826652D-02 -0.176839D+00  0.273985D-02 -0.241864D+00  0.294740D-01
     10b -0.143569D+00  0.828686D-02 -0.128954D+00  0.552118D-01  0.493263D-01
                11            12            13            14            15 
      1a -0.196000D-01 -0.109600D-03 -0.177583D+00  0.868064D-02 -0.528652D-01
      1b  0.228369D-02 -0.445906D-01  0.157359D-02 -0.131732D+00 -0.245666D-02
      2a -0.170873D-01 -0.229853D-02 -0.391101D-02 -0.620317D-02  0.107177D-01
      2b  0.166276D-01 -0.232424D-01 -0.230823D-03 -0.228697D-01 -0.467367D-02
      3a  0.629330D+00 -0.142144D-02 -0.751828D-01 -0.380440D-01 -0.224821D+00
      3b -0.527697D-02  0.454835D+00 -0.829168D-02 -0.154691D+00  0.554447D-02
      4a  0.465703D-02 -0.116184D-03 -0.177593D+00  0.692624D-02 -0.694028D-01
      4b  0.193082D-02 -0.284162D-01  0.200613D-02 -0.136552D+00 -0.152032D-02
      5a -0.186554D+00  0.319418D-02 -0.215557D+00  0.517737D-01  0.619107D+00
      5b  0.103440D-01 -0.635844D-01  0.283122D-01  0.694619D-01 -0.169226D-01
      6a  0.619719D+00  0.475729D-03 -0.871947D-01 -0.352486D-01 -0.201737D+00
      6b  0.475729D-03  0.457303D+00 -0.562313D-02 -0.157047D+00  0.278527D-02
      7a -0.871947D-01 -0.562313D-02  0.910572D+00 -0.706512D-01 -0.177582D+00
      7b -0.352486D-01 -0.157047D+00 -0.706512D-01  0.658892D+00  0.450797D-01
      8a -0.201737D+00  0.278527D-02 -0.177582D+00  0.450797D-01  0.610799D+00
      8b  0.613664D-02 -0.805554D-01  0.166933D-01  0.928898D-01 -0.764905D-02
      9a -0.268870D+00  0.223610D-01 -0.596794D+00  0.327081D+00  0.351284D+00
      9b  0.175601D+00 -0.975539D-02  0.386070D+00 -0.203121D+00 -0.235974D+00
     10a -0.705292D-01 -0.533040D-02  0.917937D+00 -0.773798D-01 -0.203521D+00
     10b -0.358137D-01 -0.146527D+00 -0.802638D-01  0.646011D+00  0.479727D-01
                16            17            18            19            20 
      1a  0.403531D-02  0.630048D-01 -0.411291D-01 -0.177797D+00  0.101420D-01
      1b -0.207148D+00 -0.107678D-01  0.101481D-01  0.234255D-02 -0.124768D+00
      2a -0.313381D-01  0.168537D-01 -0.101363D-01 -0.448761D-02 -0.479666D-02
      2b -0.926161D-01  0.412849D-02 -0.138453D-03  0.534899D-03 -0.191714D-01
      3a  0.728368D-02 -0.294513D+00  0.192294D+00 -0.574821D-01 -0.388575D-01
      3b -0.990968D-01  0.354450D-01 -0.175410D-01 -0.826652D-02 -0.143569D+00
      4a  0.512708D-02  0.453508D-01 -0.295926D-01 -0.176839D+00  0.828686D-02
      4b -0.217779D+00 -0.652415D-02  0.787500D-02  0.273985D-02 -0.128954D+00
      5a -0.109588D-01  0.400134D+00 -0.266991D+00 -0.241864D+00  0.552118D-01
      5b  0.514497D+00 -0.115641D+00  0.572769D-01  0.294740D-01  0.493263D-01
      6a  0.613664D-02 -0.268870D+00  0.175601D+00 -0.705292D-01 -0.358137D-01
      6b -0.805554D-01  0.223610D-01 -0.975539D-02 -0.533040D-02 -0.146527D+00
      7a  0.166933D-01 -0.596794D+00  0.386070D+00  0.917937D+00 -0.802638D-01
      7b  0.928898D-01  0.327081D+00 -0.203121D+00 -0.773798D-01  0.646011D+00
      8a -0.764905D-02  0.351284D+00 -0.235974D+00 -0.203521D+00  0.479727D-01
      8b  0.519997D+00 -0.808255D-01  0.349956D-01  0.171737D-01  0.722597D-01
      9a -0.808255D-01  0.266244D+01 -0.168528D+01 -0.630898D+00  0.342752D+00
      9b  0.349956D-01 -0.168528D+01  0.106776D+01  0.408163D+00 -0.212565D+00
     10a  0.171737D-01 -0.630898D+00  0.408163D+00  0.926661D+00 -0.871363D-01
     10b  0.722597D-01  0.342752D+00 -0.212565D+00 -0.871363D-01  0.634308D+00
 jaja non-ortho density matrix               [Gau-style] (imaginary):
                 1             2             3             4             5 
      1a  0.000000D+00  0.000000D+00  0.000000D+00  0.000000D+00  0.000000D+00
      1b  0.000000D+00  0.000000D+00  0.000000D+00  0.000000D+00  0.000000D+00
      2a  0.000000D+00  0.000000D+00  0.000000D+00  0.000000D+00  0.000000D+00
      2b  0.000000D+00  0.000000D+00  0.000000D+00  0.000000D+00  0.000000D+00
      3a  0.000000D+00  0.000000D+00  0.000000D+00  0.000000D+00  0.000000D+00
      3b  0.000000D+00  0.000000D+00  0.000000D+00  0.000000D+00  0.000000D+00
      4a  0.000000D+00  0.000000D+00  0.000000D+00  0.000000D+00  0.000000D+00
      4b  0.000000D+00  0.000000D+00  0.000000D+00  0.000000D+00  0.000000D+00
      5a  0.000000D+00  0.000000D+00  0.000000D+00  0.000000D+00  0.000000D+00
      5b  0.000000D+00  0.000000D+00  0.000000D+00  0.000000D+00  0.000000D+00
      6a  0.000000D+00  0.000000D+00  0.000000D+00  0.000000D+00  0.000000D+00
      6b  0.000000D+00  0.000000D+00  0.000000D+00  0.000000D+00  0.000000D+00
      7a  0.000000D+00  0.000000D+00  0.000000D+00  0.000000D+00  0.000000D+00
      7b  0.000000D+00  0.000000D+00  0.000000D+00  0.000000D+00  0.000000D+00
      8a  0.000000D+00  0.000000D+00  0.000000D+00  0.000000D+00  0.000000D+00
      8b  0.000000D+00  0.000000D+00  0.000000D+00  0.000000D+00  0.000000D+00
      9a  0.000000D+00  0.000000D+00  0.000000D+00  0.000000D+00  0.000000D+00
      9b  0.000000D+00  0.000000D+00  0.000000D+00  0.000000D+00  0.000000D+00
     10a  0.000000D+00  0.000000D+00  0.000000D+00  0.000000D+00  0.000000D+00
     10b  0.000000D+00  0.000000D+00  0.000000D+00  0.000000D+00  0.000000D+00
                 6             7             8             9            10 
      1a  0.000000D+00  0.000000D+00  0.000000D+00  0.000000D+00  0.000000D+00
      1b  0.000000D+00  0.000000D+00  0.000000D+00  0.000000D+00  0.000000D+00
      2a  0.000000D+00  0.000000D+00  0.000000D+00  0.000000D+00  0.000000D+00
      2b  0.000000D+00  0.000000D+00  0.000000D+00  0.000000D+00  0.000000D+00
      3a  0.000000D+00  0.000000D+00  0.000000D+00  0.000000D+00  0.000000D+00
      3b  0.000000D+00  0.000000D+00  0.000000D+00  0.000000D+00  0.000000D+00
      4a  0.000000D+00  0.000000D+00  0.000000D+00  0.000000D+00  0.000000D+00
      4b  0.000000D+00  0.000000D+00  0.000000D+00  0.000000D+00  0.000000D+00
      5a  0.000000D+00  0.000000D+00  0.000000D+00  0.000000D+00  0.000000D+00
      5b  0.000000D+00  0.000000D+00  0.000000D+00  0.000000D+00  0.000000D+00
      6a  0.000000D+00  0.000000D+00  0.000000D+00  0.000000D+00  0.000000D+00
      6b  0.000000D+00  0.000000D+00  0.000000D+00  0.000000D+00  0.000000D+00
      7a  0.000000D+00  0.000000D+00  0.000000D+00  0.000000D+00  0.000000D+00
      7b  0.000000D+00  0.000000D+00  0.000000D+00  0.000000D+00  0.000000D+00
      8a  0.000000D+00  0.000000D+00  0.000000D+00  0.000000D+00  0.000000D+00
      8b  0.000000D+00  0.000000D+00  0.000000D+00  0.000000D+00  0.000000D+00
      9a  0.000000D+00  0.000000D+00  0.000000D+00  0.000000D+00  0.000000D+00
      9b  0.000000D+00  0.000000D+00  0.000000D+00  0.000000D+00  0.000000D+00
     10a  0.000000D+00  0.000000D+00  0.000000D+00  0.000000D+00  0.000000D+00
     10b  0.000000D+00  0.000000D+00  0.000000D+00  0.000000D+00  0.000000D+00
                11            12            13            14            15 
      1a  0.000000D+00  0.000000D+00  0.000000D+00  0.000000D+00  0.000000D+00
      1b  0.000000D+00  0.000000D+00  0.000000D+00  0.000000D+00  0.000000D+00
      2a  0.000000D+00  0.000000D+00  0.000000D+00  0.000000D+00  0.000000D+00
      2b  0.000000D+00  0.000000D+00  0.000000D+00  0.000000D+00  0.000000D+00
      3a  0.000000D+00  0.000000D+00  0.000000D+00  0.000000D+00  0.000000D+00
      3b  0.000000D+00  0.000000D+00  0.000000D+00  0.000000D+00  0.000000D+00
      4a  0.000000D+00  0.000000D+00  0.000000D+00  0.000000D+00  0.000000D+00
      4b  0.000000D+00  0.000000D+00  0.000000D+00  0.000000D+00  0.000000D+00
      5a  0.000000D+00  0.000000D+00  0.000000D+00  0.000000D+00  0.000000D+00
      5b  0.000000D+00  0.000000D+00  0.000000D+00  0.000000D+00  0.000000D+00
      6a  0.000000D+00  0.000000D+00  0.000000D+00  0.000000D+00  0.000000D+00
      6b  0.000000D+00  0.000000D+00  0.000000D+00  0.000000D+00  0.000000D+00
      7a  0.000000D+00  0.000000D+00  0.000000D+00  0.000000D+00  0.000000D+00
      7b  0.000000D+00  0.000000D+00  0.000000D+00  0.000000D+00  0.000000D+00
      8a  0.000000D+00  0.000000D+00  0.000000D+00  0.000000D+00  0.000000D+00
      8b  0.000000D+00  0.000000D+00  0.000000D+00  0.000000D+00  0.000000D+00
      9a  0.000000D+00  0.000000D+00  0.000000D+00  0.000000D+00  0.000000D+00
      9b  0.000000D+00  0.000000D+00  0.000000D+00  0.000000D+00  0.000000D+00
     10a  0.000000D+00  0.000000D+00  0.000000D+00  0.000000D+00  0.000000D+00
     10b  0.000000D+00  0.000000D+00  0.000000D+00  0.000000D+00  0.000000D+00
                16            17            18            19            20 
      1a  0.000000D+00  0.000000D+00  0.000000D+00  0.000000D+00  0.000000D+00
      1b  0.000000D+00  0.000000D+00  0.000000D+00  0.000000D+00  0.000000D+00
      2a  0.000000D+00  0.000000D+00  0.000000D+00  0.000000D+00  0.000000D+00
      2b  0.000000D+00  0.000000D+00  0.000000D+00  0.000000D+00  0.000000D+00
      3a  0.000000D+00  0.000000D+00  0.000000D+00  0.000000D+00  0.000000D+00
      3b  0.000000D+00  0.000000D+00  0.000000D+00  0.000000D+00  0.000000D+00
      4a  0.000000D+00  0.000000D+00  0.000000D+00  0.000000D+00  0.000000D+00
      4b  0.000000D+00  0.000000D+00  0.000000D+00  0.000000D+00  0.000000D+00
      5a  0.000000D+00  0.000000D+00  0.000000D+00  0.000000D+00  0.000000D+00
      5b  0.000000D+00  0.000000D+00  0.000000D+00  0.000000D+00  0.000000D+00
      6a  0.000000D+00  0.000000D+00  0.000000D+00  0.000000D+00  0.000000D+00
      6b  0.000000D+00  0.000000D+00  0.000000D+00  0.000000D+00  0.000000D+00
      7a  0.000000D+00  0.000000D+00  0.000000D+00  0.000000D+00  0.000000D+00
      7b  0.000000D+00  0.000000D+00  0.000000D+00  0.000000D+00  0.000000D+00
      8a  0.000000D+00  0.000000D+00  0.000000D+00  0.000000D+00  0.000000D+00
      8b  0.000000D+00  0.000000D+00  0.000000D+00  0.000000D+00  0.000000D+00
      9a  0.000000D+00  0.000000D+00  0.000000D+00  0.000000D+00  0.000000D+00
      9b  0.000000D+00  0.000000D+00  0.000000D+00  0.000000D+00  0.000000D+00
     10a  0.000000D+00  0.000000D+00  0.000000D+00  0.000000D+00  0.000000D+00
     10b  0.000000D+00  0.000000D+00  0.000000D+00  0.000000D+00  0.000000D+00
FORTRAN STOP
