 Entering Gaussian System, Link 0=gdv
 AtFile(1): H.gbs
            H     0
            S   10   1.00
               1000.000000000000            0.000068713567
                316.227766000000            0.000169141320
                100.000000000000            0.000823394812
                 31.622776600000            0.003425569236
                 10.000000000000            0.013951996000
                  3.162277660000            0.056909313560
                  1.000000000000            0.198286399900
                  0.316227766000            0.496922426700
                  0.100000000000            0.369846276400
                  0.031622776600            0.003752720039
            ****
 Initial command:
 /users/lcj1/GHF_hess/exe-dir/l1.exe "/users/lcj1/GHF_hess/h10_2rows/readmixrmY/Gau-5122.inp" -scrdir="/users/lcj1/GHF_hess/h10_2rows/readmixrmY/"
 Entering Link 1 = /users/lcj1/GHF_hess/exe-dir/l1.exe PID=      5123.
  
 Copyright (c) 1988,1990,1992,1993,1995,1998,2003,2009,2012,
            Gaussian, Inc.  All Rights Reserved.
  
 This is the private, development version of
 the Gaussian(R) DV system of programs. It is based on
 the Gaussian(R) 09 system (copyright 2009, Gaussian, Inc.),
 the Gaussian(R) 03 system (copyright 2003, Gaussian, Inc.),
 the Gaussian(R) 98 system (copyright 1998, Gaussian, Inc.),
 the Gaussian(R) 94 system (copyright 1995, Gaussian, Inc.),
 the Gaussian 92(TM) system (copyright 1992, Gaussian, Inc.),
 the Gaussian 90(TM) system (copyright 1990, Gaussian, Inc.),
 the Gaussian 88(TM) system (copyright 1988, Gaussian, Inc.),
 the Gaussian 86(TM) system (copyright 1986, Carnegie Mellon
 University), and the Gaussian 82(TM) system (copyright 1983,
 Carnegie Mellon University). Gaussian is a federally registered
 trademark of Gaussian, Inc.
  
 This software contains proprietary and confidential information,
 including trade secrets, belonging to Gaussian, Inc.
  
 This software is provided under written license and may be
 used, copied, transmitted, or stored only in accord with that
 written license.
  
 The following legend is applicable only to US Government
 contracts under FAR:
  
                    RESTRICTED RIGHTS LEGEND
  
 Use, reproduction and disclosure by the US Government is
 subject to restrictions as set forth in subparagraphs (a)
 and (c) of the Commercial Computer Software - Restricted
 Rights clause in FAR 52.227-19.
  
 Gaussian, Inc.
 340 Quinnipiac St., Bldg. 40, Wallingford CT 06492
  
  
 ---------------------------------------------------------------
 Warning -- This program may not be used in any manner that
 competes with the business of Gaussian, Inc. or will provide
 assistance to any competitor of Gaussian, Inc.  The licensee
 of this program is prohibited from giving any competitor of
 Gaussian, Inc. access to this program.  By using this program,
 the user acknowledges that Gaussian, Inc. is engaged in the
 business of creating and licensing software in the field of
 computational chemistry and represents and warrants to the
 licensee that it is not a competitor of Gaussian, Inc. and that
 it will not use this program in any manner prohibited above.
 ---------------------------------------------------------------
  

 Cite this work as:
 Gaussian Development Version, Revision H.21,
 M. J. Frisch, G. W. Trucks, H. B. Schlegel, G. E. Scuseria, 
 M. A. Robb, J. R. Cheeseman, G. Scalmani, V. Barone, B. Mennucci, 
 G. A. Petersson, H. Nakatsuji, M. Caricato, X. Li, H. P. Hratchian, 
 A. F. Izmaylov, J. Bloino, G. Zheng, J. L. Sonnenberg, W. Liang, 
 M. Hada, M. Ehara, K. Toyota, R. Fukuda, J. Hasegawa, M. Ishida, 
 T. Nakajima, Y. Honda, O. Kitao, H. Nakai, T. Vreven, 
 J. A. Montgomery, Jr., J. E. Peralta, F. Ogliaro, M. Bearpark, 
 J. J. Heyd, E. Brothers, K. N. Kudin, V. N. Staroverov, T. Keith, 
 R. Kobayashi, J. Normand, K. Raghavachari, A. Rendell, J. C. Burant, 
 S. S. Iyengar, J. Tomasi, M. Cossi, N. Rega, J. M. Millam, M. Klene, 
 J. E. Knox, J. B. Cross, V. Bakken, C. Adamo, J. Jaramillo, 
 R. Gomperts, R. E. Stratmann, O. Yazyev, A. J. Austin, R. Cammi, 
 C. Pomelli, J. W. Ochterski, R. L. Martin, K. Morokuma, 
 V. G. Zakrzewski, G. A. Voth, P. Salvador, J. J. Dannenberg, 
 S. Dapprich, P. V. Parandekar, N. J. Mayhall, A. D. Daniels, 
 O. Farkas, J. B. Foresman, J. V. Ortiz, J. Cioslowski, 
 and D. J. Fox, Gaussian, Inc., Wallingford CT, 2010.
 
 ******************************************
 Gaussian DV:  EM64L-GDVRevH.21 13-May-2012
                28-Feb-2017 
 ******************************************
 %chk=h10.chk
 ----------------------------------------------------------------------
 #ghf/gen scf(tight,novaracc,noincfock,fulldiag) stable guess=(read,mix
 ) geom=nocrowd use=l802 use=l902 test
 ----------------------------------------------------------------------
 ********************************************
   THE COMPLEX ERI TRANSFORMATION WITH L802  
        COMPLEX STABILITY WITH L902          
 ********************************************
 1/38=1/1;
 2/12=1,17=6,18=5,40=1/2;
 3/5=7,16=1,25=20,28=1,116=7/1,2,3,20;
 4/5=1,13=-1/1;
 5/5=100001,16=1,32=2,38=6/2;
 8/6=1,10=90,11=11/1,2;
 9/8=4,13=1/1,2;
 6/7=2,8=2,9=2,10=2,28=1/1;
 99/5=1,9=1/99;
 ----------------------------------------------------------------------
 hf stability analysis of h10 triangular lattice, y= 1.8828341599932619
  alpha= 80.750000000000000
 ----------------------------------------------------------------------
 Symbolic Z-Matrix:
 Charge =  0 Multiplicity = 1
 H
 H                    1     1.90764 
 H                    1     1.90764  2     18.5 
 H                    2     1.90764  1     161.5    3     0.       0
 H                    3     1.90764  1     180.     2     0.       0
 H                    4     1.90764  2     180.     1     0.       0
 H                    5     1.90764  3     180.     2     0.       0
 H                    6     1.90764  4     180.     1     0.       0
 H                    7     1.90764  5     180.     2     0.       0
 H                    8     1.90764  6     180.     1     0.       0
 
                          Input orientation:                          
 ---------------------------------------------------------------------
 Center     Atomic      Atomic             Coordinates (Angstroms)
 Number     Number       Type             X           Y           Z
 ---------------------------------------------------------------------
      1          1           0        0.000000    0.000000    0.000000
      2          1           0        0.000000    0.000000    1.907640
      3          1           0        0.605303    0.000000    1.809061
      4          1           0        0.605303    0.000000    3.716701
      5          1           0        1.210606    0.000000    3.618121
      6          1           0        1.210606    0.000000    5.525761
      7          1           0        1.815910    0.000000    5.427182
      8          1           0        1.815910    0.000000    7.334822
      9          1           0        2.421213    0.000000    7.236242
     10          1           0        2.421213    0.000000    9.143882
 ---------------------------------------------------------------------
                    Distance matrix (angstroms):
                    1          2          3          4          5
     1  H    0.000000
     2  H    1.907640   0.000000
     3  H    1.907640   0.613278   0.000000
     4  H    3.765668   1.907640   1.907640   0.000000
     5  H    3.815281   2.095546   1.907640   0.613278   0.000000
     6  H    5.656820   3.815281   3.765668   1.907640   1.907640
     7  H    5.722921   3.960391   3.815281   2.095546   1.907640
     8  H    7.556265   5.722921   5.656820   3.815281   3.765668
     9  H    7.630562   5.852885   5.722921   3.960391   3.815281
    10  H    9.459009   7.630562   7.556265   5.722921   5.656820
                    6          7          8          9         10
     6  H    0.000000
     7  H    0.613278   0.000000
     8  H    1.907640   1.907640   0.000000
     9  H    2.095546   1.907640   0.613278   0.000000
    10  H    3.815281   3.765668   1.907640   1.907640   0.000000
 Stoichiometry    H10
 Framework group  C2H[SGH(H10)]
 Deg. of freedom     9
 Full point group                 C2H     NOp   4
 Largest Abelian subgroup         C2H     NOp   4
 Largest concise Abelian subgroup C2      NOp   2
                         Standard orientation:                         
 ---------------------------------------------------------------------
 Center     Atomic      Atomic             Coordinates (Angstroms)
 Number     Number       Type             X           Y           Z
 ---------------------------------------------------------------------
      1          1           0        1.210606    4.571941    0.000000
      2          1           0        1.210606    2.664301    0.000000
      3          1           0        0.605303    2.762881    0.000000
      4          1           0        0.605303    0.855240    0.000000
      5          1           0        0.000000    0.953820    0.000000
      6          1           0        0.000000   -0.953820    0.000000
      7          1           0       -0.605303   -0.855240    0.000000
      8          1           0       -0.605303   -2.762881    0.000000
      9          1           0       -1.210606   -2.664301    0.000000
     10          1           0       -1.210606   -4.571941    0.000000
 ---------------------------------------------------------------------
 Rotational constants (GHZ):    609.6971789      6.1864425      6.1243008
 General basis read from cards:  (5D, 7F)
 There are     5 symmetry adapted cartesian basis functions of AG  symmetry.
 There are     0 symmetry adapted cartesian basis functions of BG  symmetry.
 There are     0 symmetry adapted cartesian basis functions of AU  symmetry.
 There are     5 symmetry adapted cartesian basis functions of BU  symmetry.
 There are     5 symmetry adapted basis functions of AG  symmetry.
 There are     0 symmetry adapted basis functions of BG  symmetry.
 There are     0 symmetry adapted basis functions of AU  symmetry.
 There are     5 symmetry adapted basis functions of BU  symmetry.
    10 basis functions,   100 primitive gaussians,    10 cartesian basis functions
     5 alpha electrons        5 beta electrons
       nuclear repulsion energy        10.5523897473 Hartrees.
 NAtoms=   10 NActive=   10 NUniq=    5 SFac= 4.00D+00 NAtFMM=   60 NAOKFM=F Big=F
 Integral buffers will be    131072 words long.
 Regular integral format.
 Two-electron integral symmetry is turned off.
 One-electron integrals computed using PRISM.
 NBasis=    10 RedAO= T EigKep=  1.43D-01  NBF=     5     0     0     5
 NBsUse=    10 1.00D-06 EigRej= -1.00D+00 NBFU=     5     0     0     5
 IOp(28)                       1
                        1                       0
                        2                       1
                        3                       1
                        4                      20
                        5                       0
                        6                       0
                        7                      10
                        8                       1
                        9                       4
                       10                       0
                       11              1073741824
                       12                      20
                       13                       2
                       14                  131070
                       15                       1
                       16                       1
                       17                  131073
                       18                       0
                       19                       0
                       20                       0
                       21                       2
                       22                  131070
                       23                       0
                       24                       0
                       25                       0
                       26                       0
                       27                   65535
                       28                       2
                       29                  131072
                       30                       0
 IHMeth                       1
 ib3: ISMode =                        0                       4
 Enter DskPsm, NBasis=  10 NBas6D=  10 NShell=  10 IDoSP=4.
 Out2e will use a cutoff of  1.00D-10
 FoFCou: FMM=F IPFlag=           0 FMFlag=           0 FMFlg1=           0
         NFxFlg=           0 DoJE=F BraDBF=F KetDBF=F FulRan=T
         wScrn=  0.000000 ICntrl=     600 IOpCl=  9 I1Cent=           0 NGrid=           0
         NMat0=    0 NMatS0=      0 NMatT0=    0 NMatD0=    0 NMtDS0=    0 NMtDT0=    0
 Symmetry not used in FoFCou.
 Entering PrmDigJobTyp =                      20
 LenSav and NKeep                       0                       0
 Entered Stor2E with KNTT1,2                       2                  131070
 Leave Stor2X
 Entering PrmDigJobTyp =                      20
 LenSav and NKeep                       0                       0
 Entered Stor2E with KNTT1,2                       2                  131056
 Leave Stor2X
 Entering PrmDigJobTyp =                      20
 LenSav and NKeep                       0                       0
 Entered Stor2E with KNTT1,2                       2                  131042
 Leave Stor2X
 Entering PrmDigJobTyp =                      20
 LenSav and NKeep                       0                       0
 Entered Stor2E with KNTT1,2                       2                  131028
 Leave Stor2X
 Entering PrmDigJobTyp =                      20
 LenSav and NKeep                       0                       0
 Entered Stor2E with KNTT1,2                       2                  131014
 Leave Stor2X
 Entering PrmDigJobTyp =                      20
 LenSav and NKeep                       0                       0
 Entered Stor2E with KNTT1,2                       2                  131000
 Leave Stor2X
 Entering PrmDigJobTyp =                      20
 LenSav and NKeep                       0                       0
 Entered Stor2E with KNTT1,2                       2                  130986
 Leave Stor2X
 Entering PrmDigJobTyp =                      20
 LenSav and NKeep                       0                       0
 Entered Stor2E with KNTT1,2                       2                  130972
 Leave Stor2X
 Entering PrmDigJobTyp =                      20
 LenSav and NKeep                       0                       0
 Entered Stor2E with KNTT1,2                       2                  130960
 Leave Stor2X
 Entering PrmDigJobTyp =                      20
 LenSav and NKeep                       0                       0
 Entered Stor2E with KNTT1,2                       2                  130944
 Leave Stor2X
 Entering PrmDigJobTyp =                      20
 LenSav and NKeep                       0                       0
 Entered Stor2E with KNTT1,2                       2                  130928
 Leave Stor2X
 Entering PrmDigJobTyp =                      20
 LenSav and NKeep                       0                       0
 Entered Stor2E with KNTT1,2                       2                  130912
 Leave Stor2X
 Entering PrmDigJobTyp =                      20
 LenSav and NKeep                       0                       0
 Entered Stor2E with KNTT1,2                       2                  130896
 Leave Stor2X
 Entering PrmDigJobTyp =                      20
 LenSav and NKeep                       0                       0
 Entered Stor2E with KNTT1,2                       2                  130880
 Leave Stor2X
 Entering PrmDigJobTyp =                      20
 LenSav and NKeep                       0                       0
 Entered Stor2E with KNTT1,2                       2                  130864
 Leave Stor2X
 Entering PrmDigJobTyp =                      20
 LenSav and NKeep                       0                       0
 Entered Stor2E with KNTT1,2                       2                  130848
 Leave Stor2X
 Entering PrmDigJobTyp =                      20
 LenSav and NKeep                       0                       0
 Entered Stor2E with KNTT1,2                       2                  130832
 Leave Stor2X
 Entering PrmDigJobTyp =                      20
 LenSav and NKeep                       0                       0
 Entered Stor2E with KNTT1,2                       2                  130816
 Leave Stor2X
 Entering PrmDigJobTyp =                      20
 LenSav and NKeep                       0                       0
 Entered Stor2E with KNTT1,2                       2                  130800
 Leave Stor2X
 Entering PrmDigJobTyp =                      20
 LenSav and NKeep                       0                       0
 Entered Stor2E with KNTT1,2                       2                  130784
 Leave Stor2X
 Entering PrmDigJobTyp =                      20
 LenSav and NKeep                       0                       0
 Entered Stor2E with KNTT1,2                       2                  130768
 Leave Stor2X
 Entering PrmDigJobTyp =                      20
 LenSav and NKeep                       0                       0
 Entered Stor2E with KNTT1,2                       2                  130752
 Leave Stor2X
 Entering PrmDigJobTyp =                      20
 LenSav and NKeep                       0                       0
 Entered Stor2E with KNTT1,2                       2                  130736
 Leave Stor2X
 Entering PrmDigJobTyp =                      20
 LenSav and NKeep                       0                       0
 Entered Stor2E with KNTT1,2                       2                  130720
 Leave Stor2X
 Entering PrmDigJobTyp =                      20
 LenSav and NKeep                       0                       0
 Entered Stor2E with KNTT1,2                       2                  130704
 Leave Stor2X
 Entering PrmDigJobTyp =                      20
 LenSav and NKeep                       0                       0
 Entered Stor2E with KNTT1,2                       2                  130688
 Leave Stor2X
 Entering PrmDigJobTyp =                      20
 LenSav and NKeep                       0                       0
 Entered Stor2E with KNTT1,2                       2                  130672
 Leave Stor2X
 Entering PrmDigJobTyp =                      20
 LenSav and NKeep                       0                       0
 Entered Stor2E with KNTT1,2                       2                  130656
 Leave Stor2X
 Entering PrmDigJobTyp =                      20
 LenSav and NKeep                       0                       0
 Entered Stor2E with KNTT1,2                       2                  130640
 Leave Stor2X
 Entering PrmDigJobTyp =                      20
 LenSav and NKeep                       0                       0
 Entered Stor2E with KNTT1,2                       8                  130620
 Leave Stor2X
 Entering PrmDigJobTyp =                      20
 LenSav and NKeep                       0                       0
 Entered Stor2E with KNTT1,2                      20                  130606
 Leave Stor2X
 Entering PrmDigJobTyp =                      20
 LenSav and NKeep                       0                       0
 Entered Stor2E with KNTT1,2                      34                  130594
 Leave Stor2X
 Entering PrmDigJobTyp =                      20
 LenSav and NKeep                       0                       0
 Entered Stor2E with KNTT1,2                      50                  130584
 Leave Stor2X
 Entering PrmDigJobTyp =                      20
 LenSav and NKeep                       0                       0
 Entered Stor2E with KNTT1,2                      66                  130574
 Leave Stor2X
 Entering PrmDigJobTyp =                      20
 LenSav and NKeep                       0                       0
 Entered Stor2E with KNTT1,2                      82                  130564
 Leave Stor2X
 Entering PrmDigJobTyp =                      20
 LenSav and NKeep                       0                       0
 Entered Stor2E with KNTT1,2                     100                  130556
 Leave Stor2X
 Entering PrmDigJobTyp =                      20
 LenSav and NKeep                       0                       0
 Entered Stor2E with KNTT1,2                     118                  130548
 Leave Stor2X
 Entering PrmDigJobTyp =                      20
 LenSav and NKeep                       0                       0
 Entered Stor2E with KNTT1,2                     138                  130542
 Leave Stor2X
 Entering PrmDigJobTyp =                      20
 LenSav and NKeep                       0                       0
 Entered Stor2E with KNTT1,2                     162                  130540
 Leave Stor2X
 Entering PrmDigJobTyp =                      20
 LenSav and NKeep                       0                       0
 Entered Stor2E with KNTT1,2                     166                  130532
 Leave Stor2X
 Entering PrmDigJobTyp =                      20
 LenSav and NKeep                       0                       0
 Entered Stor2E with KNTT1,2                     166                  130518
 Leave Stor2X
 Entering PrmDigJobTyp =                      20
 LenSav and NKeep                       0                       0
 Entered Stor2E with KNTT1,2                     166                  130504
 Leave Stor2X
 Entering PrmDigJobTyp =                      20
 LenSav and NKeep                       0                       0
 Entered Stor2E with KNTT1,2                     166                  130490
 Leave Stor2X
 Entering PrmDigJobTyp =                      20
 LenSav and NKeep                       0                       0
 Entered Stor2E with KNTT1,2                     166                  130476
 Leave Stor2X
 Entering PrmDigJobTyp =                      20
 LenSav and NKeep                       0                       0
 Entered Stor2E with KNTT1,2                     166                  130462
 Leave Stor2X
 Entering PrmDigJobTyp =                      20
 LenSav and NKeep                       0                       0
 Entered Stor2E with KNTT1,2                     166                  130452
 Leave Stor2X
 Entering PrmDigJobTyp =                      20
 LenSav and NKeep                       0                       0
 Entered Stor2E with KNTT1,2                     174                  130440
 Leave Stor2X
 Entering PrmDigJobTyp =                      20
 LenSav and NKeep                       0                       0
 Entered Stor2E with KNTT1,2                     190                  130436
 Leave Stor2X
 Entering PrmDigJobTyp =                      20
 LenSav and NKeep                       0                       0
 Entered Stor2E with KNTT1,2                     198                  130424
 Leave Stor2X
 Entering PrmDigJobTyp =                      20
 LenSav and NKeep                       0                       0
 Entered Stor2E with KNTT1,2                     214                  130420
 Leave Stor2X
 Entering PrmDigJobTyp =                      20
 LenSav and NKeep                       0                       0
 Entered Stor2E with KNTT1,2                     222                  130408
 Leave Stor2X
 Entering PrmDigJobTyp =                      20
 LenSav and NKeep                       0                       0
 Entered Stor2E with KNTT1,2                     238                  130404
 Leave Stor2X
 Entering PrmDigJobTyp =                      20
 LenSav and NKeep                       0                       0
 Entered Stor2E with KNTT1,2                     238                  130396
 Leave Stor2X
 Entering PrmDigJobTyp =                      20
 LenSav and NKeep                       0                       0
 Entered Stor2E with KNTT1,2                     248                  130390
 Leave Stor2X
 Entering PrmDigJobTyp =                      20
 LenSav and NKeep                       0                       0
 Entered Stor2E with KNTT1,2                     250                  130388
 Leave Stor2X
 Entering PrmDigJobTyp =                      20
 LenSav and NKeep                       0                       0
 Entered Stor2E with KNTT1,2                     250                  130366
 Leave Stor2X
 Entering PrmDigJobTyp =                      20
 LenSav and NKeep                       0                       0
 Entered Stor2E with KNTT1,2                     250                  130344
 Leave Stor2X
 Entering PrmDigJobTyp =                      20
 LenSav and NKeep                       0                       0
 Entered Stor2E with KNTT1,2                     250                  130322
 Leave Stor2X
 Entering PrmDigJobTyp =                      20
 LenSav and NKeep                       0                       0
 Entered Stor2E with KNTT1,2                     250                  130300
 Leave Stor2X
 Entering PrmDigJobTyp =                      20
 LenSav and NKeep                       0                       0
 Entered Stor2E with KNTT1,2                     250                  130278
 Leave Stor2X
 Entering PrmDigJobTyp =                      20
 LenSav and NKeep                       0                       0
 Entered Stor2E with KNTT1,2                     250                  130256
 Leave Stor2X
 Entering PrmDigJobTyp =                      20
 LenSav and NKeep                       0                       0
 Entered Stor2E with KNTT1,2                     250                  130234
 Leave Stor2X
 Entering PrmDigJobTyp =                      20
 LenSav and NKeep                       0                       0
 Entered Stor2E with KNTT1,2                     250                  130212
 Leave Stor2X
 Entering PrmDigJobTyp =                      20
 LenSav and NKeep                       0                       0
 Entered Stor2E with KNTT1,2                     250                  130190
 Leave Stor2X
 Entering PrmDigJobTyp =                      20
 LenSav and NKeep                       0                       0
 Entered Stor2E with KNTT1,2                     250                  130188
 Leave Stor2X
 Entering PrmDigJobTyp =                      20
 LenSav and NKeep                       0                       0
 Entered Stor2E with KNTT1,2                     270                  130174
 Leave Stor2X
 Entering PrmDigJobTyp =                      20
 LenSav and NKeep                       0                       0
 Entered Stor2E with KNTT1,2                     292                  130162
 Leave Stor2X
 Entering PrmDigJobTyp =                      20
 LenSav and NKeep                       0                       0
 Entered Stor2E with KNTT1,2                     312                  130148
 Leave Stor2X
 Entering PrmDigJobTyp =                      20
 LenSav and NKeep                       0                       0
 Entered Stor2E with KNTT1,2                     330                  130132
 Leave Stor2X
 Entering PrmDigJobTyp =                      20
 LenSav and NKeep                       0                       0
 Entered Stor2E with KNTT1,2                     350                  130118
 Leave Stor2X
 Entering PrmDigJobTyp =                      20
 LenSav and NKeep                       0                       0
 Entered Stor2E with KNTT1,2                     370                  130104
 Leave Stor2X
 Entering PrmDigJobTyp =                      20
 LenSav and NKeep                       0                       0
 Entered Stor2E with KNTT1,2                     390                  130090
 Leave Stor2X
 Entering PrmDigJobTyp =                      20
 LenSav and NKeep                       0                       0
 Entered Stor2E with KNTT1,2                     410                  130076
 Leave Stor2X
 Entering PrmDigJobTyp =                      20
 LenSav and NKeep                       0                       0
 Entered Stor2E with KNTT1,2                     434                  130066
 Leave Stor2X
 Entering PrmDigJobTyp =                      20
 LenSav and NKeep                       0                       0
 Entered Stor2E with KNTT1,2                     438                  130056
 Leave Stor2X
 Entering PrmDigJobTyp =                      20
 LenSav and NKeep                       0                       0
 Entered Stor2E with KNTT1,2                     454                  130046
 Leave Stor2X
 Entering PrmDigJobTyp =                      20
 LenSav and NKeep                       0                       0
 Entered Stor2E with KNTT1,2                     468                  130034
 Leave Stor2X
 Entering PrmDigJobTyp =                      20
 LenSav and NKeep                       0                       0
 Entered Stor2E with KNTT1,2                     484                  130024
 Leave Stor2X
 Entering PrmDigJobTyp =                      20
 LenSav and NKeep                       0                       0
 Entered Stor2E with KNTT1,2                     486                  130024
 Leave Stor2X
 Entering PrmDigJobTyp =                      20
 LenSav and NKeep                       0                       0
 Entered Stor2E with KNTT1,2                     508                  130004
 Leave Stor2X
 Entering PrmDigJobTyp =                      20
 LenSav and NKeep                       0                       0
 Entered Stor2E with KNTT1,2                     534                  129988
 Leave Stor2X
 Entering PrmDigJobTyp =                      20
 LenSav and NKeep                       0                       0
 Entered Stor2E with KNTT1,2                     552                  129980
 Leave Stor2X
 Entering PrmDigJobTyp =                      20
 LenSav and NKeep                       0                       0
 Entered Stor2E with KNTT1,2                     552                  129952
 Leave Stor2X
 Entering PrmDigJobTyp =                      20
 LenSav and NKeep                       0                       0
 Entered Stor2E with KNTT1,2                     552                  129924
 Leave Stor2X
 Entering PrmDigJobTyp =                      20
 LenSav and NKeep                       0                       0
 Entered Stor2E with KNTT1,2                     552                  129896
 Leave Stor2X
 Entering PrmDigJobTyp =                      20
 LenSav and NKeep                       0                       0
 Entered Stor2E with KNTT1,2                     552                  129868
 Leave Stor2X
 Entering PrmDigJobTyp =                      20
 LenSav and NKeep                       0                       0
 Entered Stor2E with KNTT1,2                     552                  129840
 Leave Stor2X
 Entering PrmDigJobTyp =                      20
 LenSav and NKeep                       0                       0
 Entered Stor2E with KNTT1,2                     580                  129824
 Leave Stor2X
 Entering PrmDigJobTyp =                      20
 LenSav and NKeep                       0                       0
 Entered Stor2E with KNTT1,2                     606                  129806
 Leave Stor2X
 Entering PrmDigJobTyp =                      20
 LenSav and NKeep                       0                       0
 Entered Stor2E with KNTT1,2                     634                  129790
 Leave Stor2X
 Entering PrmDigJobTyp =                      20
 LenSav and NKeep                       0                       0
 Entered Stor2E with KNTT1,2                     662                  129774
 Leave Stor2X
 Entering PrmDigJobTyp =                      20
 LenSav and NKeep                       0                       0
 Entered Stor2E with KNTT1,2                     692                  129760
 Leave Stor2X
 Entering PrmDigJobTyp =                      20
 LenSav and NKeep                       0                       0
 Entered Stor2E with KNTT1,2                     692                  129756
 Leave Stor2X
 Entering PrmDigJobTyp =                      20
 LenSav and NKeep                       0                       0
 Entered Stor2E with KNTT1,2                     712                  129742
 Leave Stor2X
 Entering PrmDigJobTyp =                      20
 LenSav and NKeep                       0                       0
 Entered Stor2E with KNTT1,2                     728                  129736
 Leave Stor2X
 Entering PrmDigJobTyp =                      20
 LenSav and NKeep                       0                       0
 Entered Stor2E with KNTT1,2                     760                  129712
 Leave Stor2X
 Entering PrmDigJobTyp =                      20
 LenSav and NKeep                       0                       0
 Entered Stor2E with KNTT1,2                     798                  129694
 Leave Stor2X
 Entering PrmDigJobTyp =                      20
 LenSav and NKeep                       0                       0
 Entered Stor2E with KNTT1,2                     812                  129680
 Leave Stor2X
 Entering PrmDigJobTyp =                      20
 LenSav and NKeep                       0                       0
 Entered Stor2E with KNTT1,2                     846                  129658
 Leave Stor2X
 Entering PrmDigJobTyp =                      20
 LenSav and NKeep                       0                       0
 Entered Stor2E with KNTT1,2                     846                  129636
 Leave Stor2X
 Entering PrmDigJobTyp =                      20
 LenSav and NKeep                       0                       0
 Entered Stor2E with KNTT1,2                     846                  129618
 Leave Stor2X
 Entering PrmDigJobTyp =                      20
 LenSav and NKeep                       0                       0
 Entered Stor2E with KNTT1,2                     866                  129604
 Leave Stor2X
 Entering PrmDigJobTyp =                      20
 LenSav and NKeep                       0                       0
 Entered Stor2E with KNTT1,2                     882                  129590
 Leave Stor2X
 Entering PrmDigJobTyp =                      20
 LenSav and NKeep                       0                       0
 Entered Stor2E with KNTT1,2                     890                  129582
 Leave Stor2X
 Entering PrmDigJobTyp =                      20
 LenSav and NKeep                       0                       0
 Entered Stor2E with KNTT1,2                     918                  129570
 Leave Stor2X
 Entering PrmDigJobTyp =                      20
 LenSav and NKeep                       0                       0
 Entered Stor2E with KNTT1,2                     938                  129562
 Leave Stor2X
 Entering PrmDigJobTyp =                      20
 LenSav and NKeep                       0                       0
 Entered Stor2E with KNTT1,2                     940                  129558
 Leave Stor2X
 Entering PrmDigJobTyp =                      20
 LenSav and NKeep                       0                       0
 Entered Stor2E with KNTT1,2                     940                  129522
 Leave Stor2X
 Entering PrmDigJobTyp =                      20
 LenSav and NKeep                       0                       0
 Entered Stor2E with KNTT1,2                     940                  129518
 Leave Stor2X
 Entering PrmDigJobTyp =                      20
 LenSav and NKeep                       0                       0
 Entered Stor2E with KNTT1,2                     978                  129502
 Leave Stor2X
 Entering PrmDigJobTyp =                      20
 LenSav and NKeep                       0                       0
 Entered Stor2E with KNTT1,2                     984                  129498
 Leave Stor2X
 Entering PrmDigJobTyp =                      20
 LenSav and NKeep                       0                       0
 Entered Stor2E with KNTT1,2                     996                  129494
 Leave Stor2X
 Entering PrmDigJobTyp =                      20
 LenSav and NKeep                       0                       0
 Entered Stor2E with KNTT1,2                    1020                  129478
 Leave Stor2X
 Entering PrmDigJobTyp =                      20
 LenSav and NKeep                       0                       0
 Entered Stor2E with KNTT1,2                    1032                  129462
 Leave Stor2X
 Entering PrmDigJobTyp =                      20
 LenSav and NKeep                       0                       0
 Entered Stor2E with KNTT1,2                    1040                  129462
 Leave Stor2X
 Entering PrmDigJobTyp =                      20
 LenSav and NKeep                       0                       0
 Entered Stor2E with KNTT1,2                    1042                  129458
 Leave Stor2X
 Entering PrmDigJobTyp =                      20
 LenSav and NKeep                       0                       0
 Entered Stor2E with KNTT1,2                    1042                  129420
 Leave Stor2X
 Entering PrmDigJobTyp =                      20
 LenSav and NKeep                       0                       0
 Entered Stor2E with KNTT1,2                    1042                  129418
 Leave Stor2X
 Entering PrmDigJobTyp =                      20
 LenSav and NKeep                       0                       0
 Entered Stor2E with KNTT1,2                    1084                  129402
 Leave Stor2X
 Entering PrmDigJobTyp =                      20
 LenSav and NKeep                       0                       0
 Entered Stor2E with KNTT1,2                    1086                  129398
 Leave Stor2X
 Entering PrmDigJobTyp =                      20
 LenSav and NKeep                       0                       0
 Entered Stor2E with KNTT1,2                    1098                  129394
 Leave Stor2X
 Entering PrmDigJobTyp =                      20
 LenSav and NKeep                       0                       0
 Entered Stor2E with KNTT1,2                    1126                  129382
 Leave Stor2X
 Entering PrmDigJobTyp =                      20
 LenSav and NKeep                       0                       0
 Entered Stor2E with KNTT1,2                    1142                  129370
 Leave Stor2X
 Entering PrmDigJobTyp =                      20
 LenSav and NKeep                       0                       0
 Entered Stor2E with KNTT1,2                    1146                  129366
 Leave Stor2X
 Entering PrmDigJobTyp =                      20
 LenSav and NKeep                       0                       0
 Entered Stor2E with KNTT1,2                    1150                  129362
 Leave Stor2X
 Entering PrmDigJobTyp =                      20
 LenSav and NKeep                       0                       0
 Entered Stor2E with KNTT1,2                    1152                  129358
 Leave Stor2X
 Entering PrmDigJobTyp =                      20
 LenSav and NKeep                       0                       0
 Entered Stor2E with KNTT1,2                    1152                  129338
 Leave Stor2X
 Entering PrmDigJobTyp =                      20
 LenSav and NKeep                       0                       0
 Entered Stor2E with KNTT1,2                    1172                  129326
 Leave Stor2X
 Entering PrmDigJobTyp =                      20
 LenSav and NKeep                       0                       0
 Entered Stor2E with KNTT1,2                    1176                  129322
 Leave Stor2X
 Entering PrmDigJobTyp =                      20
 LenSav and NKeep                       0                       0
 Entered Stor2E with KNTT1,2                    1192                  129318
 Leave Stor2X
 Entering PrmDigJobTyp =                      20
 LenSav and NKeep                       0                       0
 Entered Stor2E with KNTT1,2                    1202                  129314
 Leave Stor2X
 Entering PrmDigJobTyp =                      20
 LenSav and NKeep                       0                       0
 Entered Stor2E with KNTT1,2                    1202                  129310
 Leave Stor2X
 Entering PrmDigJobTyp =                      20
 LenSav and NKeep                       0                       0
 Entered Stor2E with KNTT1,2                    1206                  129310
 Leave Stor2X
 Entering PrmDigJobTyp =                      20
 LenSav and NKeep                       0                       0
 Entered Stor2E with KNTT1,2                    1206                  129306
 Leave Stor2X
 Entering PrmDigJobTyp =                      20
 LenSav and NKeep                       0                       0
 Entered Stor2E with KNTT1,2                    1206                  129304
 Leave Stor2X
 Entering PrmDigJobTyp =                      20
 LenSav and NKeep                       0                       0
 Entered Stor2E with KNTT1,2                    1206                  129284
 Leave Stor2X
 Entering PrmDigJobTyp =                      20
 LenSav and NKeep                       0                       0
 Entered Stor2E with KNTT1,2                    1230                  129276
 Leave Stor2X
 Entering PrmDigJobTyp =                      20
 LenSav and NKeep                       0                       0
 Entered Stor2E with KNTT1,2                    1238                  129276
 Leave Stor2X
 Entering PrmDigJobTyp =                      20
 LenSav and NKeep                       0                       0
 Entered Stor2E with KNTT1,2                    1250                  129268
 Leave Stor2X
 Entering PrmDigJobTyp =                      20
 LenSav and NKeep                       0                       0
 Entered Stor2E with KNTT1,2                    1256                  129260
 Leave Stor2X
 Entering PrmDigJobTyp =                      20
 LenSav and NKeep                       0                       0
 Entered Stor2E with KNTT1,2                    1260                  129260
 Leave Stor2X
 Entering PrmDigJobTyp =                      20
 LenSav and NKeep                       0                       0
 Entered Stor2E with KNTT1,2                    1260                  129260
 Leave Stor2X
 Entering PrmDigJobTyp =                      20
 LenSav and NKeep                       0                       0
 Entered Stor2E with KNTT1,2                    1260                  129260
 Leave Stor2X
 In PrSumR
 Called IWRITE
         1535 integrals produced for a total of         1535.
 Initial guess from the checkpoint file:  "h10.chk"
 B after Tr=     0.000000    0.000000    0.000000
         Rot=    0.987726    0.000000    0.000000   -0.156196 Ang= -17.97 deg.
 Mixing orbitals, IMix= 1 IMixAn=  0 NRI=2 NE=   10 Coef=  7.07106781D-01  7.07106781D-01
 Also mixing orbitals    10 and    12 Coef=  7.07106781D-01  7.07106781D-01
 Initial guess <Sx>= 0.0000 <Sy>= 0.0000 <Sz>= 0.0000 <S**2>= 0.5000 S= 0.3660
 Two-electron integrals will be kept in memory, NGetB=      152788.
 Requested convergence on RMS density matrix=1.00D-08 within 128 cycles.
 Requested convergence on MAX density matrix=1.00D-06.
 Requested convergence on             energy=1.00D-06.
 No special actions if energy rises.
 Density File Not Found. Continue as usual
 SCF Done:  E(GHF) =  -5.15343906632     A.U. after   13 cycles
            NFock= 13  Conv=0.54D-08     -V/T= 2.0546
 <Sx>= 0.0000 <Sy>= 0.0000 <Sz>= 0.0000 <S**2>= 1.0000 S= 0.6180
 <L.S>= 0.000000000000E+00
 Range of M.O.s used for correlation:     1    10
 NBasis=    10 NAE=    10 NBE=     0 NFC=     0 NFV=     0
 NROrb=     20 NOA=    10 NOB=     0 NVA=    10 NVB=     0
 jaja DoHack is true or false? T
 jaja in hckghf.F, NBasis=                      10
 jaja in hckGHF/FixOG, LC =                      800
 jaja in hckGHF/FixOG, IRwC=                      548
 bfr conversion (real):
                 1             2             3             4             5 
      1a  0.000000D+00 -0.683859D-02  0.000000D+00  0.117186D-01 -0.104991D-01
      1b  0.365619D-01  0.000000D+00  0.767307D-01  0.000000D+00  0.000000D+00
      2a  0.000000D+00  0.135218D+00  0.000000D+00 -0.270527D+00  0.350816D+00
      2b  0.194671D+00  0.000000D+00  0.305974D+00  0.000000D+00  0.000000D+00
      3a  0.000000D+00  0.136957D+00  0.000000D+00 -0.274201D+00  0.353868D+00
      3b  0.196808D+00  0.000000D+00  0.309368D+00  0.000000D+00  0.000000D+00
      4a  0.000000D+00  0.247739D+00  0.000000D+00 -0.226162D+00 -0.151695D+00
      4b  0.270527D+00  0.000000D+00  0.124428D+00  0.000000D+00  0.000000D+00
      5a  0.000000D+00  0.247277D+00  0.000000D+00 -0.225265D+00 -0.154789D+00
      5b  0.270293D+00  0.000000D+00  0.123387D+00  0.000000D+00  0.000000D+00
      6a  0.000000D+00  0.270293D+00  0.000000D+00  0.123387D+00 -0.275339D+00
      6b  0.247277D+00  0.000000D+00 -0.225265D+00  0.000000D+00  0.000000D+00
      7a  0.000000D+00  0.270527D+00  0.000000D+00  0.124428D+00 -0.272723D+00
      7b  0.247739D+00  0.000000D+00 -0.226162D+00  0.000000D+00  0.000000D+00
      8a  0.000000D+00  0.196808D+00  0.000000D+00  0.309368D+00  0.306408D+00
      8b  0.136957D+00  0.000000D+00 -0.274201D+00  0.000000D+00  0.000000D+00
      9a  0.000000D+00  0.194671D+00  0.000000D+00  0.305974D+00  0.305032D+00
      9b  0.135218D+00  0.000000D+00 -0.270527D+00  0.000000D+00  0.000000D+00
     10a  0.000000D+00  0.365619D-01  0.000000D+00  0.767307D-01  0.124700D+00
     10b -0.683859D-02  0.000000D+00  0.117186D-01  0.000000D+00  0.000000D+00
                 6             7             8             9            10 
      1a  0.000000D+00  0.000000D+00  0.333606D-02  0.537390D-03  0.000000D+00
      1b  0.124700D+00  0.141131D+00  0.000000D+00  0.000000D+00  0.101494D+01
      2a  0.000000D+00  0.000000D+00 -0.284287D+00  0.131099D-01  0.000000D+00
      2b  0.305032D+00  0.178625D+00  0.000000D+00  0.000000D+00 -0.242241D+00
      3a  0.000000D+00  0.000000D+00 -0.282451D+00  0.121885D-01  0.000000D+00
      3b  0.306408D+00  0.175919D+00  0.000000D+00  0.000000D+00 -0.240978D+00
      4a  0.000000D+00  0.000000D+00  0.423836D+00 -0.382469D-01  0.000000D+00
      4b -0.272723D+00 -0.380864D+00  0.000000D+00  0.000000D+00  0.924651D-01
      5a  0.000000D+00  0.000000D+00  0.422225D+00 -0.358519D-01  0.000000D+00
      5b -0.275339D+00 -0.378205D+00  0.000000D+00  0.000000D+00  0.996350D-01
      6a  0.000000D+00  0.000000D+00 -0.378205D+00  0.996350D-01  0.000000D+00
      6b -0.154789D+00  0.422225D+00  0.000000D+00  0.000000D+00 -0.358519D-01
      7a  0.000000D+00  0.000000D+00 -0.380864D+00  0.924651D-01  0.000000D+00
      7b -0.151695D+00  0.423836D+00  0.000000D+00  0.000000D+00 -0.382469D-01
      8a  0.000000D+00  0.000000D+00  0.175919D+00 -0.240978D+00  0.000000D+00
      8b  0.353868D+00 -0.282451D+00  0.000000D+00  0.000000D+00  0.121885D-01
      9a  0.000000D+00  0.000000D+00  0.178625D+00 -0.242241D+00  0.000000D+00
      9b  0.350816D+00 -0.284287D+00  0.000000D+00  0.000000D+00  0.131099D-01
     10a  0.000000D+00  0.000000D+00  0.141131D+00  0.101494D+01  0.000000D+00
     10b -0.104991D-01  0.333606D-02  0.000000D+00  0.000000D+00  0.537390D-03
                11            12            13            14            15 
      1a  0.103542D+01  0.000000D+00  0.000000D+00  0.151838D-01  0.000000D+00
      1b  0.000000D+00 -0.650568D-03 -0.659597D-02  0.000000D+00 -0.590645D-02
      2a -0.143711D+00  0.000000D+00  0.000000D+00  0.549142D+00  0.000000D+00
      2b  0.000000D+00  0.240424D-02 -0.573901D+00  0.000000D+00 -0.967685D+00
      3a -0.131040D+00  0.000000D+00  0.000000D+00 -0.577707D+00  0.000000D+00
      3b  0.000000D+00  0.422091D-03  0.600995D+00  0.000000D+00  0.993583D+00
      4a  0.891723D-02  0.000000D+00  0.000000D+00  0.884120D+00  0.000000D+00
      4b  0.000000D+00 -0.713072D-02 -0.894279D+00  0.000000D+00 -0.577310D+00
      5a  0.497906D-01  0.000000D+00  0.000000D+00 -0.889188D+00  0.000000D+00
      5b  0.000000D+00 -0.598259D-02  0.898644D+00  0.000000D+00  0.535398D+00
      6a -0.598259D-02  0.000000D+00  0.000000D+00  0.898644D+00  0.000000D+00
      6b  0.000000D+00  0.497906D-01 -0.889188D+00  0.000000D+00  0.571648D+00
      7a -0.713072D-02  0.000000D+00  0.000000D+00 -0.894279D+00  0.000000D+00
      7b  0.000000D+00  0.891723D-02  0.884120D+00  0.000000D+00 -0.612308D+00
      8a  0.422092D-03  0.000000D+00  0.000000D+00  0.600995D+00  0.000000D+00
      8b  0.000000D+00 -0.131040D+00 -0.577707D+00  0.000000D+00  0.983461D+00
      9a  0.240424D-02  0.000000D+00  0.000000D+00 -0.573901D+00  0.000000D+00
      9b  0.000000D+00 -0.143711D+00  0.549142D+00  0.000000D+00 -0.955525D+00
     10a -0.650569D-03  0.000000D+00  0.000000D+00 -0.659597D-02  0.000000D+00
     10b  0.000000D+00  0.103542D+01  0.151838D-01  0.000000D+00 -0.120160D-01
                16            17            18            19            20 
      1a -0.120160D-01 -0.338067D-02  0.183219D-05  0.000000D+00  0.123211D-01
      1b  0.000000D+00  0.111622D-05  0.205959D-02  0.764943D-02  0.000000D+00
      2a -0.955525D+00  0.104402D+01 -0.565818D-03  0.000000D+00 -0.699292D+00
      2b  0.000000D+00 -0.559665D-03 -0.103267D+01 -0.680018D+00  0.000000D+00
      3a  0.983461D+00 -0.103683D+01  0.561919D-03  0.000000D+00  0.663263D+00
      3b  0.000000D+00  0.555377D-03  0.102475D+01  0.645181D+00  0.000000D+00
      4a -0.612308D+00 -0.620775D+00  0.336436D-03  0.000000D+00  0.114898D+01
      4b  0.000000D+00  0.354161D-03  0.653480D+00  0.114107D+01  0.000000D+00
      5a  0.571648D+00  0.677795D+00 -0.367338D-03  0.000000D+00 -0.113327D+01
      5b  0.000000D+00 -0.384400D-03 -0.709276D+00 -0.112456D+01  0.000000D+00
      6a  0.535398D+00 -0.709276D+00  0.384400D-03  0.000000D+00 -0.112456D+01
      6b  0.000000D+00  0.367338D-03  0.677795D+00 -0.113327D+01  0.000000D+00
      7a -0.577310D+00  0.653480D+00 -0.354161D-03  0.000000D+00  0.114107D+01
      7b  0.000000D+00 -0.336436D-03 -0.620775D+00  0.114898D+01  0.000000D+00
      8a  0.993583D+00  0.102475D+01 -0.555377D-03  0.000000D+00  0.645181D+00
      8b  0.000000D+00 -0.561919D-03 -0.103683D+01  0.663263D+00  0.000000D+00
      9a -0.967685D+00 -0.103267D+01  0.559665D-03  0.000000D+00 -0.680018D+00
      9b  0.000000D+00  0.565818D-03  0.104402D+01 -0.699292D+00  0.000000D+00
     10a -0.590645D-02  0.205959D-02 -0.111622D-05  0.000000D+00  0.764943D-02
     10b  0.000000D+00 -0.183219D-05 -0.338067D-02  0.123211D-01  0.000000D+00
 bfr conversion (imaginary):
                 1             2             3             4             5 
      1a  0.000000D+00  0.000000D+00  0.000000D+00  0.000000D+00  0.000000D+00
      1b  0.000000D+00  0.000000D+00  0.000000D+00  0.000000D+00  0.000000D+00
      2a  0.000000D+00  0.000000D+00  0.000000D+00  0.000000D+00  0.000000D+00
      2b  0.000000D+00  0.000000D+00  0.000000D+00  0.000000D+00  0.000000D+00
      3a  0.000000D+00  0.000000D+00  0.000000D+00  0.000000D+00  0.000000D+00
      3b  0.000000D+00  0.000000D+00  0.000000D+00  0.000000D+00  0.000000D+00
      4a  0.000000D+00  0.000000D+00  0.000000D+00  0.000000D+00  0.000000D+00
      4b  0.000000D+00  0.000000D+00  0.000000D+00  0.000000D+00  0.000000D+00
      5a  0.000000D+00  0.000000D+00  0.000000D+00  0.000000D+00  0.000000D+00
      5b  0.000000D+00  0.000000D+00  0.000000D+00  0.000000D+00  0.000000D+00
      6a  0.000000D+00  0.000000D+00  0.000000D+00  0.000000D+00  0.000000D+00
      6b  0.000000D+00  0.000000D+00  0.000000D+00  0.000000D+00  0.000000D+00
      7a  0.000000D+00  0.000000D+00  0.000000D+00  0.000000D+00  0.000000D+00
      7b  0.000000D+00  0.000000D+00  0.000000D+00  0.000000D+00  0.000000D+00
      8a  0.000000D+00  0.000000D+00  0.000000D+00  0.000000D+00  0.000000D+00
      8b  0.000000D+00  0.000000D+00  0.000000D+00  0.000000D+00  0.000000D+00
      9a  0.000000D+00  0.000000D+00  0.000000D+00  0.000000D+00  0.000000D+00
      9b  0.000000D+00  0.000000D+00  0.000000D+00  0.000000D+00  0.000000D+00
     10a  0.000000D+00  0.000000D+00  0.000000D+00  0.000000D+00  0.000000D+00
     10b  0.000000D+00  0.000000D+00  0.000000D+00  0.000000D+00  0.000000D+00
                 6             7             8             9            10 
      1a  0.000000D+00  0.000000D+00  0.000000D+00  0.000000D+00  0.000000D+00
      1b  0.000000D+00  0.000000D+00  0.000000D+00  0.000000D+00  0.000000D+00
      2a  0.000000D+00  0.000000D+00  0.000000D+00  0.000000D+00  0.000000D+00
      2b  0.000000D+00  0.000000D+00  0.000000D+00  0.000000D+00  0.000000D+00
      3a  0.000000D+00  0.000000D+00  0.000000D+00  0.000000D+00  0.000000D+00
      3b  0.000000D+00  0.000000D+00  0.000000D+00  0.000000D+00  0.000000D+00
      4a  0.000000D+00  0.000000D+00  0.000000D+00  0.000000D+00  0.000000D+00
      4b  0.000000D+00  0.000000D+00  0.000000D+00  0.000000D+00  0.000000D+00
      5a  0.000000D+00  0.000000D+00  0.000000D+00  0.000000D+00  0.000000D+00
      5b  0.000000D+00  0.000000D+00  0.000000D+00  0.000000D+00  0.000000D+00
      6a  0.000000D+00  0.000000D+00  0.000000D+00  0.000000D+00  0.000000D+00
      6b  0.000000D+00  0.000000D+00  0.000000D+00  0.000000D+00  0.000000D+00
      7a  0.000000D+00  0.000000D+00  0.000000D+00  0.000000D+00  0.000000D+00
      7b  0.000000D+00  0.000000D+00  0.000000D+00  0.000000D+00  0.000000D+00
      8a  0.000000D+00  0.000000D+00  0.000000D+00  0.000000D+00  0.000000D+00
      8b  0.000000D+00  0.000000D+00  0.000000D+00  0.000000D+00  0.000000D+00
      9a  0.000000D+00  0.000000D+00  0.000000D+00  0.000000D+00  0.000000D+00
      9b  0.000000D+00  0.000000D+00  0.000000D+00  0.000000D+00  0.000000D+00
     10a  0.000000D+00  0.000000D+00  0.000000D+00  0.000000D+00  0.000000D+00
     10b  0.000000D+00  0.000000D+00  0.000000D+00  0.000000D+00  0.000000D+00
                11            12            13            14            15 
      1a  0.000000D+00  0.000000D+00  0.000000D+00  0.000000D+00  0.000000D+00
      1b  0.000000D+00  0.000000D+00  0.000000D+00  0.000000D+00  0.000000D+00
      2a  0.000000D+00  0.000000D+00  0.000000D+00  0.000000D+00  0.000000D+00
      2b  0.000000D+00  0.000000D+00  0.000000D+00  0.000000D+00  0.000000D+00
      3a  0.000000D+00  0.000000D+00  0.000000D+00  0.000000D+00  0.000000D+00
      3b  0.000000D+00  0.000000D+00  0.000000D+00  0.000000D+00  0.000000D+00
      4a  0.000000D+00  0.000000D+00  0.000000D+00  0.000000D+00  0.000000D+00
      4b  0.000000D+00  0.000000D+00  0.000000D+00  0.000000D+00  0.000000D+00
      5a  0.000000D+00  0.000000D+00  0.000000D+00  0.000000D+00  0.000000D+00
      5b  0.000000D+00  0.000000D+00  0.000000D+00  0.000000D+00  0.000000D+00
      6a  0.000000D+00  0.000000D+00  0.000000D+00  0.000000D+00  0.000000D+00
      6b  0.000000D+00  0.000000D+00  0.000000D+00  0.000000D+00  0.000000D+00
      7a  0.000000D+00  0.000000D+00  0.000000D+00  0.000000D+00  0.000000D+00
      7b  0.000000D+00  0.000000D+00  0.000000D+00  0.000000D+00  0.000000D+00
      8a  0.000000D+00  0.000000D+00  0.000000D+00  0.000000D+00  0.000000D+00
      8b  0.000000D+00  0.000000D+00  0.000000D+00  0.000000D+00  0.000000D+00
      9a  0.000000D+00  0.000000D+00  0.000000D+00  0.000000D+00  0.000000D+00
      9b  0.000000D+00  0.000000D+00  0.000000D+00  0.000000D+00  0.000000D+00
     10a  0.000000D+00  0.000000D+00  0.000000D+00  0.000000D+00  0.000000D+00
     10b  0.000000D+00  0.000000D+00  0.000000D+00  0.000000D+00  0.000000D+00
                16            17            18            19            20 
      1a  0.000000D+00  0.000000D+00  0.000000D+00  0.000000D+00  0.000000D+00
      1b  0.000000D+00  0.000000D+00  0.000000D+00  0.000000D+00  0.000000D+00
      2a  0.000000D+00  0.000000D+00  0.000000D+00  0.000000D+00  0.000000D+00
      2b  0.000000D+00  0.000000D+00  0.000000D+00  0.000000D+00  0.000000D+00
      3a  0.000000D+00  0.000000D+00  0.000000D+00  0.000000D+00  0.000000D+00
      3b  0.000000D+00  0.000000D+00  0.000000D+00  0.000000D+00  0.000000D+00
      4a  0.000000D+00  0.000000D+00  0.000000D+00  0.000000D+00  0.000000D+00
      4b  0.000000D+00  0.000000D+00  0.000000D+00  0.000000D+00  0.000000D+00
      5a  0.000000D+00  0.000000D+00  0.000000D+00  0.000000D+00  0.000000D+00
      5b  0.000000D+00  0.000000D+00  0.000000D+00  0.000000D+00  0.000000D+00
      6a  0.000000D+00  0.000000D+00  0.000000D+00  0.000000D+00  0.000000D+00
      6b  0.000000D+00  0.000000D+00  0.000000D+00  0.000000D+00  0.000000D+00
      7a  0.000000D+00  0.000000D+00  0.000000D+00  0.000000D+00  0.000000D+00
      7b  0.000000D+00  0.000000D+00  0.000000D+00  0.000000D+00  0.000000D+00
      8a  0.000000D+00  0.000000D+00  0.000000D+00  0.000000D+00  0.000000D+00
      8b  0.000000D+00  0.000000D+00  0.000000D+00  0.000000D+00  0.000000D+00
      9a  0.000000D+00  0.000000D+00  0.000000D+00  0.000000D+00  0.000000D+00
      9b  0.000000D+00  0.000000D+00  0.000000D+00  0.000000D+00  0.000000D+00
     10a  0.000000D+00  0.000000D+00  0.000000D+00  0.000000D+00  0.000000D+00
     10b  0.000000D+00  0.000000D+00  0.000000D+00  0.000000D+00  0.000000D+00
 afr conversion (alpha, real):
                 1             2             3             4             5 
      1   0.000000D+00 -0.683859D-02  0.000000D+00  0.117186D-01 -0.104991D-01
      2   0.000000D+00  0.135218D+00  0.000000D+00 -0.270527D+00  0.350816D+00
      3   0.000000D+00  0.136957D+00  0.000000D+00 -0.274201D+00  0.353868D+00
      4   0.000000D+00  0.247739D+00  0.000000D+00 -0.226162D+00 -0.151695D+00
      5   0.000000D+00  0.247277D+00  0.000000D+00 -0.225265D+00 -0.154789D+00
      6   0.000000D+00  0.270293D+00  0.000000D+00  0.123387D+00 -0.275339D+00
      7   0.000000D+00  0.270527D+00  0.000000D+00  0.124428D+00 -0.272723D+00
      8   0.000000D+00  0.196808D+00  0.000000D+00  0.309368D+00  0.306408D+00
      9   0.000000D+00  0.194671D+00  0.000000D+00  0.305974D+00  0.305032D+00
     10   0.000000D+00  0.365619D-01  0.000000D+00  0.767307D-01  0.124700D+00
                 6             7             8             9            10 
      1   0.000000D+00  0.000000D+00  0.333606D-02  0.537390D-03  0.000000D+00
      2   0.000000D+00  0.000000D+00 -0.284287D+00  0.131099D-01  0.000000D+00
      3   0.000000D+00  0.000000D+00 -0.282451D+00  0.121885D-01  0.000000D+00
      4   0.000000D+00  0.000000D+00  0.423836D+00 -0.382469D-01  0.000000D+00
      5   0.000000D+00  0.000000D+00  0.422225D+00 -0.358519D-01  0.000000D+00
      6   0.000000D+00  0.000000D+00 -0.378205D+00  0.996350D-01  0.000000D+00
      7   0.000000D+00  0.000000D+00 -0.380864D+00  0.924651D-01  0.000000D+00
      8   0.000000D+00  0.000000D+00  0.175919D+00 -0.240978D+00  0.000000D+00
      9   0.000000D+00  0.000000D+00  0.178625D+00 -0.242241D+00  0.000000D+00
     10   0.000000D+00  0.000000D+00  0.141131D+00  0.101494D+01  0.000000D+00
                11            12            13            14            15 
      1   0.103542D+01  0.000000D+00  0.000000D+00  0.151838D-01  0.000000D+00
      2  -0.143711D+00  0.000000D+00  0.000000D+00  0.549142D+00  0.000000D+00
      3  -0.131040D+00  0.000000D+00  0.000000D+00 -0.577707D+00  0.000000D+00
      4   0.891723D-02  0.000000D+00  0.000000D+00  0.884120D+00  0.000000D+00
      5   0.497906D-01  0.000000D+00  0.000000D+00 -0.889188D+00  0.000000D+00
      6  -0.598259D-02  0.000000D+00  0.000000D+00  0.898644D+00  0.000000D+00
      7  -0.713072D-02  0.000000D+00  0.000000D+00 -0.894279D+00  0.000000D+00
      8   0.422092D-03  0.000000D+00  0.000000D+00  0.600995D+00  0.000000D+00
      9   0.240424D-02  0.000000D+00  0.000000D+00 -0.573901D+00  0.000000D+00
     10  -0.650569D-03  0.000000D+00  0.000000D+00 -0.659597D-02  0.000000D+00
                16            17            18            19            20 
      1  -0.120160D-01 -0.338067D-02  0.183219D-05  0.000000D+00  0.123211D-01
      2  -0.955525D+00  0.104402D+01 -0.565818D-03  0.000000D+00 -0.699292D+00
      3   0.983461D+00 -0.103683D+01  0.561919D-03  0.000000D+00  0.663263D+00
      4  -0.612308D+00 -0.620775D+00  0.336436D-03  0.000000D+00  0.114898D+01
      5   0.571648D+00  0.677795D+00 -0.367338D-03  0.000000D+00 -0.113327D+01
      6   0.535398D+00 -0.709276D+00  0.384400D-03  0.000000D+00 -0.112456D+01
      7  -0.577310D+00  0.653480D+00 -0.354161D-03  0.000000D+00  0.114107D+01
      8   0.993583D+00  0.102475D+01 -0.555377D-03  0.000000D+00  0.645181D+00
      9  -0.967685D+00 -0.103267D+01  0.559665D-03  0.000000D+00 -0.680018D+00
     10  -0.590645D-02  0.205959D-02 -0.111622D-05  0.000000D+00  0.764943D-02
 afr conversion (alpha, imaginary):
                 1             2             3             4             5 
      1   0.000000D+00  0.000000D+00  0.000000D+00  0.000000D+00  0.000000D+00
      2   0.000000D+00  0.000000D+00  0.000000D+00  0.000000D+00  0.000000D+00
      3   0.000000D+00  0.000000D+00  0.000000D+00  0.000000D+00  0.000000D+00
      4   0.000000D+00  0.000000D+00  0.000000D+00  0.000000D+00  0.000000D+00
      5   0.000000D+00  0.000000D+00  0.000000D+00  0.000000D+00  0.000000D+00
      6   0.000000D+00  0.000000D+00  0.000000D+00  0.000000D+00  0.000000D+00
      7   0.000000D+00  0.000000D+00  0.000000D+00  0.000000D+00  0.000000D+00
      8   0.000000D+00  0.000000D+00  0.000000D+00  0.000000D+00  0.000000D+00
      9   0.000000D+00  0.000000D+00  0.000000D+00  0.000000D+00  0.000000D+00
     10   0.000000D+00  0.000000D+00  0.000000D+00  0.000000D+00  0.000000D+00
                 6             7             8             9            10 
      1   0.000000D+00  0.000000D+00  0.000000D+00  0.000000D+00  0.000000D+00
      2   0.000000D+00  0.000000D+00  0.000000D+00  0.000000D+00  0.000000D+00
      3   0.000000D+00  0.000000D+00  0.000000D+00  0.000000D+00  0.000000D+00
      4   0.000000D+00  0.000000D+00  0.000000D+00  0.000000D+00  0.000000D+00
      5   0.000000D+00  0.000000D+00  0.000000D+00  0.000000D+00  0.000000D+00
      6   0.000000D+00  0.000000D+00  0.000000D+00  0.000000D+00  0.000000D+00
      7   0.000000D+00  0.000000D+00  0.000000D+00  0.000000D+00  0.000000D+00
      8   0.000000D+00  0.000000D+00  0.000000D+00  0.000000D+00  0.000000D+00
      9   0.000000D+00  0.000000D+00  0.000000D+00  0.000000D+00  0.000000D+00
     10   0.000000D+00  0.000000D+00  0.000000D+00  0.000000D+00  0.000000D+00
                11            12            13            14            15 
      1   0.000000D+00  0.000000D+00  0.000000D+00  0.000000D+00  0.000000D+00
      2   0.000000D+00  0.000000D+00  0.000000D+00  0.000000D+00  0.000000D+00
      3   0.000000D+00  0.000000D+00  0.000000D+00  0.000000D+00  0.000000D+00
      4   0.000000D+00  0.000000D+00  0.000000D+00  0.000000D+00  0.000000D+00
      5   0.000000D+00  0.000000D+00  0.000000D+00  0.000000D+00  0.000000D+00
      6   0.000000D+00  0.000000D+00  0.000000D+00  0.000000D+00  0.000000D+00
      7   0.000000D+00  0.000000D+00  0.000000D+00  0.000000D+00  0.000000D+00
      8   0.000000D+00  0.000000D+00  0.000000D+00  0.000000D+00  0.000000D+00
      9   0.000000D+00  0.000000D+00  0.000000D+00  0.000000D+00  0.000000D+00
     10   0.000000D+00  0.000000D+00  0.000000D+00  0.000000D+00  0.000000D+00
                16            17            18            19            20 
      1   0.000000D+00  0.000000D+00  0.000000D+00  0.000000D+00  0.000000D+00
      2   0.000000D+00  0.000000D+00  0.000000D+00  0.000000D+00  0.000000D+00
      3   0.000000D+00  0.000000D+00  0.000000D+00  0.000000D+00  0.000000D+00
      4   0.000000D+00  0.000000D+00  0.000000D+00  0.000000D+00  0.000000D+00
      5   0.000000D+00  0.000000D+00  0.000000D+00  0.000000D+00  0.000000D+00
      6   0.000000D+00  0.000000D+00  0.000000D+00  0.000000D+00  0.000000D+00
      7   0.000000D+00  0.000000D+00  0.000000D+00  0.000000D+00  0.000000D+00
      8   0.000000D+00  0.000000D+00  0.000000D+00  0.000000D+00  0.000000D+00
      9   0.000000D+00  0.000000D+00  0.000000D+00  0.000000D+00  0.000000D+00
     10   0.000000D+00  0.000000D+00  0.000000D+00  0.000000D+00  0.000000D+00
 afr conversion (beta, real):
                 1             2             3             4             5 
      1   0.365619D-01  0.000000D+00  0.767307D-01  0.000000D+00  0.000000D+00
      2   0.194671D+00  0.000000D+00  0.305974D+00  0.000000D+00  0.000000D+00
      3   0.196808D+00  0.000000D+00  0.309368D+00  0.000000D+00  0.000000D+00
      4   0.270527D+00  0.000000D+00  0.124428D+00  0.000000D+00  0.000000D+00
      5   0.270293D+00  0.000000D+00  0.123387D+00  0.000000D+00  0.000000D+00
      6   0.247277D+00  0.000000D+00 -0.225265D+00  0.000000D+00  0.000000D+00
      7   0.247739D+00  0.000000D+00 -0.226162D+00  0.000000D+00  0.000000D+00
      8   0.136957D+00  0.000000D+00 -0.274201D+00  0.000000D+00  0.000000D+00
      9   0.135218D+00  0.000000D+00 -0.270527D+00  0.000000D+00  0.000000D+00
     10  -0.683859D-02  0.000000D+00  0.117186D-01  0.000000D+00  0.000000D+00
                 6             7             8             9            10 
      1   0.124700D+00  0.141131D+00  0.000000D+00  0.000000D+00  0.101494D+01
      2   0.305032D+00  0.178625D+00  0.000000D+00  0.000000D+00 -0.242241D+00
      3   0.306408D+00  0.175919D+00  0.000000D+00  0.000000D+00 -0.240978D+00
      4  -0.272723D+00 -0.380864D+00  0.000000D+00  0.000000D+00  0.924651D-01
      5  -0.275339D+00 -0.378205D+00  0.000000D+00  0.000000D+00  0.996350D-01
      6  -0.154789D+00  0.422225D+00  0.000000D+00  0.000000D+00 -0.358519D-01
      7  -0.151695D+00  0.423836D+00  0.000000D+00  0.000000D+00 -0.382469D-01
      8   0.353868D+00 -0.282451D+00  0.000000D+00  0.000000D+00  0.121885D-01
      9   0.350816D+00 -0.284287D+00  0.000000D+00  0.000000D+00  0.131099D-01
     10  -0.104991D-01  0.333606D-02  0.000000D+00  0.000000D+00  0.537390D-03
                11            12            13            14            15 
      1   0.000000D+00 -0.650568D-03 -0.659597D-02  0.000000D+00 -0.590645D-02
      2   0.000000D+00  0.240424D-02 -0.573901D+00  0.000000D+00 -0.967685D+00
      3   0.000000D+00  0.422091D-03  0.600995D+00  0.000000D+00  0.993583D+00
      4   0.000000D+00 -0.713072D-02 -0.894279D+00  0.000000D+00 -0.577310D+00
      5   0.000000D+00 -0.598259D-02  0.898644D+00  0.000000D+00  0.535398D+00
      6   0.000000D+00  0.497906D-01 -0.889188D+00  0.000000D+00  0.571648D+00
      7   0.000000D+00  0.891723D-02  0.884120D+00  0.000000D+00 -0.612308D+00
      8   0.000000D+00 -0.131040D+00 -0.577707D+00  0.000000D+00  0.983461D+00
      9   0.000000D+00 -0.143711D+00  0.549142D+00  0.000000D+00 -0.955525D+00
     10   0.000000D+00  0.103542D+01  0.151838D-01  0.000000D+00 -0.120160D-01
                16            17            18            19            20 
      1   0.000000D+00  0.111622D-05  0.205959D-02  0.764943D-02  0.000000D+00
      2   0.000000D+00 -0.559665D-03 -0.103267D+01 -0.680018D+00  0.000000D+00
      3   0.000000D+00  0.555377D-03  0.102475D+01  0.645181D+00  0.000000D+00
      4   0.000000D+00  0.354161D-03  0.653480D+00  0.114107D+01  0.000000D+00
      5   0.000000D+00 -0.384400D-03 -0.709276D+00 -0.112456D+01  0.000000D+00
      6   0.000000D+00  0.367338D-03  0.677795D+00 -0.113327D+01  0.000000D+00
      7   0.000000D+00 -0.336436D-03 -0.620775D+00  0.114898D+01  0.000000D+00
      8   0.000000D+00 -0.561919D-03 -0.103683D+01  0.663263D+00  0.000000D+00
      9   0.000000D+00  0.565818D-03  0.104402D+01 -0.699292D+00  0.000000D+00
     10   0.000000D+00 -0.183219D-05 -0.338067D-02  0.123211D-01  0.000000D+00
 afr conversion (beta, imaginary):
                 1             2             3             4             5 
      1   0.000000D+00  0.000000D+00  0.000000D+00  0.000000D+00  0.000000D+00
      2   0.000000D+00  0.000000D+00  0.000000D+00  0.000000D+00  0.000000D+00
      3   0.000000D+00  0.000000D+00  0.000000D+00  0.000000D+00  0.000000D+00
      4   0.000000D+00  0.000000D+00  0.000000D+00  0.000000D+00  0.000000D+00
      5   0.000000D+00  0.000000D+00  0.000000D+00  0.000000D+00  0.000000D+00
      6   0.000000D+00  0.000000D+00  0.000000D+00  0.000000D+00  0.000000D+00
      7   0.000000D+00  0.000000D+00  0.000000D+00  0.000000D+00  0.000000D+00
      8   0.000000D+00  0.000000D+00  0.000000D+00  0.000000D+00  0.000000D+00
      9   0.000000D+00  0.000000D+00  0.000000D+00  0.000000D+00  0.000000D+00
     10   0.000000D+00  0.000000D+00  0.000000D+00  0.000000D+00  0.000000D+00
                 6             7             8             9            10 
      1   0.000000D+00  0.000000D+00  0.000000D+00  0.000000D+00  0.000000D+00
      2   0.000000D+00  0.000000D+00  0.000000D+00  0.000000D+00  0.000000D+00
      3   0.000000D+00  0.000000D+00  0.000000D+00  0.000000D+00  0.000000D+00
      4   0.000000D+00  0.000000D+00  0.000000D+00  0.000000D+00  0.000000D+00
      5   0.000000D+00  0.000000D+00  0.000000D+00  0.000000D+00  0.000000D+00
      6   0.000000D+00  0.000000D+00  0.000000D+00  0.000000D+00  0.000000D+00
      7   0.000000D+00  0.000000D+00  0.000000D+00  0.000000D+00  0.000000D+00
      8   0.000000D+00  0.000000D+00  0.000000D+00  0.000000D+00  0.000000D+00
      9   0.000000D+00  0.000000D+00  0.000000D+00  0.000000D+00  0.000000D+00
     10   0.000000D+00  0.000000D+00  0.000000D+00  0.000000D+00  0.000000D+00
                11            12            13            14            15 
      1   0.000000D+00  0.000000D+00  0.000000D+00  0.000000D+00  0.000000D+00
      2   0.000000D+00  0.000000D+00  0.000000D+00  0.000000D+00  0.000000D+00
      3   0.000000D+00  0.000000D+00  0.000000D+00  0.000000D+00  0.000000D+00
      4   0.000000D+00  0.000000D+00  0.000000D+00  0.000000D+00  0.000000D+00
      5   0.000000D+00  0.000000D+00  0.000000D+00  0.000000D+00  0.000000D+00
      6   0.000000D+00  0.000000D+00  0.000000D+00  0.000000D+00  0.000000D+00
      7   0.000000D+00  0.000000D+00  0.000000D+00  0.000000D+00  0.000000D+00
      8   0.000000D+00  0.000000D+00  0.000000D+00  0.000000D+00  0.000000D+00
      9   0.000000D+00  0.000000D+00  0.000000D+00  0.000000D+00  0.000000D+00
     10   0.000000D+00  0.000000D+00  0.000000D+00  0.000000D+00  0.000000D+00
                16            17            18            19            20 
      1   0.000000D+00  0.000000D+00  0.000000D+00  0.000000D+00  0.000000D+00
      2   0.000000D+00  0.000000D+00  0.000000D+00  0.000000D+00  0.000000D+00
      3   0.000000D+00  0.000000D+00  0.000000D+00  0.000000D+00  0.000000D+00
      4   0.000000D+00  0.000000D+00  0.000000D+00  0.000000D+00  0.000000D+00
      5   0.000000D+00  0.000000D+00  0.000000D+00  0.000000D+00  0.000000D+00
      6   0.000000D+00  0.000000D+00  0.000000D+00  0.000000D+00  0.000000D+00
      7   0.000000D+00  0.000000D+00  0.000000D+00  0.000000D+00  0.000000D+00
      8   0.000000D+00  0.000000D+00  0.000000D+00  0.000000D+00  0.000000D+00
      9   0.000000D+00  0.000000D+00  0.000000D+00  0.000000D+00  0.000000D+00
     10   0.000000D+00  0.000000D+00  0.000000D+00  0.000000D+00  0.000000D+00
 jaja in hckghf.F, ISPECT =                     548
Spin block MO for GHF transformation
NOA =   10   NOB =   10
NVA =   10   NVB =   10
 NOAvA in Hack                     100
 jaja in tranN3.F, ISPECT =                     548
 in l802/tranN3.F, LSPECT =                      800
 NMat, NBtSiz,MDV                    8372                   16000
                133954722
 TranN3:  NGot= 134217728 NBasic=    263006 NTTT=       550 NMat=      8372.
 Defined bucket =                      51                   10000
 Defined bucket =                      52                   10000
 Defined bucket =                      53                   10000
 Defined bucket =                      55                   10000
 Defined bucket =                      57                   10000
 Defined bucket =                      58                   10000
 Defined bucket =                      60                   10000
 Defined bucket =                      72                   10000
 Defined bucket =                      73                   10000
 Defined bucket =                      74                   10000
 Defined bucket =                      75                   10000
 Defined bucket =                      76                   10000
 (IK/LS) integrals will be saved in memory.
 TrCghf made   2 passes through the AO integrals.
 jaja DoHack is true or false? F
 jaja in hckghf.F, NBasis=                      10
 jaja in hckGHF/FixOG, LC =                      800
 jaja in hckGHF/FixOG, IRwC=                      548
 bfr conversion (alpha, real):
                 1             2             3             4             5 
      1   0.000000D+00 -0.683859D-02  0.000000D+00  0.117186D-01 -0.104991D-01
      2   0.000000D+00  0.135218D+00  0.000000D+00 -0.270527D+00  0.350816D+00
      3   0.000000D+00  0.136957D+00  0.000000D+00 -0.274201D+00  0.353868D+00
      4   0.000000D+00  0.247739D+00  0.000000D+00 -0.226162D+00 -0.151695D+00
      5   0.000000D+00  0.247277D+00  0.000000D+00 -0.225265D+00 -0.154789D+00
      6   0.000000D+00  0.270293D+00  0.000000D+00  0.123387D+00 -0.275339D+00
      7   0.000000D+00  0.270527D+00  0.000000D+00  0.124428D+00 -0.272723D+00
      8   0.000000D+00  0.196808D+00  0.000000D+00  0.309368D+00  0.306408D+00
      9   0.000000D+00  0.194671D+00  0.000000D+00  0.305974D+00  0.305032D+00
     10   0.000000D+00  0.365619D-01  0.000000D+00  0.767307D-01  0.124700D+00
                 6             7             8             9            10 
      1   0.000000D+00  0.000000D+00  0.333606D-02  0.537390D-03  0.000000D+00
      2   0.000000D+00  0.000000D+00 -0.284287D+00  0.131099D-01  0.000000D+00
      3   0.000000D+00  0.000000D+00 -0.282451D+00  0.121885D-01  0.000000D+00
      4   0.000000D+00  0.000000D+00  0.423836D+00 -0.382469D-01  0.000000D+00
      5   0.000000D+00  0.000000D+00  0.422225D+00 -0.358519D-01  0.000000D+00
      6   0.000000D+00  0.000000D+00 -0.378205D+00  0.996350D-01  0.000000D+00
      7   0.000000D+00  0.000000D+00 -0.380864D+00  0.924651D-01  0.000000D+00
      8   0.000000D+00  0.000000D+00  0.175919D+00 -0.240978D+00  0.000000D+00
      9   0.000000D+00  0.000000D+00  0.178625D+00 -0.242241D+00  0.000000D+00
     10   0.000000D+00  0.000000D+00  0.141131D+00  0.101494D+01  0.000000D+00
                11            12            13            14            15 
      1   0.103542D+01  0.000000D+00  0.000000D+00  0.151838D-01  0.000000D+00
      2  -0.143711D+00  0.000000D+00  0.000000D+00  0.549142D+00  0.000000D+00
      3  -0.131040D+00  0.000000D+00  0.000000D+00 -0.577707D+00  0.000000D+00
      4   0.891723D-02  0.000000D+00  0.000000D+00  0.884120D+00  0.000000D+00
      5   0.497906D-01  0.000000D+00  0.000000D+00 -0.889188D+00  0.000000D+00
      6  -0.598259D-02  0.000000D+00  0.000000D+00  0.898644D+00  0.000000D+00
      7  -0.713072D-02  0.000000D+00  0.000000D+00 -0.894279D+00  0.000000D+00
      8   0.422092D-03  0.000000D+00  0.000000D+00  0.600995D+00  0.000000D+00
      9   0.240424D-02  0.000000D+00  0.000000D+00 -0.573901D+00  0.000000D+00
     10  -0.650569D-03  0.000000D+00  0.000000D+00 -0.659597D-02  0.000000D+00
                16            17            18            19            20 
      1  -0.120160D-01 -0.338067D-02  0.183219D-05  0.000000D+00  0.123211D-01
      2  -0.955525D+00  0.104402D+01 -0.565818D-03  0.000000D+00 -0.699292D+00
      3   0.983461D+00 -0.103683D+01  0.561919D-03  0.000000D+00  0.663263D+00
      4  -0.612308D+00 -0.620775D+00  0.336436D-03  0.000000D+00  0.114898D+01
      5   0.571648D+00  0.677795D+00 -0.367338D-03  0.000000D+00 -0.113327D+01
      6   0.535398D+00 -0.709276D+00  0.384400D-03  0.000000D+00 -0.112456D+01
      7  -0.577310D+00  0.653480D+00 -0.354161D-03  0.000000D+00  0.114107D+01
      8   0.993583D+00  0.102475D+01 -0.555377D-03  0.000000D+00  0.645181D+00
      9  -0.967685D+00 -0.103267D+01  0.559665D-03  0.000000D+00 -0.680018D+00
     10  -0.590645D-02  0.205959D-02 -0.111622D-05  0.000000D+00  0.764943D-02
 bfr conversion (alpha, imaginary):
                 1             2             3             4             5 
      1   0.000000D+00  0.000000D+00  0.000000D+00  0.000000D+00  0.000000D+00
      2   0.000000D+00  0.000000D+00  0.000000D+00  0.000000D+00  0.000000D+00
      3   0.000000D+00  0.000000D+00  0.000000D+00  0.000000D+00  0.000000D+00
      4   0.000000D+00  0.000000D+00  0.000000D+00  0.000000D+00  0.000000D+00
      5   0.000000D+00  0.000000D+00  0.000000D+00  0.000000D+00  0.000000D+00
      6   0.000000D+00  0.000000D+00  0.000000D+00  0.000000D+00  0.000000D+00
      7   0.000000D+00  0.000000D+00  0.000000D+00  0.000000D+00  0.000000D+00
      8   0.000000D+00  0.000000D+00  0.000000D+00  0.000000D+00  0.000000D+00
      9   0.000000D+00  0.000000D+00  0.000000D+00  0.000000D+00  0.000000D+00
     10   0.000000D+00  0.000000D+00  0.000000D+00  0.000000D+00  0.000000D+00
                 6             7             8             9            10 
      1   0.000000D+00  0.000000D+00  0.000000D+00  0.000000D+00  0.000000D+00
      2   0.000000D+00  0.000000D+00  0.000000D+00  0.000000D+00  0.000000D+00
      3   0.000000D+00  0.000000D+00  0.000000D+00  0.000000D+00  0.000000D+00
      4   0.000000D+00  0.000000D+00  0.000000D+00  0.000000D+00  0.000000D+00
      5   0.000000D+00  0.000000D+00  0.000000D+00  0.000000D+00  0.000000D+00
      6   0.000000D+00  0.000000D+00  0.000000D+00  0.000000D+00  0.000000D+00
      7   0.000000D+00  0.000000D+00  0.000000D+00  0.000000D+00  0.000000D+00
      8   0.000000D+00  0.000000D+00  0.000000D+00  0.000000D+00  0.000000D+00
      9   0.000000D+00  0.000000D+00  0.000000D+00  0.000000D+00  0.000000D+00
     10   0.000000D+00  0.000000D+00  0.000000D+00  0.000000D+00  0.000000D+00
                11            12            13            14            15 
      1   0.000000D+00  0.000000D+00  0.000000D+00  0.000000D+00  0.000000D+00
      2   0.000000D+00  0.000000D+00  0.000000D+00  0.000000D+00  0.000000D+00
      3   0.000000D+00  0.000000D+00  0.000000D+00  0.000000D+00  0.000000D+00
      4   0.000000D+00  0.000000D+00  0.000000D+00  0.000000D+00  0.000000D+00
      5   0.000000D+00  0.000000D+00  0.000000D+00  0.000000D+00  0.000000D+00
      6   0.000000D+00  0.000000D+00  0.000000D+00  0.000000D+00  0.000000D+00
      7   0.000000D+00  0.000000D+00  0.000000D+00  0.000000D+00  0.000000D+00
      8   0.000000D+00  0.000000D+00  0.000000D+00  0.000000D+00  0.000000D+00
      9   0.000000D+00  0.000000D+00  0.000000D+00  0.000000D+00  0.000000D+00
     10   0.000000D+00  0.000000D+00  0.000000D+00  0.000000D+00  0.000000D+00
                16            17            18            19            20 
      1   0.000000D+00  0.000000D+00  0.000000D+00  0.000000D+00  0.000000D+00
      2   0.000000D+00  0.000000D+00  0.000000D+00  0.000000D+00  0.000000D+00
      3   0.000000D+00  0.000000D+00  0.000000D+00  0.000000D+00  0.000000D+00
      4   0.000000D+00  0.000000D+00  0.000000D+00  0.000000D+00  0.000000D+00
      5   0.000000D+00  0.000000D+00  0.000000D+00  0.000000D+00  0.000000D+00
      6   0.000000D+00  0.000000D+00  0.000000D+00  0.000000D+00  0.000000D+00
      7   0.000000D+00  0.000000D+00  0.000000D+00  0.000000D+00  0.000000D+00
      8   0.000000D+00  0.000000D+00  0.000000D+00  0.000000D+00  0.000000D+00
      9   0.000000D+00  0.000000D+00  0.000000D+00  0.000000D+00  0.000000D+00
     10   0.000000D+00  0.000000D+00  0.000000D+00  0.000000D+00  0.000000D+00
 bfr conversion (beta, real):
                 1             2             3             4             5 
      1   0.365619D-01  0.000000D+00  0.767307D-01  0.000000D+00  0.000000D+00
      2   0.194671D+00  0.000000D+00  0.305974D+00  0.000000D+00  0.000000D+00
      3   0.196808D+00  0.000000D+00  0.309368D+00  0.000000D+00  0.000000D+00
      4   0.270527D+00  0.000000D+00  0.124428D+00  0.000000D+00  0.000000D+00
[...]
      6b 0.500596D-01  0.102311D+00 -0.719095D-02  0.436226D-01 -0.712504D-02
      7a 0.371326D-02 -0.186830D-02  0.648196D-01 -0.700884D-03  0.595303D-01
      7b 0.504339D-01  0.102965D+00 -0.706929D-02  0.469444D-01 -0.702324D-02
      8a-0.203740D-02 -0.267155D-04 -0.123193D-01  0.888053D-03 -0.934308D-02
      8b-0.185402D-01 -0.381341D-01  0.455638D-02 -0.973459D-03  0.431028D-02
      9a-0.194268D-02  0.147871D-03 -0.147266D-01  0.941157D-03 -0.117198D-01
      9b-0.190588D-01 -0.391454D-01  0.466434D-02 -0.290180D-02  0.441480D-02
     10a 0.222411D-02  0.153643D-02  0.306295D-01 -0.439761D-02  0.269440D-01
     10b-0.131567D-02 -0.120629D-02 -0.156703D-01  0.594791D-03 -0.138853D-01
                3b            4a            4b            5a            5b
      3b 0.616414D+00
      4a 0.255622D-02  0.816190D+00
      4b-0.314800D+00 -0.377642D-02  0.797740D+00
      5a 0.234565D-02  0.814302D+00 -0.352757D-02  0.812486D+00
      5b-0.316891D+00 -0.278186D-02  0.796341D+00 -0.253153D-02  0.795014D+00
      6a-0.632340D-03 -0.385945D+00  0.193285D-02 -0.380318D+00  0.133740D-02
      6b 0.384501D-01  0.314657D-02 -0.380316D+00  0.296644D-02 -0.375214D+00
      7a-0.706989D-03 -0.389514D+00  0.162940D-02 -0.383989D+00  0.106562D-02
      7b 0.417677D-01  0.249889D-02 -0.384709D+00  0.235956D-02 -0.379638D+00
      8a 0.657963D-03  0.800085D-01 -0.373037D-02  0.738099D-01 -0.277189D-02
      8b 0.146974D-02 -0.694379D-02  0.653849D-01 -0.627174D-02  0.606632D-01
      9a 0.709479D-03  0.853415D-01 -0.387827D-02  0.791200D-01 -0.290397D-02
      9b-0.432770D-03 -0.709824D-02  0.702957D-01 -0.641300D-02  0.655723D-01
     10a-0.308553D-02 -0.964346D-01  0.194168D-01 -0.849127D-01  0.146081D-01
     10b-0.501218D-04  0.489710D-01 -0.508158D-02  0.434173D-01 -0.266294D-02
                6a            6b            7a            7b            8a
      6a 0.834844D+00
      6b-0.601196D-02  0.819828D+00
      7a 0.832501D+00 -0.456041D-02  0.830483D+00
      7b-0.409792D-02  0.821004D+00 -0.278043D-02  0.822282D+00
      8a-0.432124D+00  0.167873D-01 -0.421335D+00  0.124708D-01  0.907642D+00
      8b 0.205385D-01 -0.380203D+00  0.171651D-01 -0.376927D+00 -0.679717D-01
      9a-0.436542D+00  0.172376D-01 -0.425744D+00  0.128950D-01  0.907053D+00
      9b 0.210660D-01 -0.383647D+00  0.176628D-01 -0.380401D+00 -0.692966D-01
     10a 0.316137D+00 -0.881921D-01  0.276532D+00 -0.693040D-01 -0.108764D+01
     10b-0.152564D+00  0.445494D-01 -0.133388D+00  0.352948D-01  0.518720D+00
                8b            9a            9b           10a           10b
      8b 0.794795D+00
      9a-0.690719D-01  0.906529D+00
      9b 0.791528D+00 -0.703977D-01  0.788330D+00
     10a 0.366069D+00 -0.109447D+01  0.370152D+00  0.570791D+01
     10b-0.198274D+00  0.522111D+00 -0.200081D+00 -0.276937D+01  0.134445D+01
 jaja lower-tri density matrix (imaginary):
                1a            1b            2a            2b            3a
      1a 0.000000D+00
      1b 0.000000D+00  0.000000D+00
      2a 0.000000D+00  0.000000D+00  0.000000D+00
      2b 0.000000D+00  0.000000D+00  0.000000D+00  0.000000D+00
      3a 0.000000D+00  0.000000D+00  0.000000D+00  0.000000D+00  0.000000D+00
      3b 0.000000D+00  0.000000D+00  0.000000D+00  0.000000D+00  0.000000D+00
      4a 0.000000D+00  0.000000D+00  0.000000D+00  0.000000D+00  0.000000D+00
      4b 0.000000D+00  0.000000D+00  0.000000D+00  0.000000D+00  0.000000D+00
      5a 0.000000D+00  0.000000D+00  0.000000D+00  0.000000D+00  0.000000D+00
      5b 0.000000D+00  0.000000D+00  0.000000D+00  0.000000D+00  0.000000D+00
      6a 0.000000D+00  0.000000D+00  0.000000D+00  0.000000D+00  0.000000D+00
      6b 0.000000D+00  0.000000D+00  0.000000D+00  0.000000D+00  0.000000D+00
      7a 0.000000D+00  0.000000D+00  0.000000D+00  0.000000D+00  0.000000D+00
      7b 0.000000D+00  0.000000D+00  0.000000D+00  0.000000D+00  0.000000D+00
      8a 0.000000D+00  0.000000D+00  0.000000D+00  0.000000D+00  0.000000D+00
      8b 0.000000D+00  0.000000D+00  0.000000D+00  0.000000D+00  0.000000D+00
      9a 0.000000D+00  0.000000D+00  0.000000D+00  0.000000D+00  0.000000D+00
      9b 0.000000D+00  0.000000D+00  0.000000D+00  0.000000D+00  0.000000D+00
     10a 0.000000D+00  0.000000D+00  0.000000D+00  0.000000D+00  0.000000D+00
     10b 0.000000D+00  0.000000D+00  0.000000D+00  0.000000D+00  0.000000D+00
                3b            4a            4b            5a            5b
      3b 0.000000D+00
      4a 0.000000D+00  0.000000D+00
      4b 0.000000D+00  0.000000D+00  0.000000D+00
      5a 0.000000D+00  0.000000D+00  0.000000D+00  0.000000D+00
      5b 0.000000D+00  0.000000D+00  0.000000D+00  0.000000D+00  0.000000D+00
      6a 0.000000D+00  0.000000D+00  0.000000D+00  0.000000D+00  0.000000D+00
      6b 0.000000D+00  0.000000D+00  0.000000D+00  0.000000D+00  0.000000D+00
      7a 0.000000D+00  0.000000D+00  0.000000D+00  0.000000D+00  0.000000D+00
      7b 0.000000D+00  0.000000D+00  0.000000D+00  0.000000D+00  0.000000D+00
      8a 0.000000D+00  0.000000D+00  0.000000D+00  0.000000D+00  0.000000D+00
      8b 0.000000D+00  0.000000D+00  0.000000D+00  0.000000D+00  0.000000D+00
      9a 0.000000D+00  0.000000D+00  0.000000D+00  0.000000D+00  0.000000D+00
      9b 0.000000D+00  0.000000D+00  0.000000D+00  0.000000D+00  0.000000D+00
     10a 0.000000D+00  0.000000D+00  0.000000D+00  0.000000D+00  0.000000D+00
     10b 0.000000D+00  0.000000D+00  0.000000D+00  0.000000D+00  0.000000D+00
                6a            6b            7a            7b            8a
      6a 0.000000D+00
      6b 0.000000D+00  0.000000D+00
      7a 0.000000D+00  0.000000D+00  0.000000D+00
      7b 0.000000D+00  0.000000D+00  0.000000D+00  0.000000D+00
      8a 0.000000D+00  0.000000D+00  0.000000D+00  0.000000D+00  0.000000D+00
      8b 0.000000D+00  0.000000D+00  0.000000D+00  0.000000D+00  0.000000D+00
      9a 0.000000D+00  0.000000D+00  0.000000D+00  0.000000D+00  0.000000D+00
      9b 0.000000D+00  0.000000D+00  0.000000D+00  0.000000D+00  0.000000D+00
     10a 0.000000D+00  0.000000D+00  0.000000D+00  0.000000D+00  0.000000D+00
     10b 0.000000D+00  0.000000D+00  0.000000D+00  0.000000D+00  0.000000D+00
                8b            9a            9b           10a           10b
      8b 0.000000D+00
      9a 0.000000D+00  0.000000D+00
      9b 0.000000D+00  0.000000D+00  0.000000D+00
     10a 0.000000D+00  0.000000D+00  0.000000D+00  0.000000D+00
     10b 0.000000D+00  0.000000D+00  0.000000D+00  0.000000D+00  0.000000D+00
 jaja non-ortho density matrix               [Gau-style] (real):
                 1             2             3             4             5 
      1a  0.150067D+00  0.288392D+00 -0.403968D-01  0.785675D-01 -0.404610D-01
      1b  0.288392D+00  0.557231D+00 -0.384322D-01  0.136144D+00 -0.382143D-01
      2a -0.403968D-01 -0.384322D-01  0.764678D+00 -0.996668D-02  0.768140D+00
      2b  0.785675D-01  0.136144D+00 -0.996668D-02  0.612377D+00 -0.103861D-01
      3a -0.404610D-01 -0.382143D-01  0.768140D+00 -0.103861D-01  0.771673D+00
      3b  0.788445D-01  0.136524D+00 -0.106013D-01  0.614366D+00 -0.110255D-01
      4a  0.526567D-02  0.736330D-02 -0.368996D+00  0.227925D-02 -0.365443D+00
      4b -0.101511D+00 -0.196755D+00  0.139508D-01 -0.318705D+00  0.140894D-01
      5a  0.619578D-02  0.897279D-02 -0.371027D+00  0.206137D-02 -0.367528D+00
      5b -0.998737D-01 -0.193512D+00  0.128826D-01 -0.320759D+00  0.130279D-01
      6a  0.401519D-02 -0.147698D-02  0.609039D-01 -0.644729D-03  0.555795D-01
      6b  0.500596D-01  0.102311D+00 -0.719095D-02  0.436226D-01 -0.712504D-02
      7a  0.371326D-02 -0.186830D-02  0.648196D-01 -0.700884D-03  0.595303D-01
      7b  0.504339D-01  0.102965D+00 -0.706929D-02  0.469444D-01 -0.702324D-02
      8a -0.203740D-02 -0.267155D-04 -0.123193D-01  0.888053D-03 -0.934308D-02
      8b -0.185402D-01 -0.381341D-01  0.455638D-02 -0.973459D-03  0.431028D-02
      9a -0.194268D-02  0.147871D-03 -0.147266D-01  0.941157D-03 -0.117198D-01
      9b -0.190588D-01 -0.391454D-01  0.466434D-02 -0.290180D-02  0.441480D-02
     10a  0.222411D-02  0.153643D-02  0.306295D-01 -0.439761D-02  0.269440D-01
     10b -0.131567D-02 -0.120629D-02 -0.156703D-01  0.594791D-03 -0.138853D-01
                 6             7             8             9            10 
      1a  0.788445D-01  0.526567D-02 -0.101511D+00  0.619578D-02 -0.998737D-01
      1b  0.136524D+00  0.736330D-02 -0.196755D+00  0.897279D-02 -0.193512D+00
      2a -0.106013D-01 -0.368996D+00  0.139508D-01 -0.371027D+00  0.128826D-01
      2b  0.614366D+00  0.227925D-02 -0.318705D+00  0.206137D-02 -0.320759D+00
      3a -0.110255D-01 -0.365443D+00  0.140894D-01 -0.367528D+00  0.130279D-01
      3b  0.616414D+00  0.255622D-02 -0.314800D+00  0.234565D-02 -0.316891D+00
      4a  0.255622D-02  0.816190D+00 -0.377642D-02  0.814302D+00 -0.278186D-02
      4b -0.314800D+00 -0.377642D-02  0.797740D+00 -0.352757D-02  0.796341D+00
      5a  0.234565D-02  0.814302D+00 -0.352757D-02  0.812486D+00 -0.253153D-02
      5b -0.316891D+00 -0.278186D-02  0.796341D+00 -0.253153D-02  0.795014D+00
      6a -0.632340D-03 -0.385945D+00  0.193285D-02 -0.380318D+00  0.133740D-02
      6b  0.384501D-01  0.314657D-02 -0.380316D+00  0.296644D-02 -0.375214D+00
      7a -0.706989D-03 -0.389514D+00  0.162940D-02 -0.383989D+00  0.106562D-02
      7b  0.417677D-01  0.249889D-02 -0.384709D+00  0.235956D-02 -0.379638D+00
      8a  0.657963D-03  0.800085D-01 -0.373037D-02  0.738099D-01 -0.277189D-02
      8b  0.146974D-02 -0.694379D-02  0.653849D-01 -0.627174D-02  0.606632D-01
      9a  0.709479D-03  0.853415D-01 -0.387827D-02  0.791200D-01 -0.290397D-02
      9b -0.432770D-03 -0.709824D-02  0.702957D-01 -0.641300D-02  0.655723D-01
     10a -0.308553D-02 -0.964346D-01  0.194168D-01 -0.849127D-01  0.146081D-01
     10b -0.501218D-04  0.489710D-01 -0.508158D-02  0.434173D-01 -0.266294D-02
                11            12            13            14            15 
      1a  0.401519D-02  0.500596D-01  0.371326D-02  0.504339D-01 -0.203740D-02
      1b -0.147698D-02  0.102311D+00 -0.186830D-02  0.102965D+00 -0.267155D-04
      2a  0.609039D-01 -0.719095D-02  0.648196D-01 -0.706929D-02 -0.123193D-01
      2b -0.644729D-03  0.436226D-01 -0.700884D-03  0.469444D-01  0.888053D-03
      3a  0.555795D-01 -0.712504D-02  0.595303D-01 -0.702324D-02 -0.934308D-02
      3b -0.632340D-03  0.384501D-01 -0.706989D-03  0.417677D-01  0.657963D-03
      4a -0.385945D+00  0.314657D-02 -0.389514D+00  0.249889D-02  0.800085D-01
      4b  0.193285D-02 -0.380316D+00  0.162940D-02 -0.384709D+00 -0.373037D-02
      5a -0.380318D+00  0.296644D-02 -0.383989D+00  0.235956D-02  0.738099D-01
      5b  0.133740D-02 -0.375214D+00  0.106562D-02 -0.379638D+00 -0.277189D-02
      6a  0.834844D+00 -0.601196D-02  0.832501D+00 -0.409792D-02 -0.432124D+00
      6b -0.601196D-02  0.819828D+00 -0.456041D-02  0.821004D+00  0.167873D-01
      7a  0.832501D+00 -0.456041D-02  0.830483D+00 -0.278043D-02 -0.421335D+00
      7b -0.409792D-02  0.821004D+00 -0.278043D-02  0.822282D+00  0.124708D-01
      8a -0.432124D+00  0.167873D-01 -0.421335D+00  0.124708D-01  0.907642D+00
      8b  0.205385D-01 -0.380203D+00  0.171651D-01 -0.376927D+00 -0.679717D-01
      9a -0.436542D+00  0.172376D-01 -0.425744D+00  0.128950D-01  0.907053D+00
      9b  0.210660D-01 -0.383647D+00  0.176628D-01 -0.380401D+00 -0.692966D-01
     10a  0.316137D+00 -0.881921D-01  0.276532D+00 -0.693040D-01 -0.108764D+01
     10b -0.152564D+00  0.445494D-01 -0.133388D+00  0.352948D-01  0.518720D+00
                16            17            18            19            20 
      1a -0.185402D-01 -0.194268D-02 -0.190588D-01  0.222411D-02 -0.131567D-02
      1b -0.381341D-01  0.147871D-03 -0.391454D-01  0.153643D-02 -0.120629D-02
      2a  0.455638D-02 -0.147266D-01  0.466434D-02  0.306295D-01 -0.156703D-01
      2b -0.973459D-03  0.941157D-03 -0.290180D-02 -0.439761D-02  0.594791D-03
      3a  0.431028D-02 -0.117198D-01  0.441480D-02  0.269440D-01 -0.138853D-01
      3b  0.146974D-02  0.709479D-03 -0.432770D-03 -0.308553D-02 -0.501218D-04
      4a -0.694379D-02  0.853415D-01 -0.709824D-02 -0.964346D-01  0.489710D-01
      4b  0.653849D-01 -0.387827D-02  0.702957D-01  0.194168D-01 -0.508158D-02
      5a -0.627174D-02  0.791200D-01 -0.641300D-02 -0.849127D-01  0.434173D-01
      5b  0.606632D-01 -0.290397D-02  0.655723D-01  0.146081D-01 -0.266294D-02
      6a  0.205385D-01 -0.436542D+00  0.210660D-01  0.316137D+00 -0.152564D+00
      6b -0.380203D+00  0.172376D-01 -0.383647D+00 -0.881921D-01  0.445494D-01
      7a  0.171651D-01 -0.425744D+00  0.176628D-01  0.276532D+00 -0.133388D+00
      7b -0.376927D+00  0.128950D-01 -0.380401D+00 -0.693040D-01  0.352948D-01
      8a -0.679717D-01  0.907053D+00 -0.692966D-01 -0.108764D+01  0.518720D+00
      8b  0.794795D+00 -0.690719D-01  0.791528D+00  0.366069D+00 -0.198274D+00
      9a -0.690719D-01  0.906529D+00 -0.703977D-01 -0.109447D+01  0.522111D+00
      9b  0.791528D+00 -0.703977D-01  0.788330D+00  0.370152D+00 -0.200081D+00
     10a  0.366069D+00 -0.109447D+01  0.370152D+00  0.570791D+01 -0.276937D+01
     10b -0.198274D+00  0.522111D+00 -0.200081D+00 -0.276937D+01  0.134445D+01
 jaja non-ortho density matrix               [Gau-style] (imaginary):
                 1             2             3             4             5 
      1a  0.000000D+00  0.000000D+00  0.000000D+00  0.000000D+00  0.000000D+00
      1b  0.000000D+00  0.000000D+00  0.000000D+00  0.000000D+00  0.000000D+00
      2a  0.000000D+00  0.000000D+00  0.000000D+00  0.000000D+00  0.000000D+00
      2b  0.000000D+00  0.000000D+00  0.000000D+00  0.000000D+00  0.000000D+00
      3a  0.000000D+00  0.000000D+00  0.000000D+00  0.000000D+00  0.000000D+00
      3b  0.000000D+00  0.000000D+00  0.000000D+00  0.000000D+00  0.000000D+00
      4a  0.000000D+00  0.000000D+00  0.000000D+00  0.000000D+00  0.000000D+00
      4b  0.000000D+00  0.000000D+00  0.000000D+00  0.000000D+00  0.000000D+00
      5a  0.000000D+00  0.000000D+00  0.000000D+00  0.000000D+00  0.000000D+00
      5b  0.000000D+00  0.000000D+00  0.000000D+00  0.000000D+00  0.000000D+00
      6a  0.000000D+00  0.000000D+00  0.000000D+00  0.000000D+00  0.000000D+00
      6b  0.000000D+00  0.000000D+00  0.000000D+00  0.000000D+00  0.000000D+00
      7a  0.000000D+00  0.000000D+00  0.000000D+00  0.000000D+00  0.000000D+00
      7b  0.000000D+00  0.000000D+00  0.000000D+00  0.000000D+00  0.000000D+00
      8a  0.000000D+00  0.000000D+00  0.000000D+00  0.000000D+00  0.000000D+00
      8b  0.000000D+00  0.000000D+00  0.000000D+00  0.000000D+00  0.000000D+00
      9a  0.000000D+00  0.000000D+00  0.000000D+00  0.000000D+00  0.000000D+00
      9b  0.000000D+00  0.000000D+00  0.000000D+00  0.000000D+00  0.000000D+00
     10a  0.000000D+00  0.000000D+00  0.000000D+00  0.000000D+00  0.000000D+00
     10b  0.000000D+00  0.000000D+00  0.000000D+00  0.000000D+00  0.000000D+00
                 6             7             8             9            10 
      1a  0.000000D+00  0.000000D+00  0.000000D+00  0.000000D+00  0.000000D+00
      1b  0.000000D+00  0.000000D+00  0.000000D+00  0.000000D+00  0.000000D+00
      2a  0.000000D+00  0.000000D+00  0.000000D+00  0.000000D+00  0.000000D+00
      2b  0.000000D+00  0.000000D+00  0.000000D+00  0.000000D+00  0.000000D+00
      3a  0.000000D+00  0.000000D+00  0.000000D+00  0.000000D+00  0.000000D+00
      3b  0.000000D+00  0.000000D+00  0.000000D+00  0.000000D+00  0.000000D+00
      4a  0.000000D+00  0.000000D+00  0.000000D+00  0.000000D+00  0.000000D+00
      4b  0.000000D+00  0.000000D+00  0.000000D+00  0.000000D+00  0.000000D+00
      5a  0.000000D+00  0.000000D+00  0.000000D+00  0.000000D+00  0.000000D+00
      5b  0.000000D+00  0.000000D+00  0.000000D+00  0.000000D+00  0.000000D+00
      6a  0.000000D+00  0.000000D+00  0.000000D+00  0.000000D+00  0.000000D+00
      6b  0.000000D+00  0.000000D+00  0.000000D+00  0.000000D+00  0.000000D+00
      7a  0.000000D+00  0.000000D+00  0.000000D+00  0.000000D+00  0.000000D+00
      7b  0.000000D+00  0.000000D+00  0.000000D+00  0.000000D+00  0.000000D+00
      8a  0.000000D+00  0.000000D+00  0.000000D+00  0.000000D+00  0.000000D+00
      8b  0.000000D+00  0.000000D+00  0.000000D+00  0.000000D+00  0.000000D+00
      9a  0.000000D+00  0.000000D+00  0.000000D+00  0.000000D+00  0.000000D+00
      9b  0.000000D+00  0.000000D+00  0.000000D+00  0.000000D+00  0.000000D+00
     10a  0.000000D+00  0.000000D+00  0.000000D+00  0.000000D+00  0.000000D+00
     10b  0.000000D+00  0.000000D+00  0.000000D+00  0.000000D+00  0.000000D+00
                11            12            13            14            15 
      1a  0.000000D+00  0.000000D+00  0.000000D+00  0.000000D+00  0.000000D+00
      1b  0.000000D+00  0.000000D+00  0.000000D+00  0.000000D+00  0.000000D+00
      2a  0.000000D+00  0.000000D+00  0.000000D+00  0.000000D+00  0.000000D+00
      2b  0.000000D+00  0.000000D+00  0.000000D+00  0.000000D+00  0.000000D+00
      3a  0.000000D+00  0.000000D+00  0.000000D+00  0.000000D+00  0.000000D+00
      3b  0.000000D+00  0.000000D+00  0.000000D+00  0.000000D+00  0.000000D+00
      4a  0.000000D+00  0.000000D+00  0.000000D+00  0.000000D+00  0.000000D+00
      4b  0.000000D+00  0.000000D+00  0.000000D+00  0.000000D+00  0.000000D+00
      5a  0.000000D+00  0.000000D+00  0.000000D+00  0.000000D+00  0.000000D+00
      5b  0.000000D+00  0.000000D+00  0.000000D+00  0.000000D+00  0.000000D+00
      6a  0.000000D+00  0.000000D+00  0.000000D+00  0.000000D+00  0.000000D+00
      6b  0.000000D+00  0.000000D+00  0.000000D+00  0.000000D+00  0.000000D+00
      7a  0.000000D+00  0.000000D+00  0.000000D+00  0.000000D+00  0.000000D+00
      7b  0.000000D+00  0.000000D+00  0.000000D+00  0.000000D+00  0.000000D+00
      8a  0.000000D+00  0.000000D+00  0.000000D+00  0.000000D+00  0.000000D+00
      8b  0.000000D+00  0.000000D+00  0.000000D+00  0.000000D+00  0.000000D+00
      9a  0.000000D+00  0.000000D+00  0.000000D+00  0.000000D+00  0.000000D+00
      9b  0.000000D+00  0.000000D+00  0.000000D+00  0.000000D+00  0.000000D+00
     10a  0.000000D+00  0.000000D+00  0.000000D+00  0.000000D+00  0.000000D+00
     10b  0.000000D+00  0.000000D+00  0.000000D+00  0.000000D+00  0.000000D+00
                16            17            18            19            20 
      1a  0.000000D+00  0.000000D+00  0.000000D+00  0.000000D+00  0.000000D+00
      1b  0.000000D+00  0.000000D+00  0.000000D+00  0.000000D+00  0.000000D+00
      2a  0.000000D+00  0.000000D+00  0.000000D+00  0.000000D+00  0.000000D+00
      2b  0.000000D+00  0.000000D+00  0.000000D+00  0.000000D+00  0.000000D+00
      3a  0.000000D+00  0.000000D+00  0.000000D+00  0.000000D+00  0.000000D+00
      3b  0.000000D+00  0.000000D+00  0.000000D+00  0.000000D+00  0.000000D+00
      4a  0.000000D+00  0.000000D+00  0.000000D+00  0.000000D+00  0.000000D+00
      4b  0.000000D+00  0.000000D+00  0.000000D+00  0.000000D+00  0.000000D+00
      5a  0.000000D+00  0.000000D+00  0.000000D+00  0.000000D+00  0.000000D+00
      5b  0.000000D+00  0.000000D+00  0.000000D+00  0.000000D+00  0.000000D+00
      6a  0.000000D+00  0.000000D+00  0.000000D+00  0.000000D+00  0.000000D+00
      6b  0.000000D+00  0.000000D+00  0.000000D+00  0.000000D+00  0.000000D+00
      7a  0.000000D+00  0.000000D+00  0.000000D+00  0.000000D+00  0.000000D+00
      7b  0.000000D+00  0.000000D+00  0.000000D+00  0.000000D+00  0.000000D+00
      8a  0.000000D+00  0.000000D+00  0.000000D+00  0.000000D+00  0.000000D+00
      8b  0.000000D+00  0.000000D+00  0.000000D+00  0.000000D+00  0.000000D+00
      9a  0.000000D+00  0.000000D+00  0.000000D+00  0.000000D+00  0.000000D+00
      9b  0.000000D+00  0.000000D+00  0.000000D+00  0.000000D+00  0.000000D+00
     10a  0.000000D+00  0.000000D+00  0.000000D+00  0.000000D+00  0.000000D+00
     10b  0.000000D+00  0.000000D+00  0.000000D+00  0.000000D+00  0.000000D+00
FORTRAN STOP
