 Entering Gaussian System, Link 0=gdv
 AtFile(1): H.gbs
            H     0
            S   10   1.00
               1000.000000000000            0.000068713567
                316.227766000000            0.000169141320
                100.000000000000            0.000823394812
                 31.622776600000            0.003425569236
                 10.000000000000            0.013951996000
                  3.162277660000            0.056909313560
                  1.000000000000            0.198286399900
                  0.316227766000            0.496922426700
                  0.100000000000            0.369846276400
                  0.031622776600            0.003752720039
            ****
 Initial command:
 /users/lcj1/GHF_hess/exe-dir/l1.exe "/users/lcj1/GHF_hess/h10_2rows/readmixrmY/Gau-31920.inp" -scrdir="/users/lcj1/GHF_hess/h10_2rows/readmixrmY/"
 Entering Link 1 = /users/lcj1/GHF_hess/exe-dir/l1.exe PID=     31921.
  
 Copyright (c) 1988,1990,1992,1993,1995,1998,2003,2009,2012,
            Gaussian, Inc.  All Rights Reserved.
  
 This is the private, development version of
 the Gaussian(R) DV system of programs. It is based on
 the Gaussian(R) 09 system (copyright 2009, Gaussian, Inc.),
 the Gaussian(R) 03 system (copyright 2003, Gaussian, Inc.),
 the Gaussian(R) 98 system (copyright 1998, Gaussian, Inc.),
 the Gaussian(R) 94 system (copyright 1995, Gaussian, Inc.),
 the Gaussian 92(TM) system (copyright 1992, Gaussian, Inc.),
 the Gaussian 90(TM) system (copyright 1990, Gaussian, Inc.),
 the Gaussian 88(TM) system (copyright 1988, Gaussian, Inc.),
 the Gaussian 86(TM) system (copyright 1986, Carnegie Mellon
 University), and the Gaussian 82(TM) system (copyright 1983,
 Carnegie Mellon University). Gaussian is a federally registered
 trademark of Gaussian, Inc.
  
 This software contains proprietary and confidential information,
 including trade secrets, belonging to Gaussian, Inc.
  
 This software is provided under written license and may be
 used, copied, transmitted, or stored only in accord with that
 written license.
  
 The following legend is applicable only to US Government
 contracts under FAR:
  
                    RESTRICTED RIGHTS LEGEND
  
 Use, reproduction and disclosure by the US Government is
 subject to restrictions as set forth in subparagraphs (a)
 and (c) of the Commercial Computer Software - Restricted
 Rights clause in FAR 52.227-19.
  
 Gaussian, Inc.
 340 Quinnipiac St., Bldg. 40, Wallingford CT 06492
  
  
 ---------------------------------------------------------------
 Warning -- This program may not be used in any manner that
 competes with the business of Gaussian, Inc. or will provide
 assistance to any competitor of Gaussian, Inc.  The licensee
 of this program is prohibited from giving any competitor of
 Gaussian, Inc. access to this program.  By using this program,
 the user acknowledges that Gaussian, Inc. is engaged in the
 business of creating and licensing software in the field of
 computational chemistry and represents and warrants to the
 licensee that it is not a competitor of Gaussian, Inc. and that
 it will not use this program in any manner prohibited above.
 ---------------------------------------------------------------
  

 Cite this work as:
 Gaussian Development Version, Revision H.21,
 M. J. Frisch, G. W. Trucks, H. B. Schlegel, G. E. Scuseria, 
 M. A. Robb, J. R. Cheeseman, G. Scalmani, V. Barone, B. Mennucci, 
 G. A. Petersson, H. Nakatsuji, M. Caricato, X. Li, H. P. Hratchian, 
 A. F. Izmaylov, J. Bloino, G. Zheng, J. L. Sonnenberg, W. Liang, 
 M. Hada, M. Ehara, K. Toyota, R. Fukuda, J. Hasegawa, M. Ishida, 
 T. Nakajima, Y. Honda, O. Kitao, H. Nakai, T. Vreven, 
 J. A. Montgomery, Jr., J. E. Peralta, F. Ogliaro, M. Bearpark, 
 J. J. Heyd, E. Brothers, K. N. Kudin, V. N. Staroverov, T. Keith, 
 R. Kobayashi, J. Normand, K. Raghavachari, A. Rendell, J. C. Burant, 
 S. S. Iyengar, J. Tomasi, M. Cossi, N. Rega, J. M. Millam, M. Klene, 
 J. E. Knox, J. B. Cross, V. Bakken, C. Adamo, J. Jaramillo, 
 R. Gomperts, R. E. Stratmann, O. Yazyev, A. J. Austin, R. Cammi, 
 C. Pomelli, J. W. Ochterski, R. L. Martin, K. Morokuma, 
 V. G. Zakrzewski, G. A. Voth, P. Salvador, J. J. Dannenberg, 
 S. Dapprich, P. V. Parandekar, N. J. Mayhall, A. D. Daniels, 
 O. Farkas, J. B. Foresman, J. V. Ortiz, J. Cioslowski, 
 and D. J. Fox, Gaussian, Inc., Wallingford CT, 2010.
 
 ******************************************
 Gaussian DV:  EM64L-GDVRevH.21 13-May-2012
                28-Feb-2017 
 ******************************************
 %chk=h10.chk
 ----------------------------------------------------------------------
 #ghf/gen scf(tight,novaracc,noincfock,fulldiag) stable guess=(read,mix
 ) geom=nocrowd use=l802 use=l902 test
 ----------------------------------------------------------------------
 ********************************************
   THE COMPLEX ERI TRANSFORMATION WITH L802  
        COMPLEX STABILITY WITH L902          
 ********************************************
 1/38=1/1;
 2/12=1,17=6,18=5,40=1/2;
 3/5=7,16=1,25=20,28=1,116=7/1,2,3,20;
 4/5=1,13=-1/1;
 5/5=100001,16=1,32=2,38=6/2;
 8/6=1,10=90,11=11/1,2;
 9/8=4,13=1/1,2;
 6/7=2,8=2,9=2,10=2,28=1/1;
 99/5=1,9=1/99;
 ----------------------------------------------------------------------
 hf stability analysis of h10 triangular lattice, y= 1.0153487862282633
  alpha= 60.750000000000000
 ----------------------------------------------------------------------
 Symbolic Z-Matrix:
 Charge =  0 Multiplicity = 1
 H
 H                    1     1.16373 
 H                    1     1.16373  2     58.5 
 H                    2     1.16373  1     121.5    3     0.       0
 H                    3     1.16373  1     180.     2     0.       0
 H                    4     1.16373  2     180.     1     0.       0
 H                    5     1.16373  3     180.     2     0.       0
 H                    6     1.16373  4     180.     1     0.       0
 H                    7     1.16373  5     180.     2     0.       0
 H                    8     1.16373  6     180.     1     0.       0
 
                          Input orientation:                          
 ---------------------------------------------------------------------
 Center     Atomic      Atomic             Coordinates (Angstroms)
 Number     Number       Type             X           Y           Z
 ---------------------------------------------------------------------
      1          1           0        0.000000    0.000000    0.000000
      2          1           0        0.000000    0.000000    1.163729
      3          1           0        0.992242    0.000000    0.608047
      4          1           0        0.992242    0.000000    1.771775
      5          1           0        1.984484    0.000000    1.216093
      6          1           0        1.984484    0.000000    2.379822
      7          1           0        2.976726    0.000000    1.824140
      8          1           0        2.976726    0.000000    2.987869
      9          1           0        3.968968    0.000000    2.432187
     10          1           0        3.968968    0.000000    3.595915
 ---------------------------------------------------------------------
                    Distance matrix (angstroms):
                    1          2          3          4          5
     1  H    0.000000
     2  H    1.163729   0.000000
     3  H    1.163729   1.137245   0.000000
     4  H    2.030698   1.163729   1.163729   0.000000
     5  H    2.327458   1.985175   1.163729   1.137245   0.000000
     6  H    3.098666   2.327458   2.030698   1.163729   1.163729
     7  H    3.491187   3.049105   2.327458   1.985175   1.163729
     8  H    4.217613   3.491187   3.098666   2.327458   2.030698
     9  H    4.654915   4.166736   3.491187   3.049105   2.327458
    10  H    5.355680   4.654915   4.217613   3.491187   3.098666
                    6          7          8          9         10
     6  H    0.000000
     7  H    1.137245   0.000000
     8  H    1.163729   1.163729   0.000000
     9  H    1.985175   1.163729   1.137245   0.000000
    10  H    2.327458   2.030698   1.163729   1.163729   0.000000
 Stoichiometry    H10
 Framework group  C2H[SGH(H10)]
 Deg. of freedom     9
 Full point group                 C2H     NOp   4
 Largest Abelian subgroup         C2H     NOp   4
 Largest concise Abelian subgroup C2      NOp   2
                         Standard orientation:                         
 ---------------------------------------------------------------------
 Center     Atomic      Atomic             Coordinates (Angstroms)
 Number     Number       Type             X           Y           Z
 ---------------------------------------------------------------------
      1          1           0        1.984484    1.797958    0.000000
      2          1           0        1.984484    0.634229    0.000000
      3          1           0        0.992242    1.189911    0.000000
      4          1           0        0.992242    0.026182    0.000000
      5          1           0        0.000000    0.581864    0.000000
      6          1           0        0.000000   -0.581864    0.000000
      7          1           0       -0.992242   -0.026182    0.000000
      8          1           0       -0.992242   -1.189911    0.000000
      9          1           0       -1.984484   -0.634229    0.000000
     10          1           0       -1.984484   -1.797958    0.000000
 ---------------------------------------------------------------------
 Rotational constants (GHZ):    211.3508161     17.8464324     16.4568208
 General basis read from cards:  (5D, 7F)
 There are     5 symmetry adapted cartesian basis functions of AG  symmetry.
 There are     0 symmetry adapted cartesian basis functions of BG  symmetry.
 There are     0 symmetry adapted cartesian basis functions of AU  symmetry.
 There are     5 symmetry adapted cartesian basis functions of BU  symmetry.
 There are     5 symmetry adapted basis functions of AG  symmetry.
 There are     0 symmetry adapted basis functions of BG  symmetry.
 There are     0 symmetry adapted basis functions of AU  symmetry.
 There are     5 symmetry adapted basis functions of BU  symmetry.
    10 basis functions,   100 primitive gaussians,    10 cartesian basis functions
     5 alpha electrons        5 beta electrons
       nuclear repulsion energy        13.1487556578 Hartrees.
 NAtoms=   10 NActive=   10 NUniq=    5 SFac= 4.00D+00 NAtFMM=   60 NAOKFM=F Big=F
 Integral buffers will be    131072 words long.
 Regular integral format.
 Two-electron integral symmetry is turned off.
 One-electron integrals computed using PRISM.
 NBasis=    10 RedAO= T EigKep=  1.96D-01  NBF=     5     0     0     5
 NBsUse=    10 1.00D-06 EigRej= -1.00D+00 NBFU=     5     0     0     5
 IOp(28)                       1
                        1                       0
                        2                       1
                        3                       1
                        4                      20
                        5                       0
                        6                       0
                        7                      10
                        8                       1
                        9                       4
                       10                       0
                       11              1073741824
                       12                      20
                       13                       2
                       14                  131070
                       15                       1
                       16                       1
                       17                  131073
                       18                       0
                       19                       0
                       20                       0
                       21                       2
                       22                  131070
                       23                       0
                       24                       0
                       25                       0
                       26                       0
                       27                   65535
                       28                       2
                       29                  131072
                       30                       0
 IHMeth                       1
 ib3: ISMode =                        0                       4
 Enter DskPsm, NBasis=  10 NBas6D=  10 NShell=  10 IDoSP=4.
 Out2e will use a cutoff of  1.00D-10
 FoFCou: FMM=F IPFlag=           0 FMFlag=           0 FMFlg1=           0
         NFxFlg=           0 DoJE=F BraDBF=F KetDBF=F FulRan=T
         wScrn=  0.000000 ICntrl=     600 IOpCl=  9 I1Cent=           0 NGrid=           0
         NMat0=    0 NMatS0=      0 NMatT0=    0 NMatD0=    0 NMtDS0=    0 NMtDT0=    0
 Symmetry not used in FoFCou.
 Entering PrmDigJobTyp =                      20
 LenSav and NKeep                       0                       0
 Entered Stor2E with KNTT1,2                       2                  131070
 Leave Stor2X
 Entering PrmDigJobTyp =                      20
 LenSav and NKeep                       0                       0
 Entered Stor2E with KNTT1,2                       2                  131056
 Leave Stor2X
 Entering PrmDigJobTyp =                      20
 LenSav and NKeep                       0                       0
 Entered Stor2E with KNTT1,2                       2                  131042
 Leave Stor2X
 Entering PrmDigJobTyp =                      20
 LenSav and NKeep                       0                       0
 Entered Stor2E with KNTT1,2                       2                  131028
 Leave Stor2X
 Entering PrmDigJobTyp =                      20
 LenSav and NKeep                       0                       0
 Entered Stor2E with KNTT1,2                       2                  131014
 Leave Stor2X
 Entering PrmDigJobTyp =                      20
 LenSav and NKeep                       0                       0
 Entered Stor2E with KNTT1,2                       2                  131000
 Leave Stor2X
 Entering PrmDigJobTyp =                      20
 LenSav and NKeep                       0                       0
 Entered Stor2E with KNTT1,2                       2                  130986
 Leave Stor2X
 Entering PrmDigJobTyp =                      20
 LenSav and NKeep                       0                       0
 Entered Stor2E with KNTT1,2                       2                  130972
 Leave Stor2X
 Entering PrmDigJobTyp =                      20
 LenSav and NKeep                       0                       0
 Entered Stor2E with KNTT1,2                       2                  130960
 Leave Stor2X
 Entering PrmDigJobTyp =                      20
 LenSav and NKeep                       0                       0
 Entered Stor2E with KNTT1,2                       2                  130946
 Leave Stor2X
 Entering PrmDigJobTyp =                      20
 LenSav and NKeep                       0                       0
 Entered Stor2E with KNTT1,2                       2                  130932
 Leave Stor2X
 Entering PrmDigJobTyp =                      20
 LenSav and NKeep                       0                       0
 Entered Stor2E with KNTT1,2                       2                  130918
 Leave Stor2X
 Entering PrmDigJobTyp =                      20
 LenSav and NKeep                       0                       0
 Entered Stor2E with KNTT1,2                       2                  130904
 Leave Stor2X
 Entering PrmDigJobTyp =                      20
 LenSav and NKeep                       0                       0
 Entered Stor2E with KNTT1,2                       2                  130890
 Leave Stor2X
 Entering PrmDigJobTyp =                      20
 LenSav and NKeep                       0                       0
 Entered Stor2E with KNTT1,2                       2                  130876
 Leave Stor2X
 Entering PrmDigJobTyp =                      20
 LenSav and NKeep                       0                       0
 Entered Stor2E with KNTT1,2                       2                  130862
 Leave Stor2X
 Entering PrmDigJobTyp =                      20
 LenSav and NKeep                       0                       0
 Entered Stor2E with KNTT1,2                       2                  130848
 Leave Stor2X
 Entering PrmDigJobTyp =                      20
 LenSav and NKeep                       0                       0
 Entered Stor2E with KNTT1,2                       2                  130834
 Leave Stor2X
 Entering PrmDigJobTyp =                      20
 LenSav and NKeep                       0                       0
 Entered Stor2E with KNTT1,2                       2                  130820
 Leave Stor2X
 Entering PrmDigJobTyp =                      20
 LenSav and NKeep                       0                       0
 Entered Stor2E with KNTT1,2                       2                  130806
 Leave Stor2X
 Entering PrmDigJobTyp =                      20
 LenSav and NKeep                       0                       0
 Entered Stor2E with KNTT1,2                       2                  130792
 Leave Stor2X
 Entering PrmDigJobTyp =                      20
 LenSav and NKeep                       0                       0
 Entered Stor2E with KNTT1,2                       2                  130778
 Leave Stor2X
 Entering PrmDigJobTyp =                      20
 LenSav and NKeep                       0                       0
 Entered Stor2E with KNTT1,2                       2                  130764
 Leave Stor2X
 Entering PrmDigJobTyp =                      20
 LenSav and NKeep                       0                       0
 Entered Stor2E with KNTT1,2                       2                  130750
 Leave Stor2X
 Entering PrmDigJobTyp =                      20
 LenSav and NKeep                       0                       0
 Entered Stor2E with KNTT1,2                       2                  130736
 Leave Stor2X
 Entering PrmDigJobTyp =                      20
 LenSav and NKeep                       0                       0
 Entered Stor2E with KNTT1,2                       2                  130722
 Leave Stor2X
 Entering PrmDigJobTyp =                      20
 LenSav and NKeep                       0                       0
 Entered Stor2E with KNTT1,2                       2                  130708
 Leave Stor2X
 Entering PrmDigJobTyp =                      20
 LenSav and NKeep                       0                       0
 Entered Stor2E with KNTT1,2                       2                  130700
 Leave Stor2X
 Entering PrmDigJobTyp =                      20
 LenSav and NKeep                       0                       0
 Entered Stor2E with KNTT1,2                       6                  130684
 Leave Stor2X
 Entering PrmDigJobTyp =                      20
 LenSav and NKeep                       0                       0
 Entered Stor2E with KNTT1,2                      16                  130674
 Leave Stor2X
 Entering PrmDigJobTyp =                      20
 LenSav and NKeep                       0                       0
 Entered Stor2E with KNTT1,2                      28                  130666
 Leave Stor2X
 Entering PrmDigJobTyp =                      20
 LenSav and NKeep                       0                       0
 Entered Stor2E with KNTT1,2                      42                  130660
 Leave Stor2X
 Entering PrmDigJobTyp =                      20
 LenSav and NKeep                       0                       0
 Entered Stor2E with KNTT1,2                      56                  130654
 Leave Stor2X
 Entering PrmDigJobTyp =                      20
 LenSav and NKeep                       0                       0
 Entered Stor2E with KNTT1,2                      70                  130648
 Leave Stor2X
 Entering PrmDigJobTyp =                      20
 LenSav and NKeep                       0                       0
 Entered Stor2E with KNTT1,2                      84                  130642
 Leave Stor2X
 Entering PrmDigJobTyp =                      20
 LenSav and NKeep                       0                       0
 Entered Stor2E with KNTT1,2                      98                  130636
 Leave Stor2X
 Entering PrmDigJobTyp =                      20
 LenSav and NKeep                       0                       0
 Entered Stor2E with KNTT1,2                     114                  130632
 Leave Stor2X
 Entering PrmDigJobTyp =                      20
 LenSav and NKeep                       0                       0
 Entered Stor2E with KNTT1,2                     114                  130630
 Leave Stor2X
 Entering PrmDigJobTyp =                      20
 LenSav and NKeep                       0                       0
 Entered Stor2E with KNTT1,2                     114                  130616
 Leave Stor2X
 Entering PrmDigJobTyp =                      20
 LenSav and NKeep                       0                       0
 Entered Stor2E with KNTT1,2                     114                  130602
 Leave Stor2X
 Entering PrmDigJobTyp =                      20
 LenSav and NKeep                       0                       0
 Entered Stor2E with KNTT1,2                     114                  130588
 Leave Stor2X
 Entering PrmDigJobTyp =                      20
 LenSav and NKeep                       0                       0
 Entered Stor2E with KNTT1,2                     114                  130574
 Leave Stor2X
 Entering PrmDigJobTyp =                      20
 LenSav and NKeep                       0                       0
 Entered Stor2E with KNTT1,2                     114                  130560
 Leave Stor2X
 Entering PrmDigJobTyp =                      20
 LenSav and NKeep                       0                       0
 Entered Stor2E with KNTT1,2                     114                  130550
 Leave Stor2X
 Entering PrmDigJobTyp =                      20
 LenSav and NKeep                       0                       0
 Entered Stor2E with KNTT1,2                     124                  130540
 Leave Stor2X
 Entering PrmDigJobTyp =                      20
 LenSav and NKeep                       0                       0
 Entered Stor2E with KNTT1,2                     134                  130530
 Leave Stor2X
 Entering PrmDigJobTyp =                      20
 LenSav and NKeep                       0                       0
 Entered Stor2E with KNTT1,2                     152                  130528
 Leave Stor2X
 Entering PrmDigJobTyp =                      20
 LenSav and NKeep                       0                       0
 Entered Stor2E with KNTT1,2                     160                  130516
 Leave Stor2X
 Entering PrmDigJobTyp =                      20
 LenSav and NKeep                       0                       0
 Entered Stor2E with KNTT1,2                     174                  130510
 Leave Stor2X
 Entering PrmDigJobTyp =                      20
 LenSav and NKeep                       0                       0
 Entered Stor2E with KNTT1,2                     174                  130506
 Leave Stor2X
 Entering PrmDigJobTyp =                      20
 LenSav and NKeep                       0                       0
 Entered Stor2E with KNTT1,2                     186                  130498
 Leave Stor2X
 Entering PrmDigJobTyp =                      20
 LenSav and NKeep                       0                       0
 Entered Stor2E with KNTT1,2                     186                  130482
 Leave Stor2X
 Entering PrmDigJobTyp =                      20
 LenSav and NKeep                       0                       0
 Entered Stor2E with KNTT1,2                     186                  130466
 Leave Stor2X
 Entering PrmDigJobTyp =                      20
 LenSav and NKeep                       0                       0
 Entered Stor2E with KNTT1,2                     186                  130450
 Leave Stor2X
 Entering PrmDigJobTyp =                      20
 LenSav and NKeep                       0                       0
 Entered Stor2E with KNTT1,2                     186                  130434
 Leave Stor2X
 Entering PrmDigJobTyp =                      20
 LenSav and NKeep                       0                       0
 Entered Stor2E with KNTT1,2                     186                  130418
 Leave Stor2X
 Entering PrmDigJobTyp =                      20
 LenSav and NKeep                       0                       0
 Entered Stor2E with KNTT1,2                     186                  130402
 Leave Stor2X
 Entering PrmDigJobTyp =                      20
 LenSav and NKeep                       0                       0
 Entered Stor2E with KNTT1,2                     186                  130386
 Leave Stor2X
 Entering PrmDigJobTyp =                      20
 LenSav and NKeep                       0                       0
 Entered Stor2E with KNTT1,2                     186                  130370
 Leave Stor2X
 Entering PrmDigJobTyp =                      20
 LenSav and NKeep                       0                       0
 Entered Stor2E with KNTT1,2                     186                  130358
 Leave Stor2X
 Entering PrmDigJobTyp =                      20
 LenSav and NKeep                       0                       0
 Entered Stor2E with KNTT1,2                     198                  130348
 Leave Stor2X
 Entering PrmDigJobTyp =                      20
 LenSav and NKeep                       0                       0
 Entered Stor2E with KNTT1,2                     210                  130338
 Leave Stor2X
 Entering PrmDigJobTyp =                      20
 LenSav and NKeep                       0                       0
 Entered Stor2E with KNTT1,2                     222                  130328
 Leave Stor2X
 Entering PrmDigJobTyp =                      20
 LenSav and NKeep                       0                       0
 Entered Stor2E with KNTT1,2                     238                  130322
 Leave Stor2X
 Entering PrmDigJobTyp =                      20
 LenSav and NKeep                       0                       0
 Entered Stor2E with KNTT1,2                     252                  130314
 Leave Stor2X
 Entering PrmDigJobTyp =                      20
 LenSav and NKeep                       0                       0
 Entered Stor2E with KNTT1,2                     262                  130302
 Leave Stor2X
 Entering PrmDigJobTyp =                      20
 LenSav and NKeep                       0                       0
 Entered Stor2E with KNTT1,2                     276                  130294
 Leave Stor2X
 Entering PrmDigJobTyp =                      20
 LenSav and NKeep                       0                       0
 Entered Stor2E with KNTT1,2                     292                  130288
 Leave Stor2X
 Entering PrmDigJobTyp =                      20
 LenSav and NKeep                       0                       0
 Entered Stor2E with KNTT1,2                     292                  130282
 Leave Stor2X
 Entering PrmDigJobTyp =                      20
 LenSav and NKeep                       0                       0
 Entered Stor2E with KNTT1,2                     304                  130272
 Leave Stor2X
 Entering PrmDigJobTyp =                      20
 LenSav and NKeep                       0                       0
 Entered Stor2E with KNTT1,2                     318                  130264
 Leave Stor2X
 Entering PrmDigJobTyp =                      20
 LenSav and NKeep                       0                       0
 Entered Stor2E with KNTT1,2                     324                  130258
 Leave Stor2X
 Entering PrmDigJobTyp =                      20
 LenSav and NKeep                       0                       0
 Entered Stor2E with KNTT1,2                     338                  130246
 Leave Stor2X
 Entering PrmDigJobTyp =                      20
 LenSav and NKeep                       0                       0
 Entered Stor2E with KNTT1,2                     356                  130238
 Leave Stor2X
 Entering PrmDigJobTyp =                      20
 LenSav and NKeep                       0                       0
 Entered Stor2E with KNTT1,2                     358                  130236
 Leave Stor2X
 Entering PrmDigJobTyp =                      20
 LenSav and NKeep                       0                       0
 Entered Stor2E with KNTT1,2                     358                  130218
 Leave Stor2X
 Entering PrmDigJobTyp =                      20
 LenSav and NKeep                       0                       0
 Entered Stor2E with KNTT1,2                     358                  130200
 Leave Stor2X
 Entering PrmDigJobTyp =                      20
 LenSav and NKeep                       0                       0
 Entered Stor2E with KNTT1,2                     358                  130182
 Leave Stor2X
 Entering PrmDigJobTyp =                      20
 LenSav and NKeep                       0                       0
 Entered Stor2E with KNTT1,2                     358                  130164
 Leave Stor2X
 Entering PrmDigJobTyp =                      20
 LenSav and NKeep                       0                       0
 Entered Stor2E with KNTT1,2                     358                  130146
 Leave Stor2X
 Entering PrmDigJobTyp =                      20
 LenSav and NKeep                       0                       0
 Entered Stor2E with KNTT1,2                     358                  130128
 Leave Stor2X
 Entering PrmDigJobTyp =                      20
 LenSav and NKeep                       0                       0
 Entered Stor2E with KNTT1,2                     358                  130116
 Leave Stor2X
 Entering PrmDigJobTyp =                      20
 LenSav and NKeep                       0                       0
 Entered Stor2E with KNTT1,2                     372                  130106
 Leave Stor2X
 Entering PrmDigJobTyp =                      20
 LenSav and NKeep                       0                       0
 Entered Stor2E with KNTT1,2                     386                  130096
 Leave Stor2X
 Entering PrmDigJobTyp =                      20
 LenSav and NKeep                       0                       0
 Entered Stor2E with KNTT1,2                     400                  130086
 Leave Stor2X
 Entering PrmDigJobTyp =                      20
 LenSav and NKeep                       0                       0
 Entered Stor2E with KNTT1,2                     414                  130076
 Leave Stor2X
 Entering PrmDigJobTyp =                      20
 LenSav and NKeep                       0                       0
 Entered Stor2E with KNTT1,2                     428                  130066
 Leave Stor2X
 Entering PrmDigJobTyp =                      20
 LenSav and NKeep                       0                       0
 Entered Stor2E with KNTT1,2                     444                  130058
 Leave Stor2X
 Entering PrmDigJobTyp =                      20
 LenSav and NKeep                       0                       0
 Entered Stor2E with KNTT1,2                     450                  130052
 Leave Stor2X
 Entering PrmDigJobTyp =                      20
 LenSav and NKeep                       0                       0
 Entered Stor2E with KNTT1,2                     464                  130042
 Leave Stor2X
 Entering PrmDigJobTyp =                      20
 LenSav and NKeep                       0                       0
 Entered Stor2E with KNTT1,2                     478                  130032
 Leave Stor2X
 Entering PrmDigJobTyp =                      20
 LenSav and NKeep                       0                       0
 Entered Stor2E with KNTT1,2                     494                  130020
 Leave Stor2X
 Entering PrmDigJobTyp =                      20
 LenSav and NKeep                       0                       0
 Entered Stor2E with KNTT1,2                     510                  130008
 Leave Stor2X
 Entering PrmDigJobTyp =                      20
 LenSav and NKeep                       0                       0
 Entered Stor2E with KNTT1,2                     526                  129996
 Leave Stor2X
 Entering PrmDigJobTyp =                      20
 LenSav and NKeep                       0                       0
 Entered Stor2E with KNTT1,2                     544                  129984
 Leave Stor2X
 Entering PrmDigJobTyp =                      20
 LenSav and NKeep                       0                       0
 Entered Stor2E with KNTT1,2                     552                  129980
 Leave Stor2X
 Entering PrmDigJobTyp =                      20
 LenSav and NKeep                       0                       0
 Entered Stor2E with KNTT1,2                     552                  129960
 Leave Stor2X
 Entering PrmDigJobTyp =                      20
 LenSav and NKeep                       0                       0
 Entered Stor2E with KNTT1,2                     552                  129940
 Leave Stor2X
 Entering PrmDigJobTyp =                      20
 LenSav and NKeep                       0                       0
 Entered Stor2E with KNTT1,2                     552                  129920
 Leave Stor2X
 Entering PrmDigJobTyp =                      20
 LenSav and NKeep                       0                       0
 Entered Stor2E with KNTT1,2                     552                  129900
 Leave Stor2X
 Entering PrmDigJobTyp =                      20
 LenSav and NKeep                       0                       0
 Entered Stor2E with KNTT1,2                     552                  129880
 Leave Stor2X
 Entering PrmDigJobTyp =                      20
 LenSav and NKeep                       0                       0
 Entered Stor2E with KNTT1,2                     568                  129868
 Leave Stor2X
 Entering PrmDigJobTyp =                      20
 LenSav and NKeep                       0                       0
 Entered Stor2E with KNTT1,2                     586                  129858
 Leave Stor2X
 Entering PrmDigJobTyp =                      20
 LenSav and NKeep                       0                       0
 Entered Stor2E with KNTT1,2                     602                  129846
 Leave Stor2X
 Entering PrmDigJobTyp =                      20
 LenSav and NKeep                       0                       0
 Entered Stor2E with KNTT1,2                     622                  129838
 Leave Stor2X
 Entering PrmDigJobTyp =                      20
 LenSav and NKeep                       0                       0
 Entered Stor2E with KNTT1,2                     630                  129828
 Leave Stor2X
 Entering PrmDigJobTyp =                      20
 LenSav and NKeep                       0                       0
 Entered Stor2E with KNTT1,2                     646                  129816
 Leave Stor2X
 Entering PrmDigJobTyp =                      20
 LenSav and NKeep                       0                       0
 Entered Stor2E with KNTT1,2                     654                  129812
 Leave Stor2X
 Entering PrmDigJobTyp =                      20
 LenSav and NKeep                       0                       0
 Entered Stor2E with KNTT1,2                     674                  129800
 Leave Stor2X
 Entering PrmDigJobTyp =                      20
 LenSav and NKeep                       0                       0
 Entered Stor2E with KNTT1,2                     694                  129788
 Leave Stor2X
 Entering PrmDigJobTyp =                      20
 LenSav and NKeep                       0                       0
 Entered Stor2E with KNTT1,2                     696                  129784
 Leave Stor2X
 Entering PrmDigJobTyp =                      20
 LenSav and NKeep                       0                       0
 Entered Stor2E with KNTT1,2                     716                  129770
 Leave Stor2X
 Entering PrmDigJobTyp =                      20
 LenSav and NKeep                       0                       0
 Entered Stor2E with KNTT1,2                     732                  129760
 Leave Stor2X
 Entering PrmDigJobTyp =                      20
 LenSav and NKeep                       0                       0
 Entered Stor2E with KNTT1,2                     752                  129750
 Leave Stor2X
 Entering PrmDigJobTyp =                      20
 LenSav and NKeep                       0                       0
 Entered Stor2E with KNTT1,2                     752                  129728
 Leave Stor2X
 Entering PrmDigJobTyp =                      20
 LenSav and NKeep                       0                       0
 Entered Stor2E with KNTT1,2                     752                  129706
 Leave Stor2X
 Entering PrmDigJobTyp =                      20
 LenSav and NKeep                       0                       0
 Entered Stor2E with KNTT1,2                     752                  129684
 Leave Stor2X
 Entering PrmDigJobTyp =                      20
 LenSav and NKeep                       0                       0
 Entered Stor2E with KNTT1,2                     752                  129670
 Leave Stor2X
 Entering PrmDigJobTyp =                      20
 LenSav and NKeep                       0                       0
 Entered Stor2E with KNTT1,2                     768                  129658
 Leave Stor2X
 Entering PrmDigJobTyp =                      20
 LenSav and NKeep                       0                       0
 Entered Stor2E with KNTT1,2                     786                  129648
 Leave Stor2X
 Entering PrmDigJobTyp =                      20
 LenSav and NKeep                       0                       0
 Entered Stor2E with KNTT1,2                     804                  129638
 Leave Stor2X
 Entering PrmDigJobTyp =                      20
 LenSav and NKeep                       0                       0
 Entered Stor2E with KNTT1,2                     816                  129630
 Leave Stor2X
 Entering PrmDigJobTyp =                      20
 LenSav and NKeep                       0                       0
 Entered Stor2E with KNTT1,2                     832                  129618
 Leave Stor2X
 Entering PrmDigJobTyp =                      20
 LenSav and NKeep                       0                       0
 Entered Stor2E with KNTT1,2                     836                  129618
 Leave Stor2X
 Entering PrmDigJobTyp =                      20
 LenSav and NKeep                       0                       0
 Entered Stor2E with KNTT1,2                     858                  129606
 Leave Stor2X
 Entering PrmDigJobTyp =                      20
 LenSav and NKeep                       0                       0
 Entered Stor2E with KNTT1,2                     872                  129598
 Leave Stor2X
 Entering PrmDigJobTyp =                      20
 LenSav and NKeep                       0                       0
 Entered Stor2E with KNTT1,2                     896                  129586
 Leave Stor2X
 Entering PrmDigJobTyp =                      20
 LenSav and NKeep                       0                       0
 Entered Stor2E with KNTT1,2                     904                  129582
 Leave Stor2X
 Entering PrmDigJobTyp =                      20
 LenSav and NKeep                       0                       0
 Entered Stor2E with KNTT1,2                     928                  129566
 Leave Stor2X
 Entering PrmDigJobTyp =                      20
 LenSav and NKeep                       0                       0
 Entered Stor2E with KNTT1,2                     940                  129558
 Leave Stor2X
 Entering PrmDigJobTyp =                      20
 LenSav and NKeep                       0                       0
 Entered Stor2E with KNTT1,2                     940                  129534
 Leave Stor2X
 Entering PrmDigJobTyp =                      20
 LenSav and NKeep                       0                       0
 Entered Stor2E with KNTT1,2                     940                  129518
 Leave Stor2X
 Entering PrmDigJobTyp =                      20
 LenSav and NKeep                       0                       0
 Entered Stor2E with KNTT1,2                     960                  129506
 Leave Stor2X
 Entering PrmDigJobTyp =                      20
 LenSav and NKeep                       0                       0
 Entered Stor2E with KNTT1,2                     972                  129498
 Leave Stor2X
 Entering PrmDigJobTyp =                      20
 LenSav and NKeep                       0                       0
 Entered Stor2E with KNTT1,2                     984                  129494
 Leave Stor2X
 Entering PrmDigJobTyp =                      20
 LenSav and NKeep                       0                       0
 Entered Stor2E with KNTT1,2                    1004                  129486
 Leave Stor2X
 Entering PrmDigJobTyp =                      20
 LenSav and NKeep                       0                       0
 Entered Stor2E with KNTT1,2                    1020                  129478
 Leave Stor2X
 Entering PrmDigJobTyp =                      20
 LenSav and NKeep                       0                       0
 Entered Stor2E with KNTT1,2                    1032                  129470
 Leave Stor2X
 Entering PrmDigJobTyp =                      20
 LenSav and NKeep                       0                       0
 Entered Stor2E with KNTT1,2                    1040                  129462
 Leave Stor2X
 Entering PrmDigJobTyp =                      20
 LenSav and NKeep                       0                       0
 Entered Stor2E with KNTT1,2                    1042                  129458
 Leave Stor2X
 Entering PrmDigJobTyp =                      20
 LenSav and NKeep                       0                       0
 Entered Stor2E with KNTT1,2                    1042                  129432
 Leave Stor2X
 Entering PrmDigJobTyp =                      20
 LenSav and NKeep                       0                       0
 Entered Stor2E with KNTT1,2                    1042                  129418
 Leave Stor2X
 Entering PrmDigJobTyp =                      20
 LenSav and NKeep                       0                       0
 Entered Stor2E with KNTT1,2                    1066                  129406
 Leave Stor2X
 Entering PrmDigJobTyp =                      20
 LenSav and NKeep                       0                       0
 Entered Stor2E with KNTT1,2                    1078                  129402
 Leave Stor2X
 Entering PrmDigJobTyp =                      20
 LenSav and NKeep                       0                       0
 Entered Stor2E with KNTT1,2                    1090                  129398
 Leave Stor2X
 Entering PrmDigJobTyp =                      20
 LenSav and NKeep                       0                       0
 Entered Stor2E with KNTT1,2                    1110                  129390
 Leave Stor2X
 Entering PrmDigJobTyp =                      20
 LenSav and NKeep                       0                       0
 Entered Stor2E with KNTT1,2                    1126                  129382
 Leave Stor2X
 Entering PrmDigJobTyp =                      20
 LenSav and NKeep                       0                       0
 Entered Stor2E with KNTT1,2                    1138                  129374
 Leave Stor2X
 Entering PrmDigJobTyp =                      20
 LenSav and NKeep                       0                       0
 Entered Stor2E with KNTT1,2                    1146                  129366
 Leave Stor2X
 Entering PrmDigJobTyp =                      20
 LenSav and NKeep                       0                       0
 Entered Stor2E with KNTT1,2                    1150                  129362
 Leave Stor2X
 Entering PrmDigJobTyp =                      20
 LenSav and NKeep                       0                       0
 Entered Stor2E with KNTT1,2                    1152                  129358
 Leave Stor2X
 Entering PrmDigJobTyp =                      20
 LenSav and NKeep                       0                       0
 Entered Stor2E with KNTT1,2                    1152                  129338
 Leave Stor2X
 Entering PrmDigJobTyp =                      20
 LenSav and NKeep                       0                       0
 Entered Stor2E with KNTT1,2                    1170                  129330
 Leave Stor2X
 Entering PrmDigJobTyp =                      20
 LenSav and NKeep                       0                       0
 Entered Stor2E with KNTT1,2                    1174                  129326
 Leave Stor2X
 Entering PrmDigJobTyp =                      20
 LenSav and NKeep                       0                       0
 Entered Stor2E with KNTT1,2                    1184                  129322
 Leave Stor2X
 Entering PrmDigJobTyp =                      20
 LenSav and NKeep                       0                       0
 Entered Stor2E with KNTT1,2                    1192                  129318
 Leave Stor2X
 Entering PrmDigJobTyp =                      20
 LenSav and NKeep                       0                       0
 Entered Stor2E with KNTT1,2                    1198                  129314
 Leave Stor2X
 Entering PrmDigJobTyp =                      20
 LenSav and NKeep                       0                       0
 Entered Stor2E with KNTT1,2                    1202                  129310
 Leave Stor2X
 Entering PrmDigJobTyp =                      20
 LenSav and NKeep                       0                       0
 Entered Stor2E with KNTT1,2                    1206                  129310
 Leave Stor2X
 Entering PrmDigJobTyp =                      20
 LenSav and NKeep                       0                       0
 Entered Stor2E with KNTT1,2                    1206                  129306
 Leave Stor2X
 Entering PrmDigJobTyp =                      20
 LenSav and NKeep                       0                       0
 Entered Stor2E with KNTT1,2                    1206                  129304
 Leave Stor2X
 Entering PrmDigJobTyp =                      20
 LenSav and NKeep                       0                       0
 Entered Stor2E with KNTT1,2                    1206                  129284
 Leave Stor2X
 Entering PrmDigJobTyp =                      20
 LenSav and NKeep                       0                       0
 Entered Stor2E with KNTT1,2                    1224                  129276
 Leave Stor2X
 Entering PrmDigJobTyp =                      20
 LenSav and NKeep                       0                       0
 Entered Stor2E with KNTT1,2                    1232                  129276
 Leave Stor2X
 Entering PrmDigJobTyp =                      20
 LenSav and NKeep                       0                       0
 Entered Stor2E with KNTT1,2                    1242                  129272
 Leave Stor2X
 Entering PrmDigJobTyp =                      20
 LenSav and NKeep                       0                       0
 Entered Stor2E with KNTT1,2                    1250                  129268
 Leave Stor2X
 Entering PrmDigJobTyp =                      20
 LenSav and NKeep                       0                       0
 Entered Stor2E with KNTT1,2                    1256                  129264
 Leave Stor2X
 Entering PrmDigJobTyp =                      20
 LenSav and NKeep                       0                       0
 Entered Stor2E with KNTT1,2                    1260                  129260
 Leave Stor2X
 Entering PrmDigJobTyp =                      20
 LenSav and NKeep                       0                       0
 Entered Stor2E with KNTT1,2                    1260                  129256
 Leave Stor2X
 Entering PrmDigJobTyp =                      20
 LenSav and NKeep                       0                       0
 Entered Stor2E with KNTT1,2                    1260                  129252
 Leave Stor2X
 Entering PrmDigJobTyp =                      20
 LenSav and NKeep                       0                       0
 Entered Stor2E with KNTT1,2                    1262                  129252
 Leave Stor2X
 In PrSumR
 Called IWRITE
         1540 integrals produced for a total of         1540.
 Initial guess from the checkpoint file:  "h10.chk"
 B after Tr=     0.000000    0.000000    0.000000
         Rot=    0.988167    0.000000    0.000000    0.153380 Ang=  17.65 deg.
 Mixing orbitals, IMix= 1 IMixAn=  0 NRI=2 NE=   10 Coef=  7.07106781D-01  7.07106781D-01
 Also mixing orbitals    10 and    12 Coef=  7.07106781D-01  7.07106781D-01
 Initial guess <Sx>= 0.0000 <Sy>= 0.0000 <Sz>= 0.0000 <S**2>= 0.5000 S= 0.3660
 Two-electron integrals will be kept in memory, NGetB=      152788.
 Requested convergence on RMS density matrix=1.00D-08 within 128 cycles.
 Requested convergence on MAX density matrix=1.00D-06.
 Requested convergence on             energy=1.00D-06.
 No special actions if energy rises.
 Density File Not Found. Continue as usual
 Rare condition: small coef for last iteration:  0.000D+00
 Rare condition: small coef for last iteration:  0.000D+00
 Rare condition: small coef for last iteration:  0.000D+00
 Rare condition: small coef for last iteration:  0.000D+00
 SCF Done:  E(GHF) =  -4.87819686946     A.U. after   33 cycles
            NFock= 33  Conv=0.38D-08     -V/T= 1.9521
 <Sx>= 0.0000 <Sy>= 0.0000 <Sz>= 0.0000 <S**2>= 0.6003 S= 0.4221
 <L.S>= 0.000000000000E+00
 Range of M.O.s used for correlation:     1    10
 NBasis=    10 NAE=    10 NBE=     0 NFC=     0 NFV=     0
 NROrb=     20 NOA=    10 NOB=     0 NVA=    10 NVB=     0
 jaja DoHack is true or false? T
 jaja in hckghf.F, NBasis=                      10
 jaja in hckGHF/FixOG, LC =                      800
 jaja in hckGHF/FixOG, IRwC=                      548
 bfr conversion (real):
                 1             2             3             4             5 
      1a  0.000000D+00  0.198928D-01  0.145098D+00 -0.490083D-05  0.304952D+00
      1b  0.861791D-01  0.000000D+00 -0.536642D-05 -0.158883D+00  0.000000D+00
      2a  0.000000D+00  0.536548D-01  0.259839D+00 -0.877632D-05  0.361442D+00
      2b  0.168367D+00  0.000000D+00 -0.702115D-05 -0.207874D+00  0.000000D+00
      3a  0.000000D+00  0.104842D+00  0.329373D+00 -0.111249D-04  0.173150D+00
      3b  0.265603D+00  0.000000D+00 -0.794743D-05 -0.235298D+00  0.000000D+00
      4a  0.000000D+00  0.119821D+00  0.234866D+00 -0.793284D-05 -0.112487D+00
      4b  0.308874D+00  0.000000D+00 -0.517328D-05 -0.153165D+00  0.000000D+00
      5a  0.000000D+00  0.158162D+00  0.193680D+00 -0.654172D-05 -0.287382D+00
      5b  0.230790D+00  0.000000D+00  0.000000D+00  0.988718D-02  0.000000D+00
      6a  0.000000D+00  0.230790D+00  0.988718D-02  0.000000D+00 -0.338207D+00
      6b  0.158162D+00  0.000000D+00  0.654172D-05  0.193680D+00  0.000000D+00
      7a  0.000000D+00  0.308874D+00 -0.153165D+00  0.517328D-05 -0.226993D+00
      7b  0.119821D+00  0.000000D+00  0.793284D-05  0.234866D+00  0.000000D+00
      8a  0.000000D+00  0.265603D+00 -0.235298D+00  0.794743D-05  0.145048D+00
      8b  0.104842D+00  0.000000D+00  0.111249D-04  0.329373D+00  0.000000D+00
      9a  0.000000D+00  0.168367D+00 -0.207874D+00  0.702115D-05  0.296161D+00
      9b  0.536548D-01  0.000000D+00  0.877632D-05  0.259839D+00  0.000000D+00
     10a  0.000000D+00  0.861791D-01 -0.158883D+00  0.536642D-05  0.424825D+00
     10b  0.198928D-01  0.000000D+00  0.490083D-05  0.145098D+00  0.000000D+00
                 6             7             8             9            10 
      1a  0.000000D+00  0.000000D+00  0.149571D+00 -0.457929D+00  0.000000D+00
      1b  0.424825D+00 -0.352616D+00  0.141731D-05  0.000000D+00  0.535464D+00
      2a  0.000000D+00  0.000000D+00  0.422966D-01 -0.359576D+00  0.000000D+00
      2b  0.296161D+00  0.416578D+00 -0.167440D-05  0.000000D+00  0.277056D+00
      3a  0.000000D+00  0.000000D+00  0.899651D-01  0.277385D+00  0.000000D+00
      3b  0.145048D+00 -0.452284D+00  0.181791D-05  0.000000D+00 -0.405337D+00
      4a  0.000000D+00 -0.127518D-05 -0.317256D+00  0.335227D+00  0.000000D+00
      4b -0.226993D+00  0.766634D+00 -0.308141D-05  0.000000D+00 -0.295186D+00
      5a  0.000000D+00  0.000000D+00  0.156846D+00  0.546522D+00  0.000000D+00
      5b -0.338207D+00 -0.514913D+00  0.206964D-05  0.000000D+00 -0.428310D+00
      6a  0.000000D+00 -0.206964D-05 -0.514913D+00 -0.428310D+00  0.000000D+00
      6b -0.287382D+00  0.156846D+00  0.000000D+00  0.000000D+00  0.546522D+00
      7a  0.000000D+00  0.308141D-05  0.766634D+00 -0.295186D+00  0.000000D+00
      7b -0.112487D+00 -0.317256D+00  0.127518D-05  0.000000D+00  0.335227D+00
      8a  0.000000D+00 -0.181791D-05 -0.452284D+00 -0.405337D+00  0.000000D+00
      8b  0.173150D+00  0.899651D-01  0.000000D+00  0.000000D+00  0.277385D+00
      9a  0.000000D+00  0.167440D-05  0.416578D+00  0.277056D+00  0.000000D+00
      9b  0.361442D+00  0.422966D-01  0.000000D+00  0.000000D+00 -0.359576D+00
     10a  0.000000D+00 -0.141731D-05 -0.352616D+00  0.535464D+00  0.000000D+00
     10b  0.304952D+00  0.149571D+00  0.000000D+00  0.000000D+00 -0.457929D+00
                11            12            13            14            15 
      1a -0.465178D+00  0.418653D-05  0.230676D-05 -0.518660D+00 -0.717257D-05
      1b -0.225650D-05 -0.250726D+00 -0.813072D+00 -0.361616D-05 -0.259490D+00
      2a  0.602910D+00 -0.542610D-05  0.000000D+00 -0.224023D+00  0.869789D-05
      2b  0.511383D-05  0.568214D+00  0.350401D+00  0.155842D-05  0.856535D+00
      3a -0.450864D+00  0.405770D-05 -0.411979D-05  0.926311D+00  0.000000D+00
      3b -0.306339D-05 -0.340382D+00  0.869313D+00  0.386629D-05 -0.491314D+00
      4a  0.617794D+00 -0.556005D-05  0.000000D+00  0.456394D-01 -0.366692D-05
      4b  0.000000D+00  0.742906D-01 -0.333096D+00 -0.148146D-05 -0.534786D+00
      5a -0.414723D+00  0.373244D-05  0.154398D-05 -0.347155D+00  0.259503D-05
      5b  0.000000D+00 -0.422486D-02 -0.335820D+00 -0.149357D-05  0.620758D+00
      6a -0.422486D-02  0.000000D+00  0.149357D-05 -0.335820D+00 -0.655307D-05
      6b -0.373244D-05 -0.414723D+00 -0.347155D+00 -0.154398D-05 -0.245821D+00
      7a  0.742906D-01  0.000000D+00  0.148146D-05 -0.333096D+00  0.564550D-05
      7b  0.556005D-05  0.617794D+00  0.456394D-01  0.000000D+00  0.347360D+00
      8a -0.340382D+00  0.306339D-05 -0.386629D-05  0.869313D+00  0.518659D-05
      8b -0.405770D-05 -0.450864D+00  0.926311D+00  0.411979D-05  0.100741D-01
      9a  0.568214D+00 -0.511383D-05 -0.155842D-05  0.350401D+00 -0.904206D-05
      9b  0.542610D-05  0.602910D+00 -0.224023D+00  0.000000D+00 -0.823932D+00
     10a -0.250726D+00  0.225650D-05  0.361616D-05 -0.813072D+00  0.273933D-05
     10b -0.418653D-05 -0.465178D+00 -0.518660D+00 -0.230676D-05  0.679442D+00
                16            17            18            19            20 
      1a  0.679442D+00  0.228854D+00 -0.460567D-04  0.602988D+00 -0.210533D-03
      1b -0.273933D-05 -0.107185D-03 -0.532598D+00 -0.355573D-04 -0.101840D+00
      2a -0.823932D+00  0.415013D+00 -0.835209D-04 -0.671472D+00  0.234445D-03
      2b  0.904206D-05  0.106629D-03  0.529837D+00 -0.147384D-03 -0.422120D+00
      3a  0.100741D-01 -0.909341D+00  0.183004D-03 -0.569953D+00  0.198999D-03
      3b -0.518659D-05  0.124565D-03  0.618959D+00  0.230493D-03  0.660153D+00
      4a  0.347360D+00 -0.311400D+00  0.626690D-04  0.129241D+01 -0.451244D-03
      4b -0.564550D-05 -0.212692D-03 -0.105686D+01  0.157013D-03  0.449701D+00
      5a -0.245821D+00  0.132938D+01 -0.267536D-03 -0.414425D-01  0.144697D-04
      5b  0.655307D-05 -0.534242D-04 -0.265463D+00 -0.413911D-03 -0.118548D+01
      6a  0.620758D+00 -0.265463D+00  0.534242D-04 -0.118548D+01  0.413911D-03
      6b -0.259503D-05  0.267536D-03  0.132938D+01 -0.144697D-04 -0.414425D-01
      7a -0.534786D+00 -0.105686D+01  0.212692D-03  0.449701D+00 -0.157013D-03
      7b  0.366692D-05 -0.626690D-04 -0.311400D+00  0.451244D-03  0.129241D+01
      8a -0.491314D+00  0.618959D+00 -0.124565D-03  0.660153D+00 -0.230493D-03
      8b  0.000000D+00 -0.183004D-03 -0.909341D+00 -0.198999D-03 -0.569953D+00
      9a  0.856535D+00  0.529837D+00 -0.106629D-03 -0.422120D+00  0.147384D-03
      9b -0.869789D-05  0.835209D-04  0.415013D+00 -0.234445D-03 -0.671472D+00
     10a -0.259490D+00 -0.532598D+00  0.107185D-03 -0.101840D+00  0.355573D-04
     10b  0.717257D-05  0.460567D-04  0.228854D+00  0.210533D-03  0.602988D+00
 bfr conversion (imaginary):
                 1             2             3             4             5 
      1a  0.000000D+00  0.000000D+00  0.000000D+00  0.000000D+00  0.000000D+00
      1b  0.000000D+00  0.000000D+00  0.000000D+00  0.000000D+00  0.000000D+00
      2a  0.000000D+00  0.000000D+00  0.000000D+00  0.000000D+00  0.000000D+00
      2b  0.000000D+00  0.000000D+00  0.000000D+00  0.000000D+00  0.000000D+00
      3a  0.000000D+00  0.000000D+00  0.000000D+00  0.000000D+00  0.000000D+00
      3b  0.000000D+00  0.000000D+00  0.000000D+00  0.000000D+00  0.000000D+00
      4a  0.000000D+00  0.000000D+00  0.000000D+00  0.000000D+00  0.000000D+00
      4b  0.000000D+00  0.000000D+00  0.000000D+00  0.000000D+00  0.000000D+00
      5a  0.000000D+00  0.000000D+00  0.000000D+00  0.000000D+00  0.000000D+00
      5b  0.000000D+00  0.000000D+00  0.000000D+00  0.000000D+00  0.000000D+00
      6a  0.000000D+00  0.000000D+00  0.000000D+00  0.000000D+00  0.000000D+00
      6b  0.000000D+00  0.000000D+00  0.000000D+00  0.000000D+00  0.000000D+00
      7a  0.000000D+00  0.000000D+00  0.000000D+00  0.000000D+00  0.000000D+00
      7b  0.000000D+00  0.000000D+00  0.000000D+00  0.000000D+00  0.000000D+00
      8a  0.000000D+00  0.000000D+00  0.000000D+00  0.000000D+00  0.000000D+00
      8b  0.000000D+00  0.000000D+00  0.000000D+00  0.000000D+00  0.000000D+00
      9a  0.000000D+00  0.000000D+00  0.000000D+00  0.000000D+00  0.000000D+00
      9b  0.000000D+00  0.000000D+00  0.000000D+00  0.000000D+00  0.000000D+00
     10a  0.000000D+00  0.000000D+00  0.000000D+00  0.000000D+00  0.000000D+00
     10b  0.000000D+00  0.000000D+00  0.000000D+00  0.000000D+00  0.000000D+00
                 6             7             8             9            10 
      1a  0.000000D+00  0.000000D+00  0.000000D+00  0.000000D+00  0.000000D+00
      1b  0.000000D+00  0.000000D+00  0.000000D+00  0.000000D+00  0.000000D+00
      2a  0.000000D+00  0.000000D+00  0.000000D+00  0.000000D+00  0.000000D+00
      2b  0.000000D+00  0.000000D+00  0.000000D+00  0.000000D+00  0.000000D+00
      3a  0.000000D+00  0.000000D+00  0.000000D+00  0.000000D+00  0.000000D+00
      3b  0.000000D+00  0.000000D+00  0.000000D+00  0.000000D+00  0.000000D+00
      4a  0.000000D+00  0.000000D+00  0.000000D+00  0.000000D+00  0.000000D+00
      4b  0.000000D+00  0.000000D+00  0.000000D+00  0.000000D+00  0.000000D+00
      5a  0.000000D+00  0.000000D+00  0.000000D+00  0.000000D+00  0.000000D+00
      5b  0.000000D+00  0.000000D+00  0.000000D+00  0.000000D+00  0.000000D+00
      6a  0.000000D+00  0.000000D+00  0.000000D+00  0.000000D+00  0.000000D+00
      6b  0.000000D+00  0.000000D+00  0.000000D+00  0.000000D+00  0.000000D+00
      7a  0.000000D+00  0.000000D+00  0.000000D+00  0.000000D+00  0.000000D+00
      7b  0.000000D+00  0.000000D+00  0.000000D+00  0.000000D+00  0.000000D+00
      8a  0.000000D+00  0.000000D+00  0.000000D+00  0.000000D+00  0.000000D+00
      8b  0.000000D+00  0.000000D+00  0.000000D+00  0.000000D+00  0.000000D+00
      9a  0.000000D+00  0.000000D+00  0.000000D+00  0.000000D+00  0.000000D+00
      9b  0.000000D+00  0.000000D+00  0.000000D+00  0.000000D+00  0.000000D+00
     10a  0.000000D+00  0.000000D+00  0.000000D+00  0.000000D+00  0.000000D+00
     10b  0.000000D+00  0.000000D+00  0.000000D+00  0.000000D+00  0.000000D+00
                11            12            13            14            15 
      1a  0.000000D+00  0.000000D+00  0.000000D+00  0.000000D+00  0.000000D+00
      1b  0.000000D+00  0.000000D+00  0.000000D+00  0.000000D+00  0.000000D+00
      2a  0.000000D+00  0.000000D+00  0.000000D+00  0.000000D+00  0.000000D+00
      2b  0.000000D+00  0.000000D+00  0.000000D+00  0.000000D+00  0.000000D+00
      3a  0.000000D+00  0.000000D+00  0.000000D+00  0.000000D+00  0.000000D+00
      3b  0.000000D+00  0.000000D+00  0.000000D+00  0.000000D+00  0.000000D+00
      4a  0.000000D+00  0.000000D+00  0.000000D+00  0.000000D+00  0.000000D+00
      4b  0.000000D+00  0.000000D+00  0.000000D+00  0.000000D+00  0.000000D+00
      5a  0.000000D+00  0.000000D+00  0.000000D+00  0.000000D+00  0.000000D+00
      5b  0.000000D+00  0.000000D+00  0.000000D+00  0.000000D+00  0.000000D+00
      6a  0.000000D+00  0.000000D+00  0.000000D+00  0.000000D+00  0.000000D+00
      6b  0.000000D+00  0.000000D+00  0.000000D+00  0.000000D+00  0.000000D+00
      7a  0.000000D+00  0.000000D+00  0.000000D+00  0.000000D+00  0.000000D+00
      7b  0.000000D+00  0.000000D+00  0.000000D+00  0.000000D+00  0.000000D+00
      8a  0.000000D+00  0.000000D+00  0.000000D+00  0.000000D+00  0.000000D+00
      8b  0.000000D+00  0.000000D+00  0.000000D+00  0.000000D+00  0.000000D+00
      9a  0.000000D+00  0.000000D+00  0.000000D+00  0.000000D+00  0.000000D+00
      9b  0.000000D+00  0.000000D+00  0.000000D+00  0.000000D+00  0.000000D+00
     10a  0.000000D+00  0.000000D+00  0.000000D+00  0.000000D+00  0.000000D+00
     10b  0.000000D+00  0.000000D+00  0.000000D+00  0.000000D+00  0.000000D+00
                16            17            18            19            20 
      1a  0.000000D+00  0.000000D+00  0.000000D+00  0.000000D+00  0.000000D+00
      1b  0.000000D+00  0.000000D+00  0.000000D+00  0.000000D+00  0.000000D+00
      2a  0.000000D+00  0.000000D+00  0.000000D+00  0.000000D+00  0.000000D+00
      2b  0.000000D+00  0.000000D+00  0.000000D+00  0.000000D+00  0.000000D+00
      3a  0.000000D+00  0.000000D+00  0.000000D+00  0.000000D+00  0.000000D+00
      3b  0.000000D+00  0.000000D+00  0.000000D+00  0.000000D+00  0.000000D+00
      4a  0.000000D+00  0.000000D+00  0.000000D+00  0.000000D+00  0.000000D+00
      4b  0.000000D+00  0.000000D+00  0.000000D+00  0.000000D+00  0.000000D+00
      5a  0.000000D+00  0.000000D+00  0.000000D+00  0.000000D+00  0.000000D+00
      5b  0.000000D+00  0.000000D+00  0.000000D+00  0.000000D+00  0.000000D+00
      6a  0.000000D+00  0.000000D+00  0.000000D+00  0.000000D+00  0.000000D+00
      6b  0.000000D+00  0.000000D+00  0.000000D+00  0.000000D+00  0.000000D+00
      7a  0.000000D+00  0.000000D+00  0.000000D+00  0.000000D+00  0.000000D+00
      7b  0.000000D+00  0.000000D+00  0.000000D+00  0.000000D+00  0.000000D+00
      8a  0.000000D+00  0.000000D+00  0.000000D+00  0.000000D+00  0.000000D+00
      8b  0.000000D+00  0.000000D+00  0.000000D+00  0.000000D+00  0.000000D+00
      9a  0.000000D+00  0.000000D+00  0.000000D+00  0.000000D+00  0.000000D+00
      9b  0.000000D+00  0.000000D+00  0.000000D+00  0.000000D+00  0.000000D+00
     10a  0.000000D+00  0.000000D+00  0.000000D+00  0.000000D+00  0.000000D+00
     10b  0.000000D+00  0.000000D+00  0.000000D+00  0.000000D+00  0.000000D+00
 afr conversion (alpha, real):
                 1             2             3             4             5 
      1   0.000000D+00  0.198928D-01  0.145098D+00 -0.490083D-05  0.304952D+00
      2   0.000000D+00  0.536548D-01  0.259839D+00 -0.877632D-05  0.361442D+00
      3   0.000000D+00  0.104842D+00  0.329373D+00 -0.111249D-04  0.173150D+00
      4   0.000000D+00  0.119821D+00  0.234866D+00 -0.793284D-05 -0.112487D+00
      5   0.000000D+00  0.158162D+00  0.193680D+00 -0.654172D-05 -0.287382D+00
      6   0.000000D+00  0.230790D+00  0.988718D-02  0.000000D+00 -0.338207D+00
      7   0.000000D+00  0.308874D+00 -0.153165D+00  0.517328D-05 -0.226993D+00
      8   0.000000D+00  0.265603D+00 -0.235298D+00  0.794743D-05  0.145048D+00
      9   0.000000D+00  0.168367D+00 -0.207874D+00  0.702115D-05  0.296161D+00
     10   0.000000D+00  0.861791D-01 -0.158883D+00  0.536642D-05  0.424825D+00
                 6             7             8             9            10 
      1   0.000000D+00  0.000000D+00  0.149571D+00 -0.457929D+00  0.000000D+00
      2   0.000000D+00  0.000000D+00  0.422966D-01 -0.359576D+00  0.000000D+00
      3   0.000000D+00  0.000000D+00  0.899651D-01  0.277385D+00  0.000000D+00
      4   0.000000D+00 -0.127518D-05 -0.317256D+00  0.335227D+00  0.000000D+00
      5   0.000000D+00  0.000000D+00  0.156846D+00  0.546522D+00  0.000000D+00
      6   0.000000D+00 -0.206964D-05 -0.514913D+00 -0.428310D+00  0.000000D+00
      7   0.000000D+00  0.308141D-05  0.766634D+00 -0.295186D+00  0.000000D+00
      8   0.000000D+00 -0.181791D-05 -0.452284D+00 -0.405337D+00  0.000000D+00
      9   0.000000D+00  0.167440D-05  0.416578D+00  0.277056D+00  0.000000D+00
     10   0.000000D+00 -0.141731D-05 -0.352616D+00  0.535464D+00  0.000000D+00
                11            12            13            14            15 
      1  -0.465178D+00  0.418653D-05  0.230676D-05 -0.518660D+00 -0.717257D-05
      2   0.602910D+00 -0.542610D-05  0.000000D+00 -0.224023D+00  0.869789D-05
      3  -0.450864D+00  0.405770D-05 -0.411979D-05  0.926311D+00  0.000000D+00
      4   0.617794D+00 -0.556005D-05  0.000000D+00  0.456394D-01 -0.366692D-05
      5  -0.414723D+00  0.373244D-05  0.154398D-05 -0.347155D+00  0.259503D-05
      6  -0.422486D-02  0.000000D+00  0.149357D-05 -0.335820D+00 -0.655307D-05
      7   0.742906D-01  0.000000D+00  0.148146D-05 -0.333096D+00  0.564550D-05
      8  -0.340382D+00  0.306339D-05 -0.386629D-05  0.869313D+00  0.518659D-05
      9   0.568214D+00 -0.511383D-05 -0.155842D-05  0.350401D+00 -0.904206D-05
     10  -0.250726D+00  0.225650D-05  0.361616D-05 -0.813072D+00  0.273933D-05
                16            17            18            19            20 
      1   0.679442D+00  0.228854D+00 -0.460567D-04  0.602988D+00 -0.210533D-03
      2  -0.823932D+00  0.415013D+00 -0.835209D-04 -0.671472D+00  0.234445D-03
      3   0.100741D-01 -0.909341D+00  0.183004D-03 -0.569953D+00  0.198999D-03
      4   0.347360D+00 -0.311400D+00  0.626690D-04  0.129241D+01 -0.451244D-03
      5  -0.245821D+00  0.132938D+01 -0.267536D-03 -0.414425D-01  0.144697D-04
      6   0.620758D+00 -0.265463D+00  0.534242D-04 -0.118548D+01  0.413911D-03
      7  -0.534786D+00 -0.105686D+01  0.212692D-03  0.449701D+00 -0.157013D-03
      8  -0.491314D+00  0.618959D+00 -0.124565D-03  0.660153D+00 -0.230493D-03
      9   0.856535D+00  0.529837D+00 -0.106629D-03 -0.422120D+00  0.147384D-03
     10  -0.259490D+00 -0.532598D+00  0.107185D-03 -0.101840D+00  0.355573D-04
 afr conversion (alpha, imaginary):
                 1             2             3             4             5 
      1   0.000000D+00  0.000000D+00  0.000000D+00  0.000000D+00  0.000000D+00
      2   0.000000D+00  0.000000D+00  0.000000D+00  0.000000D+00  0.000000D+00
      3   0.000000D+00  0.000000D+00  0.000000D+00  0.000000D+00  0.000000D+00
      4   0.000000D+00  0.000000D+00  0.000000D+00  0.000000D+00  0.000000D+00
      5   0.000000D+00  0.000000D+00  0.000000D+00  0.000000D+00  0.000000D+00
      6   0.000000D+00  0.000000D+00  0.000000D+00  0.000000D+00  0.000000D+00
      7   0.000000D+00  0.000000D+00  0.000000D+00  0.000000D+00  0.000000D+00
      8   0.000000D+00  0.000000D+00  0.000000D+00  0.000000D+00  0.000000D+00
      9   0.000000D+00  0.000000D+00  0.000000D+00  0.000000D+00  0.000000D+00
     10   0.000000D+00  0.000000D+00  0.000000D+00  0.000000D+00  0.000000D+00
                 6             7             8             9            10 
      1   0.000000D+00  0.000000D+00  0.000000D+00  0.000000D+00  0.000000D+00
      2   0.000000D+00  0.000000D+00  0.000000D+00  0.000000D+00  0.000000D+00
      3   0.000000D+00  0.000000D+00  0.000000D+00  0.000000D+00  0.000000D+00
      4   0.000000D+00  0.000000D+00  0.000000D+00  0.000000D+00  0.000000D+00
      5   0.000000D+00  0.000000D+00  0.000000D+00  0.000000D+00  0.000000D+00
      6   0.000000D+00  0.000000D+00  0.000000D+00  0.000000D+00  0.000000D+00
      7   0.000000D+00  0.000000D+00  0.000000D+00  0.000000D+00  0.000000D+00
      8   0.000000D+00  0.000000D+00  0.000000D+00  0.000000D+00  0.000000D+00
      9   0.000000D+00  0.000000D+00  0.000000D+00  0.000000D+00  0.000000D+00
     10   0.000000D+00  0.000000D+00  0.000000D+00  0.000000D+00  0.000000D+00
                11            12            13            14            15 
      1   0.000000D+00  0.000000D+00  0.000000D+00  0.000000D+00  0.000000D+00
      2   0.000000D+00  0.000000D+00  0.000000D+00  0.000000D+00  0.000000D+00
      3   0.000000D+00  0.000000D+00  0.000000D+00  0.000000D+00  0.000000D+00
      4   0.000000D+00  0.000000D+00  0.000000D+00  0.000000D+00  0.000000D+00
      5   0.000000D+00  0.000000D+00  0.000000D+00  0.000000D+00  0.000000D+00
      6   0.000000D+00  0.000000D+00  0.000000D+00  0.000000D+00  0.000000D+00
      7   0.000000D+00  0.000000D+00  0.000000D+00  0.000000D+00  0.000000D+00
      8   0.000000D+00  0.000000D+00  0.000000D+00  0.000000D+00  0.000000D+00
      9   0.000000D+00  0.000000D+00  0.000000D+00  0.000000D+00  0.000000D+00
     10   0.000000D+00  0.000000D+00  0.000000D+00  0.000000D+00  0.000000D+00
                16            17            18            19            20 
      1   0.000000D+00  0.000000D+00  0.000000D+00  0.000000D+00  0.000000D+00
      2   0.000000D+00  0.000000D+00  0.000000D+00  0.000000D+00  0.000000D+00
      3   0.000000D+00  0.000000D+00  0.000000D+00  0.000000D+00  0.000000D+00
      4   0.000000D+00  0.000000D+00  0.000000D+00  0.000000D+00  0.000000D+00
      5   0.000000D+00  0.000000D+00  0.000000D+00  0.000000D+00  0.000000D+00
      6   0.000000D+00  0.000000D+00  0.000000D+00  0.000000D+00  0.000000D+00
      7   0.000000D+00  0.000000D+00  0.000000D+00  0.000000D+00  0.000000D+00
      8   0.000000D+00  0.000000D+00  0.000000D+00  0.000000D+00  0.000000D+00
      9   0.000000D+00  0.000000D+00  0.000000D+00  0.000000D+00  0.000000D+00
     10   0.000000D+00  0.000000D+00  0.000000D+00  0.000000D+00  0.000000D+00
 afr conversion (beta, real):
                 1             2             3             4             5 
      1   0.861791D-01  0.000000D+00 -0.536642D-05 -0.158883D+00  0.000000D+00
      2   0.168367D+00  0.000000D+00 -0.702115D-05 -0.207874D+00  0.000000D+00
      3   0.265603D+00  0.000000D+00 -0.794743D-05 -0.235298D+00  0.000000D+00
      4   0.308874D+00  0.000000D+00 -0.517328D-05 -0.153165D+00  0.000000D+00
      5   0.230790D+00  0.000000D+00  0.000000D+00  0.988718D-02  0.000000D+00
      6   0.158162D+00  0.000000D+00  0.654172D-05  0.193680D+00  0.000000D+00
      7   0.119821D+00  0.000000D+00  0.793284D-05  0.234866D+00  0.000000D+00
      8   0.104842D+00  0.000000D+00  0.111249D-04  0.329373D+00  0.000000D+00
      9   0.536548D-01  0.000000D+00  0.877632D-05  0.259839D+00  0.000000D+00
     10   0.198928D-01  0.000000D+00  0.490083D-05  0.145098D+00  0.000000D+00
                 6             7             8             9            10 
      1   0.424825D+00 -0.352616D+00  0.141731D-05  0.000000D+00  0.535464D+00
      2   0.296161D+00  0.416578D+00 -0.167440D-05  0.000000D+00  0.277056D+00
      3   0.145048D+00 -0.452284D+00  0.181791D-05  0.000000D+00 -0.405337D+00
      4  -0.226993D+00  0.766634D+00 -0.308141D-05  0.000000D+00 -0.295186D+00
      5  -0.338207D+00 -0.514913D+00  0.206964D-05  0.000000D+00 -0.428310D+00
      6  -0.287382D+00  0.156846D+00  0.000000D+00  0.000000D+00  0.546522D+00
      7  -0.112487D+00 -0.317256D+00  0.127518D-05  0.000000D+00  0.335227D+00
      8   0.173150D+00  0.899651D-01  0.000000D+00  0.000000D+00  0.277385D+00
      9   0.361442D+00  0.422966D-01  0.000000D+00  0.000000D+00 -0.359576D+00
     10   0.304952D+00  0.149571D+00  0.000000D+00  0.000000D+00 -0.457929D+00
                11            12            13            14            15 
      1  -0.225650D-05 -0.250726D+00 -0.813072D+00 -0.361616D-05 -0.259490D+00
      2   0.511383D-05  0.568214D+00  0.350401D+00  0.155842D-05  0.856535D+00
      3  -0.306339D-05 -0.340382D+00  0.869313D+00  0.386629D-05 -0.491314D+00
      4   0.000000D+00  0.742906D-01 -0.333096D+00 -0.148146D-05 -0.534786D+00
      5   0.000000D+00 -0.422486D-02 -0.335820D+00 -0.149357D-05  0.620758D+00
      6  -0.373244D-05 -0.414723D+00 -0.347155D+00 -0.154398D-05 -0.245821D+00
      7   0.556005D-05  0.617794D+00  0.456394D-01  0.000000D+00  0.347360D+00
      8  -0.405770D-05 -0.450864D+00  0.926311D+00  0.411979D-05  0.100741D-01
      9   0.542610D-05  0.602910D+00 -0.224023D+00  0.000000D+00 -0.823932D+00
     10  -0.418653D-05 -0.465178D+00 -0.518660D+00 -0.230676D-05  0.679442D+00
                16            17            18            19            20 
      1  -0.273933D-05 -0.107185D-03 -0.532598D+00 -0.355573D-04 -0.101840D+00
      2   0.904206D-05  0.106629D-03  0.529837D+00 -0.147384D-03 -0.422120D+00
      3  -0.518659D-05  0.124565D-03  0.618959D+00  0.230493D-03  0.660153D+00
      4  -0.564550D-05 -0.212692D-03 -0.105686D+01  0.157013D-03  0.449701D+00
      5   0.655307D-05 -0.534242D-04 -0.265463D+00 -0.413911D-03 -0.118548D+01
      6  -0.259503D-05  0.267536D-03  0.132938D+01 -0.144697D-04 -0.414425D-01
      7   0.366692D-05 -0.626690D-04 -0.311400D+00  0.451244D-03  0.129241D+01
      8   0.000000D+00 -0.183004D-03 -0.909341D+00 -0.198999D-03 -0.569953D+00
      9  -0.869789D-05  0.835209D-04  0.415013D+00 -0.234445D-03 -0.671472D+00
     10   0.717257D-05  0.460567D-04  0.228854D+00  0.210533D-03  0.602988D+00
 afr conversion (beta, imaginary):
                 1             2             3             4             5 
      1   0.000000D+00  0.000000D+00  0.000000D+00  0.000000D+00  0.000000D+00
      2   0.000000D+00  0.000000D+00  0.000000D+00  0.000000D+00  0.000000D+00
      3   0.000000D+00  0.000000D+00  0.000000D+00  0.000000D+00  0.000000D+00
      4   0.000000D+00  0.000000D+00  0.000000D+00  0.000000D+00  0.000000D+00
      5   0.000000D+00  0.000000D+00  0.000000D+00  0.000000D+00  0.000000D+00
      6   0.000000D+00  0.000000D+00  0.000000D+00  0.000000D+00  0.000000D+00
      7   0.000000D+00  0.000000D+00  0.000000D+00  0.000000D+00  0.000000D+00
      8   0.000000D+00  0.000000D+00  0.000000D+00  0.000000D+00  0.000000D+00
      9   0.000000D+00  0.000000D+00  0.000000D+00  0.000000D+00  0.000000D+00
     10   0.000000D+00  0.000000D+00  0.000000D+00  0.000000D+00  0.000000D+00
                 6             7             8             9            10 
      1   0.000000D+00  0.000000D+00  0.000000D+00  0.000000D+00  0.000000D+00
      2   0.000000D+00  0.000000D+00  0.000000D+00  0.000000D+00  0.000000D+00
      3   0.000000D+00  0.000000D+00  0.000000D+00  0.000000D+00  0.000000D+00
      4   0.000000D+00  0.000000D+00  0.000000D+00  0.000000D+00  0.000000D+00
      5   0.000000D+00  0.000000D+00  0.000000D+00  0.000000D+00  0.000000D+00
      6   0.000000D+00  0.000000D+00  0.000000D+00  0.000000D+00  0.000000D+00
      7   0.000000D+00  0.000000D+00  0.000000D+00  0.000000D+00  0.000000D+00
      8   0.000000D+00  0.000000D+00  0.000000D+00  0.000000D+00  0.000000D+00
      9   0.000000D+00  0.000000D+00  0.000000D+00  0.000000D+00  0.000000D+00
     10   0.000000D+00  0.000000D+00  0.000000D+00  0.000000D+00  0.000000D+00
                11            12            13            14            15 
      1   0.000000D+00  0.000000D+00  0.000000D+00  0.000000D+00  0.000000D+00
      2   0.000000D+00  0.000000D+00  0.000000D+00  0.000000D+00  0.000000D+00
      3   0.000000D+00  0.000000D+00  0.000000D+00  0.000000D+00  0.000000D+00
      4   0.000000D+00  0.000000D+00  0.000000D+00  0.000000D+00  0.000000D+00
      5   0.000000D+00  0.000000D+00  0.000000D+00  0.000000D+00  0.000000D+00
      6   0.000000D+00  0.000000D+00  0.000000D+00  0.000000D+00  0.000000D+00
      7   0.000000D+00  0.000000D+00  0.000000D+00  0.000000D+00  0.000000D+00
      8   0.000000D+00  0.000000D+00  0.000000D+00  0.000000D+00  0.000000D+00
      9   0.000000D+00  0.000000D+00  0.000000D+00  0.000000D+00  0.000000D+00
     10   0.000000D+00  0.000000D+00  0.000000D+00  0.000000D+00  0.000000D+00
                16            17            18            19            20 
      1   0.000000D+00  0.000000D+00  0.000000D+00  0.000000D+00  0.000000D+00
      2   0.000000D+00  0.000000D+00  0.000000D+00  0.000000D+00  0.000000D+00
      3   0.000000D+00  0.000000D+00  0.000000D+00  0.000000D+00  0.000000D+00
      4   0.000000D+00  0.000000D+00  0.000000D+00  0.000000D+00  0.000000D+00
      5   0.000000D+00  0.000000D+00  0.000000D+00  0.000000D+00  0.000000D+00
      6   0.000000D+00  0.000000D+00  0.000000D+00  0.000000D+00  0.000000D+00
      7   0.000000D+00  0.000000D+00  0.000000D+00  0.000000D+00  0.000000D+00
      8   0.000000D+00  0.000000D+00  0.000000D+00  0.000000D+00  0.000000D+00
      9   0.000000D+00  0.000000D+00  0.000000D+00  0.000000D+00  0.000000D+00
     10   0.000000D+00  0.000000D+00  0.000000D+00  0.000000D+00  0.000000D+00
 jaja in hckghf.F, ISPECT =                     548
Spin block MO for GHF transformation
NOA =   10   NOB =   10
NVA =   10   NVB =   10
 NOAvA in Hack                     100
 jaja in tranN3.F, ISPECT =                     548
 in l802/tranN3.F, LSPECT =                      800
 NMat, NBtSiz,MDV                    8372                   16000
                133954722
 TranN3:  NGot= 134217728 NBasic=    263006 NTTT=       550 NMat=      8372.
 Defined bucket =                      51                   10000
 Defined bucket =                      52                   10000
 Defined bucket =                      53                   10000
 Defined bucket =                      55                   10000
 Defined bucket =                      57                   10000
 Defined bucket =                      58                   10000
 Defined bucket =                      60                   10000
 Defined bucket =                      72                   10000
 Defined bucket =                      73                   10000
 Defined bucket =                      74                   10000
 Defined bucket =                      75                   10000
 Defined bucket =                      76                   10000
 (IK/LS) integrals will be saved in memory.
 TrCghf made   2 passes through the AO integrals.
 jaja DoHack is true or false? F
 jaja in hckghf.F, NBasis=                      10
 jaja in hckGHF/FixOG, LC =                      800
 jaja in hckGHF/FixOG, IRwC=                      548
 bfr conversion (alpha, real):
                 1             2             3             4             5 
      1   0.000000D+00  0.198928D-01  0.145098D+00 -0.490083D-05  0.304952D+00
      2   0.000000D+00  0.536548D-01  0.259839D+00 -0.877632D-05  0.361442D+00
      3   0.000000D+00  0.104842D+00  0.329373D+00 -0.111249D-04  0.173150D+00
      4   0.000000D+00  0.119821D+00  0.234866D+00 -0.793284D-05 -0.112487D+00
      5   0.000000D+00  0.158162D+00  0.193680D+00 -0.654172D-05 -0.287382D+00
      6   0.000000D+00  0.230790D+00  0.988718D-02  0.000000D+00 -0.338207D+00
      7   0.000000D+00  0.308874D+00 -0.153165D+00  0.517328D-05 -0.226993D+00
      8   0.000000D+00  0.265603D+00 -0.235298D+00  0.794743D-05  0.145048D+00
      9   0.000000D+00  0.168367D+00 -0.207874D+00  0.702115D-05  0.296161D+00
     10   0.000000D+00  0.861791D-01 -0.158883D+00  0.536642D-05  0.424825D+00
                 6             7             8             9            10 
      1   0.000000D+00  0.000000D+00  0.149571D+00 -0.457929D+00  0.000000D+00
      2   0.000000D+00  0.000000D+00  0.422966D-01 -0.359576D+00  0.000000D+00
      3   0.000000D+00  0.000000D+00  0.899651D-01  0.277385D+00  0.000000D+00
      4   0.000000D+00 -0.127518D-05 -0.317256D+00  0.335227D+00  0.000000D+00
      5   0.000000D+00  0.000000D+00  0.156846D+00  0.546522D+00  0.000000D+00
[...]
      6b 0.538005D-01 -0.201885D+00 -0.922169D-02 -0.204672D+00 -0.117175D+00
      7a-0.140418D+00  0.927116D-01 -0.187401D+00  0.819552D-01 -0.233956D+00
      7b-0.102982D+00 -0.814061D-01 -0.872565D-01 -0.964098D-01  0.326218D-01
      8a 0.190808D+00 -0.105026D-01  0.106517D+00 -0.132547D+00 -0.133696D+00
      8b-0.389447D-01  0.213342D+00  0.999027D-01  0.611791D-01 -0.124631D+00
      9a 0.104606D+00  0.193258D-01  0.161766D+00 -0.705552D-02  0.625743D-01
      9b 0.704694D-02  0.213723D+00  0.105390D+00  0.160223D+00  0.100740D+00
     10a 0.158172D+00 -0.760572D-02  0.216013D+00  0.189349D-01  0.215227D+00
     10b 0.120955D-01  0.156598D+00  0.623766D-02  0.103210D+00 -0.398411D-01
                3b            4a            4b            5a            5b
      3b 0.476416D+00
      4a-0.149625D+00  0.346946D+00
      4b 0.682042D-01 -0.571184D-01  0.606607D+00
      5a 0.977421D-02  0.308393D+00  0.973522D-02  0.607871D+00
      5b 0.129079D+00 -0.652923D-01  0.288456D+00  0.774144D-01  0.617714D+00
      6a 0.716019D-01  0.980281D-01 -0.691363D-01  0.156522D+00  0.584459D-01
      6b-0.330162D+00  0.849596D-01  0.104035D+00 -0.118249D+00  0.155486D+00
      7a 0.422630D-01 -0.996398D-01 -0.160969D+00  0.104658D+00 -0.680929D-01
      7b-0.202999D+00  0.164818D+00 -0.998634D-01  0.862118D-01  0.978853D-01
      8a 0.103420D+00 -0.203918D+00  0.422122D-01 -0.332093D+00  0.711152D-01
      8b-0.133473D+00  0.320750D-01 -0.232763D+00 -0.117133D+00 -0.224817D+00
      9a-0.132017D+00 -0.972804D-01  0.825037D-01 -0.205680D+00 -0.168742D-01
      9b 0.104725D+00 -0.865332D-01 -0.185644D+00 -0.963446D-02 -0.245642D+00
     10a-0.115413D-01 -0.814948D-01  0.939528D-01 -0.203378D+00 -0.669447D-01
     10b 0.189422D+00 -0.102213D+00 -0.139736D+00  0.536830D-01 -0.164579D+00
                6a            6b            7a            7b            8a
      6a 0.620612D+00
      6b 0.778544D-01  0.605157D+00
      7a 0.290751D+00  0.107954D-01  0.607408D+00
      7b-0.656442D-01  0.306617D+00 -0.571838D-01  0.346646D+00
      8a 0.128608D+00  0.101967D-01  0.683348D-01 -0.150206D+00  0.477396D+00
      8b 0.852696D-01  0.153333D+00  0.127702D+00  0.159245D+00  0.133694D-01
      9a-0.389923D+00  0.118198D+00 -0.558109D-01  0.669529D-01  0.160012D+00
      9b-0.244904D+00 -0.356329D+00  0.339845D-01 -0.276056D-01 -0.205967D-01
     10a-0.512720D+00 -0.178255D+00 -0.352981D+00  0.756054D-02  0.185720D+00
     10b 0.145685D+00 -0.323900D+00  0.212338D+00 -0.170884D+00 -0.426196D-01
                8b            9a            9b           10a           10b
      8b 0.435819D+00
      9a-0.917212D-01  0.585812D+00
      9b 0.274728D+00  0.142405D-01  0.752978D+00
     10a-0.791914D-02  0.471304D+00  0.451818D+00  0.882017D+00
     10b 0.207002D+00 -0.358471D+00  0.428441D+00 -0.119267D+00  0.560943D+00
 jaja lower-tri density matrix (imaginary):
                1a            1b            2a            2b            3a
      1a 0.000000D+00
      1b 0.000000D+00  0.000000D+00
      2a 0.000000D+00  0.000000D+00  0.000000D+00
      2b 0.000000D+00  0.000000D+00  0.000000D+00  0.000000D+00
      3a 0.000000D+00  0.000000D+00  0.000000D+00  0.000000D+00  0.000000D+00
      3b 0.000000D+00  0.000000D+00  0.000000D+00  0.000000D+00  0.000000D+00
      4a 0.000000D+00  0.000000D+00  0.000000D+00  0.000000D+00  0.000000D+00
      4b 0.000000D+00  0.000000D+00  0.000000D+00  0.000000D+00  0.000000D+00
      5a 0.000000D+00  0.000000D+00  0.000000D+00  0.000000D+00  0.000000D+00
      5b 0.000000D+00  0.000000D+00  0.000000D+00  0.000000D+00  0.000000D+00
      6a 0.000000D+00  0.000000D+00  0.000000D+00  0.000000D+00  0.000000D+00
      6b 0.000000D+00  0.000000D+00  0.000000D+00  0.000000D+00  0.000000D+00
      7a 0.000000D+00  0.000000D+00  0.000000D+00  0.000000D+00  0.000000D+00
      7b 0.000000D+00  0.000000D+00  0.000000D+00  0.000000D+00  0.000000D+00
      8a 0.000000D+00  0.000000D+00  0.000000D+00  0.000000D+00  0.000000D+00
      8b 0.000000D+00  0.000000D+00  0.000000D+00  0.000000D+00  0.000000D+00
      9a 0.000000D+00  0.000000D+00  0.000000D+00  0.000000D+00  0.000000D+00
      9b 0.000000D+00  0.000000D+00  0.000000D+00  0.000000D+00  0.000000D+00
     10a 0.000000D+00  0.000000D+00  0.000000D+00  0.000000D+00  0.000000D+00
     10b 0.000000D+00  0.000000D+00  0.000000D+00  0.000000D+00  0.000000D+00
                3b            4a            4b            5a            5b
      3b 0.000000D+00
      4a 0.000000D+00  0.000000D+00
      4b 0.000000D+00  0.000000D+00  0.000000D+00
      5a 0.000000D+00  0.000000D+00  0.000000D+00  0.000000D+00
      5b 0.000000D+00  0.000000D+00  0.000000D+00  0.000000D+00  0.000000D+00
      6a 0.000000D+00  0.000000D+00  0.000000D+00  0.000000D+00  0.000000D+00
      6b 0.000000D+00  0.000000D+00  0.000000D+00  0.000000D+00  0.000000D+00
      7a 0.000000D+00  0.000000D+00  0.000000D+00  0.000000D+00  0.000000D+00
      7b 0.000000D+00  0.000000D+00  0.000000D+00  0.000000D+00  0.000000D+00
      8a 0.000000D+00  0.000000D+00  0.000000D+00  0.000000D+00  0.000000D+00
      8b 0.000000D+00  0.000000D+00  0.000000D+00  0.000000D+00  0.000000D+00
      9a 0.000000D+00  0.000000D+00  0.000000D+00  0.000000D+00  0.000000D+00
      9b 0.000000D+00  0.000000D+00  0.000000D+00  0.000000D+00  0.000000D+00
     10a 0.000000D+00  0.000000D+00  0.000000D+00  0.000000D+00  0.000000D+00
     10b 0.000000D+00  0.000000D+00  0.000000D+00  0.000000D+00  0.000000D+00
                6a            6b            7a            7b            8a
      6a 0.000000D+00
      6b 0.000000D+00  0.000000D+00
      7a 0.000000D+00  0.000000D+00  0.000000D+00
      7b 0.000000D+00  0.000000D+00  0.000000D+00  0.000000D+00
      8a 0.000000D+00  0.000000D+00  0.000000D+00  0.000000D+00  0.000000D+00
      8b 0.000000D+00  0.000000D+00  0.000000D+00  0.000000D+00  0.000000D+00
      9a 0.000000D+00  0.000000D+00  0.000000D+00  0.000000D+00  0.000000D+00
      9b 0.000000D+00  0.000000D+00  0.000000D+00  0.000000D+00  0.000000D+00
     10a 0.000000D+00  0.000000D+00  0.000000D+00  0.000000D+00  0.000000D+00
     10b 0.000000D+00  0.000000D+00  0.000000D+00  0.000000D+00  0.000000D+00
                8b            9a            9b           10a           10b
      8b 0.000000D+00
      9a 0.000000D+00  0.000000D+00
      9b 0.000000D+00  0.000000D+00  0.000000D+00
     10a 0.000000D+00  0.000000D+00  0.000000D+00  0.000000D+00
     10b 0.000000D+00  0.000000D+00  0.000000D+00  0.000000D+00  0.000000D+00
 jaja non-ortho density matrix               [Gau-style] (real):
                 1             2             3             4             5 
      1a  0.562970D+00 -0.116479D+00  0.432302D+00 -0.358656D+00  0.207373D+00
      1b -0.116479D+00  0.877553D+00  0.450521D+00  0.467529D+00 -0.708026D-02
      2a  0.432302D+00  0.450521D+00  0.755191D+00  0.113168D-01  0.276144D+00
      2b -0.358656D+00  0.467529D+00  0.113168D-01  0.584470D+00 -0.914847D-01
      3a  0.207373D+00 -0.708026D-02  0.276144D+00 -0.914847D-01  0.436754D+00
      3b -0.426779D-01  0.185336D+00 -0.207733D-01  0.159349D+00  0.127210D-01
      4a -0.171826D+00  0.682682D-02 -0.290815D-01  0.675124D-01  0.159653D+00
      4b  0.212281D+00 -0.350313D+00  0.361561D-01 -0.543353D-01  0.127860D+00
      5a -0.326949D+00 -0.178453D+00 -0.358744D+00  0.119928D+00  0.152852D+00
      5b  0.144145D+00 -0.508822D+00 -0.243298D+00 -0.387468D+00  0.845810D-01
      6a -0.165969D+00 -0.668557D-01 -0.247367D+00 -0.165037D-01 -0.226497D+00
      6b  0.538005D-01 -0.201885D+00 -0.922169D-02 -0.204672D+00 -0.117175D+00
      7a -0.140418D+00  0.927116D-01 -0.187401D+00  0.819552D-01 -0.233956D+00
      7b -0.102982D+00 -0.814061D-01 -0.872565D-01 -0.964098D-01  0.326218D-01
      8a  0.190808D+00 -0.105026D-01  0.106517D+00 -0.132547D+00 -0.133696D+00
      8b -0.389447D-01  0.213342D+00  0.999027D-01  0.611791D-01 -0.124631D+00
      9a  0.104606D+00  0.193258D-01  0.161766D+00 -0.705552D-02  0.625743D-01
      9b  0.704694D-02  0.213723D+00  0.105390D+00  0.160223D+00  0.100740D+00
     10a  0.158172D+00 -0.760572D-02  0.216013D+00  0.189349D-01  0.215227D+00
     10b  0.120955D-01  0.156598D+00  0.623766D-02  0.103210D+00 -0.398411D-01
                 6             7             8             9            10 
      1a -0.426779D-01 -0.171826D+00  0.212281D+00 -0.326949D+00  0.144145D+00
      1b  0.185336D+00  0.682682D-02 -0.350313D+00 -0.178453D+00 -0.508822D+00
      2a -0.207733D-01 -0.290815D-01  0.361561D-01 -0.358744D+00 -0.243298D+00
      2b  0.159349D+00  0.675124D-01 -0.543353D-01  0.119928D+00 -0.387468D+00
      3a  0.127210D-01  0.159653D+00  0.127860D+00  0.152852D+00  0.845810D-01
      3b  0.476416D+00 -0.149625D+00  0.682042D-01  0.977421D-02  0.129079D+00
      4a -0.149625D+00  0.346946D+00 -0.571184D-01  0.308393D+00 -0.652923D-01
      4b  0.682042D-01 -0.571184D-01  0.606607D+00  0.973522D-02  0.288456D+00
      5a  0.977421D-02  0.308393D+00  0.973522D-02  0.607871D+00  0.774144D-01
      5b  0.129079D+00 -0.652923D-01  0.288456D+00  0.774144D-01  0.617714D+00
      6a  0.716019D-01  0.980281D-01 -0.691363D-01  0.156522D+00  0.584459D-01
      6b -0.330162D+00  0.849596D-01  0.104035D+00 -0.118249D+00  0.155486D+00
      7a  0.422630D-01 -0.996398D-01 -0.160969D+00  0.104658D+00 -0.680929D-01
      7b -0.202999D+00  0.164818D+00 -0.998634D-01  0.862118D-01  0.978853D-01
      8a  0.103420D+00 -0.203918D+00  0.422122D-01 -0.332093D+00  0.711152D-01
      8b -0.133473D+00  0.320750D-01 -0.232763D+00 -0.117133D+00 -0.224817D+00
      9a -0.132017D+00 -0.972804D-01  0.825037D-01 -0.205680D+00 -0.168742D-01
      9b  0.104725D+00 -0.865332D-01 -0.185644D+00 -0.963446D-02 -0.245642D+00
     10a -0.115413D-01 -0.814948D-01  0.939528D-01 -0.203378D+00 -0.669447D-01
     10b  0.189422D+00 -0.102213D+00 -0.139736D+00  0.536830D-01 -0.164579D+00
                11            12            13            14            15 
      1a -0.165969D+00  0.538005D-01 -0.140418D+00 -0.102982D+00  0.190808D+00
      1b -0.668557D-01 -0.201885D+00  0.927116D-01 -0.814061D-01 -0.105026D-01
      2a -0.247367D+00 -0.922169D-02 -0.187401D+00 -0.872565D-01  0.106517D+00
      2b -0.165037D-01 -0.204672D+00  0.819552D-01 -0.964098D-01 -0.132547D+00
      3a -0.226497D+00 -0.117175D+00 -0.233956D+00  0.326218D-01 -0.133696D+00
      3b  0.716019D-01 -0.330162D+00  0.422630D-01 -0.202999D+00  0.103420D+00
      4a  0.980281D-01  0.849596D-01 -0.996398D-01  0.164818D+00 -0.203918D+00
      4b -0.691363D-01  0.104035D+00 -0.160969D+00 -0.998634D-01  0.422122D-01
      5a  0.156522D+00 -0.118249D+00  0.104658D+00  0.862118D-01 -0.332093D+00
      5b  0.584459D-01  0.155486D+00 -0.680929D-01  0.978853D-01  0.711152D-01
      6a  0.620612D+00  0.778544D-01  0.290751D+00 -0.656442D-01  0.128608D+00
      6b  0.778544D-01  0.605157D+00  0.107954D-01  0.306617D+00  0.101967D-01
      7a  0.290751D+00  0.107954D-01  0.607408D+00 -0.571838D-01  0.683348D-01
      7b -0.656442D-01  0.306617D+00 -0.571838D-01  0.346646D+00 -0.150206D+00
      8a  0.128608D+00  0.101967D-01  0.683348D-01 -0.150206D+00  0.477396D+00
      8b  0.852696D-01  0.153333D+00  0.127702D+00  0.159245D+00  0.133694D-01
      9a -0.389923D+00  0.118198D+00 -0.558109D-01  0.669529D-01  0.160012D+00
      9b -0.244904D+00 -0.356329D+00  0.339845D-01 -0.276056D-01 -0.205967D-01
     10a -0.512720D+00 -0.178255D+00 -0.352981D+00  0.756054D-02  0.185720D+00
     10b  0.145685D+00 -0.323900D+00  0.212338D+00 -0.170884D+00 -0.426196D-01
                16            17            18            19            20 
      1a -0.389447D-01  0.104606D+00  0.704694D-02  0.158172D+00  0.120955D-01
      1b  0.213342D+00  0.193258D-01  0.213723D+00 -0.760572D-02  0.156598D+00
      2a  0.999027D-01  0.161766D+00  0.105390D+00  0.216013D+00  0.623766D-02
      2b  0.611791D-01 -0.705552D-02  0.160223D+00  0.189349D-01  0.103210D+00
      3a -0.124631D+00  0.625743D-01  0.100740D+00  0.215227D+00 -0.398411D-01
      3b -0.133473D+00 -0.132017D+00  0.104725D+00 -0.115413D-01  0.189422D+00
      4a  0.320750D-01 -0.972804D-01 -0.865332D-01 -0.814948D-01 -0.102213D+00
      4b -0.232763D+00  0.825037D-01 -0.185644D+00  0.939528D-01 -0.139736D+00
      5a -0.117133D+00 -0.205680D+00 -0.963446D-02 -0.203378D+00  0.536830D-01
      5b -0.224817D+00 -0.168742D-01 -0.245642D+00 -0.669447D-01 -0.164579D+00
      6a  0.852696D-01 -0.389923D+00 -0.244904D+00 -0.512720D+00  0.145685D+00
      6b  0.153333D+00  0.118198D+00 -0.356329D+00 -0.178255D+00 -0.323900D+00
      7a  0.127702D+00 -0.558109D-01  0.339845D-01 -0.352981D+00  0.212338D+00
      7b  0.159245D+00  0.669529D-01 -0.276056D-01  0.756054D-02 -0.170884D+00
      8a  0.133694D-01  0.160012D+00 -0.205967D-01  0.185720D+00 -0.426196D-01
      8b  0.435819D+00 -0.917212D-01  0.274728D+00 -0.791914D-02  0.207002D+00
      9a -0.917212D-01  0.585812D+00  0.142405D-01  0.471304D+00 -0.358471D+00
      9b  0.274728D+00  0.142405D-01  0.752978D+00  0.451818D+00  0.428441D+00
     10a -0.791914D-02  0.471304D+00  0.451818D+00  0.882017D+00 -0.119267D+00
     10b  0.207002D+00 -0.358471D+00  0.428441D+00 -0.119267D+00  0.560943D+00
 jaja non-ortho density matrix               [Gau-style] (imaginary):
                 1             2             3             4             5 
      1a  0.000000D+00  0.000000D+00  0.000000D+00  0.000000D+00  0.000000D+00
      1b  0.000000D+00  0.000000D+00  0.000000D+00  0.000000D+00  0.000000D+00
      2a  0.000000D+00  0.000000D+00  0.000000D+00  0.000000D+00  0.000000D+00
      2b  0.000000D+00  0.000000D+00  0.000000D+00  0.000000D+00  0.000000D+00
      3a  0.000000D+00  0.000000D+00  0.000000D+00  0.000000D+00  0.000000D+00
      3b  0.000000D+00  0.000000D+00  0.000000D+00  0.000000D+00  0.000000D+00
      4a  0.000000D+00  0.000000D+00  0.000000D+00  0.000000D+00  0.000000D+00
      4b  0.000000D+00  0.000000D+00  0.000000D+00  0.000000D+00  0.000000D+00
      5a  0.000000D+00  0.000000D+00  0.000000D+00  0.000000D+00  0.000000D+00
      5b  0.000000D+00  0.000000D+00  0.000000D+00  0.000000D+00  0.000000D+00
      6a  0.000000D+00  0.000000D+00  0.000000D+00  0.000000D+00  0.000000D+00
      6b  0.000000D+00  0.000000D+00  0.000000D+00  0.000000D+00  0.000000D+00
      7a  0.000000D+00  0.000000D+00  0.000000D+00  0.000000D+00  0.000000D+00
      7b  0.000000D+00  0.000000D+00  0.000000D+00  0.000000D+00  0.000000D+00
      8a  0.000000D+00  0.000000D+00  0.000000D+00  0.000000D+00  0.000000D+00
      8b  0.000000D+00  0.000000D+00  0.000000D+00  0.000000D+00  0.000000D+00
      9a  0.000000D+00  0.000000D+00  0.000000D+00  0.000000D+00  0.000000D+00
      9b  0.000000D+00  0.000000D+00  0.000000D+00  0.000000D+00  0.000000D+00
     10a  0.000000D+00  0.000000D+00  0.000000D+00  0.000000D+00  0.000000D+00
     10b  0.000000D+00  0.000000D+00  0.000000D+00  0.000000D+00  0.000000D+00
                 6             7             8             9            10 
      1a  0.000000D+00  0.000000D+00  0.000000D+00  0.000000D+00  0.000000D+00
      1b  0.000000D+00  0.000000D+00  0.000000D+00  0.000000D+00  0.000000D+00
      2a  0.000000D+00  0.000000D+00  0.000000D+00  0.000000D+00  0.000000D+00
      2b  0.000000D+00  0.000000D+00  0.000000D+00  0.000000D+00  0.000000D+00
      3a  0.000000D+00  0.000000D+00  0.000000D+00  0.000000D+00  0.000000D+00
      3b  0.000000D+00  0.000000D+00  0.000000D+00  0.000000D+00  0.000000D+00
      4a  0.000000D+00  0.000000D+00  0.000000D+00  0.000000D+00  0.000000D+00
      4b  0.000000D+00  0.000000D+00  0.000000D+00  0.000000D+00  0.000000D+00
      5a  0.000000D+00  0.000000D+00  0.000000D+00  0.000000D+00  0.000000D+00
      5b  0.000000D+00  0.000000D+00  0.000000D+00  0.000000D+00  0.000000D+00
      6a  0.000000D+00  0.000000D+00  0.000000D+00  0.000000D+00  0.000000D+00
      6b  0.000000D+00  0.000000D+00  0.000000D+00  0.000000D+00  0.000000D+00
      7a  0.000000D+00  0.000000D+00  0.000000D+00  0.000000D+00  0.000000D+00
      7b  0.000000D+00  0.000000D+00  0.000000D+00  0.000000D+00  0.000000D+00
      8a  0.000000D+00  0.000000D+00  0.000000D+00  0.000000D+00  0.000000D+00
      8b  0.000000D+00  0.000000D+00  0.000000D+00  0.000000D+00  0.000000D+00
      9a  0.000000D+00  0.000000D+00  0.000000D+00  0.000000D+00  0.000000D+00
      9b  0.000000D+00  0.000000D+00  0.000000D+00  0.000000D+00  0.000000D+00
     10a  0.000000D+00  0.000000D+00  0.000000D+00  0.000000D+00  0.000000D+00
     10b  0.000000D+00  0.000000D+00  0.000000D+00  0.000000D+00  0.000000D+00
                11            12            13            14            15 
      1a  0.000000D+00  0.000000D+00  0.000000D+00  0.000000D+00  0.000000D+00
      1b  0.000000D+00  0.000000D+00  0.000000D+00  0.000000D+00  0.000000D+00
      2a  0.000000D+00  0.000000D+00  0.000000D+00  0.000000D+00  0.000000D+00
      2b  0.000000D+00  0.000000D+00  0.000000D+00  0.000000D+00  0.000000D+00
      3a  0.000000D+00  0.000000D+00  0.000000D+00  0.000000D+00  0.000000D+00
      3b  0.000000D+00  0.000000D+00  0.000000D+00  0.000000D+00  0.000000D+00
      4a  0.000000D+00  0.000000D+00  0.000000D+00  0.000000D+00  0.000000D+00
      4b  0.000000D+00  0.000000D+00  0.000000D+00  0.000000D+00  0.000000D+00
      5a  0.000000D+00  0.000000D+00  0.000000D+00  0.000000D+00  0.000000D+00
      5b  0.000000D+00  0.000000D+00  0.000000D+00  0.000000D+00  0.000000D+00
      6a  0.000000D+00  0.000000D+00  0.000000D+00  0.000000D+00  0.000000D+00
      6b  0.000000D+00  0.000000D+00  0.000000D+00  0.000000D+00  0.000000D+00
      7a  0.000000D+00  0.000000D+00  0.000000D+00  0.000000D+00  0.000000D+00
      7b  0.000000D+00  0.000000D+00  0.000000D+00  0.000000D+00  0.000000D+00
      8a  0.000000D+00  0.000000D+00  0.000000D+00  0.000000D+00  0.000000D+00
      8b  0.000000D+00  0.000000D+00  0.000000D+00  0.000000D+00  0.000000D+00
      9a  0.000000D+00  0.000000D+00  0.000000D+00  0.000000D+00  0.000000D+00
      9b  0.000000D+00  0.000000D+00  0.000000D+00  0.000000D+00  0.000000D+00
     10a  0.000000D+00  0.000000D+00  0.000000D+00  0.000000D+00  0.000000D+00
     10b  0.000000D+00  0.000000D+00  0.000000D+00  0.000000D+00  0.000000D+00
                16            17            18            19            20 
      1a  0.000000D+00  0.000000D+00  0.000000D+00  0.000000D+00  0.000000D+00
      1b  0.000000D+00  0.000000D+00  0.000000D+00  0.000000D+00  0.000000D+00
      2a  0.000000D+00  0.000000D+00  0.000000D+00  0.000000D+00  0.000000D+00
      2b  0.000000D+00  0.000000D+00  0.000000D+00  0.000000D+00  0.000000D+00
      3a  0.000000D+00  0.000000D+00  0.000000D+00  0.000000D+00  0.000000D+00
      3b  0.000000D+00  0.000000D+00  0.000000D+00  0.000000D+00  0.000000D+00
      4a  0.000000D+00  0.000000D+00  0.000000D+00  0.000000D+00  0.000000D+00
      4b  0.000000D+00  0.000000D+00  0.000000D+00  0.000000D+00  0.000000D+00
      5a  0.000000D+00  0.000000D+00  0.000000D+00  0.000000D+00  0.000000D+00
      5b  0.000000D+00  0.000000D+00  0.000000D+00  0.000000D+00  0.000000D+00
      6a  0.000000D+00  0.000000D+00  0.000000D+00  0.000000D+00  0.000000D+00
      6b  0.000000D+00  0.000000D+00  0.000000D+00  0.000000D+00  0.000000D+00
      7a  0.000000D+00  0.000000D+00  0.000000D+00  0.000000D+00  0.000000D+00
      7b  0.000000D+00  0.000000D+00  0.000000D+00  0.000000D+00  0.000000D+00
      8a  0.000000D+00  0.000000D+00  0.000000D+00  0.000000D+00  0.000000D+00
      8b  0.000000D+00  0.000000D+00  0.000000D+00  0.000000D+00  0.000000D+00
      9a  0.000000D+00  0.000000D+00  0.000000D+00  0.000000D+00  0.000000D+00
      9b  0.000000D+00  0.000000D+00  0.000000D+00  0.000000D+00  0.000000D+00
     10a  0.000000D+00  0.000000D+00  0.000000D+00  0.000000D+00  0.000000D+00
     10b  0.000000D+00  0.000000D+00  0.000000D+00  0.000000D+00  0.000000D+00
FORTRAN STOP
