 Entering Gaussian System, Link 0=gdv
 AtFile(1): H.gbs
            H     0
            S   10   1.00
               1000.000000000000            0.000068713567
                316.227766000000            0.000169141320
                100.000000000000            0.000823394812
                 31.622776600000            0.003425569236
                 10.000000000000            0.013951996000
                  3.162277660000            0.056909313560
                  1.000000000000            0.198286399900
                  0.316227766000            0.496922426700
                  0.100000000000            0.369846276400
                  0.031622776600            0.003752720039
            ****
 Initial command:
 /users/lcj1/GHF_hess/exe-dir/l1.exe "/users/lcj1/GHF_hess/h10_2rows/mixrmY/Gau-23178.inp" -scrdir="/users/lcj1/GHF_hess/h10_2rows/mixrmY/"
 Entering Link 1 = /users/lcj1/GHF_hess/exe-dir/l1.exe PID=     23179.
  
 Copyright (c) 1988,1990,1992,1993,1995,1998,2003,2009,2012,
            Gaussian, Inc.  All Rights Reserved.
  
 This is the private, development version of
 the Gaussian(R) DV system of programs. It is based on
 the Gaussian(R) 09 system (copyright 2009, Gaussian, Inc.),
 the Gaussian(R) 03 system (copyright 2003, Gaussian, Inc.),
 the Gaussian(R) 98 system (copyright 1998, Gaussian, Inc.),
 the Gaussian(R) 94 system (copyright 1995, Gaussian, Inc.),
 the Gaussian 92(TM) system (copyright 1992, Gaussian, Inc.),
 the Gaussian 90(TM) system (copyright 1990, Gaussian, Inc.),
 the Gaussian 88(TM) system (copyright 1988, Gaussian, Inc.),
 the Gaussian 86(TM) system (copyright 1986, Carnegie Mellon
 University), and the Gaussian 82(TM) system (copyright 1983,
 Carnegie Mellon University). Gaussian is a federally registered
 trademark of Gaussian, Inc.
  
 This software contains proprietary and confidential information,
 including trade secrets, belonging to Gaussian, Inc.
  
 This software is provided under written license and may be
 used, copied, transmitted, or stored only in accord with that
 written license.
  
 The following legend is applicable only to US Government
 contracts under FAR:
  
                    RESTRICTED RIGHTS LEGEND
  
 Use, reproduction and disclosure by the US Government is
 subject to restrictions as set forth in subparagraphs (a)
 and (c) of the Commercial Computer Software - Restricted
 Rights clause in FAR 52.227-19.
  
 Gaussian, Inc.
 340 Quinnipiac St., Bldg. 40, Wallingford CT 06492
  
  
 ---------------------------------------------------------------
 Warning -- This program may not be used in any manner that
 competes with the business of Gaussian, Inc. or will provide
 assistance to any competitor of Gaussian, Inc.  The licensee
 of this program is prohibited from giving any competitor of
 Gaussian, Inc. access to this program.  By using this program,
 the user acknowledges that Gaussian, Inc. is engaged in the
 business of creating and licensing software in the field of
 computational chemistry and represents and warrants to the
 licensee that it is not a competitor of Gaussian, Inc. and that
 it will not use this program in any manner prohibited above.
 ---------------------------------------------------------------
  

 Cite this work as:
 Gaussian Development Version, Revision H.21,
 M. J. Frisch, G. W. Trucks, H. B. Schlegel, G. E. Scuseria, 
 M. A. Robb, J. R. Cheeseman, G. Scalmani, V. Barone, B. Mennucci, 
 G. A. Petersson, H. Nakatsuji, M. Caricato, X. Li, H. P. Hratchian, 
 A. F. Izmaylov, J. Bloino, G. Zheng, J. L. Sonnenberg, W. Liang, 
 M. Hada, M. Ehara, K. Toyota, R. Fukuda, J. Hasegawa, M. Ishida, 
 T. Nakajima, Y. Honda, O. Kitao, H. Nakai, T. Vreven, 
 J. A. Montgomery, Jr., J. E. Peralta, F. Ogliaro, M. Bearpark, 
 J. J. Heyd, E. Brothers, K. N. Kudin, V. N. Staroverov, T. Keith, 
 R. Kobayashi, J. Normand, K. Raghavachari, A. Rendell, J. C. Burant, 
 S. S. Iyengar, J. Tomasi, M. Cossi, N. Rega, J. M. Millam, M. Klene, 
 J. E. Knox, J. B. Cross, V. Bakken, C. Adamo, J. Jaramillo, 
 R. Gomperts, R. E. Stratmann, O. Yazyev, A. J. Austin, R. Cammi, 
 C. Pomelli, J. W. Ochterski, R. L. Martin, K. Morokuma, 
 V. G. Zakrzewski, G. A. Voth, P. Salvador, J. J. Dannenberg, 
 S. Dapprich, P. V. Parandekar, N. J. Mayhall, A. D. Daniels, 
 O. Farkas, J. B. Foresman, J. V. Ortiz, J. Cioslowski, 
 and D. J. Fox, Gaussian, Inc., Wallingford CT, 2010.
 
 ******************************************
 Gaussian DV:  EM64L-GDVRevH.21 13-May-2012
                28-Feb-2017 
 ******************************************
 %chk=h10.chk
 ----------------------------------------------------------------------
 #ghf/gen scf(tight,novaracc,noincfock,fulldiag) stable guess=(read,mix
 ) geom=nocrowd use=l802 use=l902 test
 ----------------------------------------------------------------------
 ********************************************
   THE COMPLEX ERI TRANSFORMATION WITH L802  
        COMPLEX STABILITY WITH L902          
 ********************************************
 1/38=1/1;
 2/12=1,17=6,18=5,40=1/2;
 3/5=7,16=1,25=20,28=1,116=7/1,2,3,20;
 4/5=1,13=-1/1;
 5/5=100001,16=1,32=2,38=6/2;
 8/6=1,10=90,11=11/1,2;
 9/8=4,13=1/1,2;
 6/7=2,8=2,9=2,10=2,28=1/1;
 99/5=1,9=1/99;
 ----------------------------------------------------------------------
 hf stability analysis of h10 triangular lattice, y= 0.2937440693806230
 9 alpha= 8.5000000000000000
 ----------------------------------------------------------------------
 Symbolic Z-Matrix:
 Charge =  0 Multiplicity = 1
 H
 H                    1     1.98732 
 H                    1     1.98732  2     163. 
 H                    2     1.98732  1     17.      3     0.       0
 H                    3     1.98732  1     180.     2     0.       0
 H                    4     1.98732  2     180.     1     0.       0
 H                    5     1.98732  3     180.     2     0.       0
 H                    6     1.98732  4     180.     1     0.       0
 H                    7     1.98732  5     180.     2     0.       0
 H                    8     1.98732  6     180.     1     0.       0
 
                          Input orientation:                          
 ---------------------------------------------------------------------
 Center     Atomic      Atomic             Coordinates (Angstroms)
 Number     Number       Type             X           Y           Z
 ---------------------------------------------------------------------
      1          1           0        0.000000    0.000000    0.000000
      2          1           0        0.000000    0.000000    1.987316
      3          1           0        0.581035    0.000000   -1.900480
      4          1           0        0.581035    0.000000    0.086836
      5          1           0        1.162070    0.000000   -3.800960
      6          1           0        1.162070    0.000000   -1.813644
      7          1           0        1.743105    0.000000   -5.701440
      8          1           0        1.743105    0.000000   -3.714124
      9          1           0        2.324140    0.000000   -7.601920
     10          1           0        2.324140    0.000000   -5.614604
 ---------------------------------------------------------------------
                    Distance matrix (angstroms):
                    1          2          3          4          5
     1  H    0.000000
     2  H    1.987316   0.000000
     3  H    1.987316   3.930975   0.000000
     4  H    0.587488   1.987316   1.987316   0.000000
     5  H    3.974633   5.903774   1.987316   3.930975   0.000000
     6  H    2.153999   3.974633   0.587488   1.987316   1.987316
     7  H    5.961949   7.883869   3.974633   5.903774   1.987316
     8  H    4.102820   5.961949   2.153999   3.974633   0.587488
     9  H    7.949265   9.866868   5.961949   7.883869   3.974633
    10  H    6.076628   7.949265   4.102820   5.961949   2.153999
                    6          7          8          9         10
     6  H    0.000000
     7  H    3.930975   0.000000
     8  H    1.987316   1.987316   0.000000
     9  H    5.903774   1.987316   3.930975   0.000000
    10  H    3.974633   0.587488   1.987316   1.987316   0.000000
 Stoichiometry    H10
 Framework group  C2H[SGH(H10)]
 Deg. of freedom     9
 Full point group                 C2H     NOp   4
 Largest Abelian subgroup         C2H     NOp   4
 Largest concise Abelian subgroup C2      NOp   2
                         Standard orientation:                         
 ---------------------------------------------------------------------
 Center     Atomic      Atomic             Coordinates (Angstroms)
 Number     Number       Type             X           Y           Z
 ---------------------------------------------------------------------
      1          1           0        1.162070   -2.807302    0.000000
      2          1           0        1.162070   -4.794618    0.000000
      3          1           0        0.581035   -0.906822    0.000000
      4          1           0        0.581035   -2.894138    0.000000
      5          1           0        0.000000    0.993658    0.000000
      6          1           0        0.000000   -0.993658    0.000000
      7          1           0       -0.581035    2.894138    0.000000
      8          1           0       -0.581035    0.906822    0.000000
      9          1           0       -1.162070    4.794618    0.000000
     10          1           0       -1.162070    2.807302    0.000000
 ---------------------------------------------------------------------
 Rotational constants (GHZ):    662.7137477      5.6915351      5.6430711
 General basis read from cards:  (5D, 7F)
 There are     5 symmetry adapted cartesian basis functions of AG  symmetry.
 There are     0 symmetry adapted cartesian basis functions of BG  symmetry.
 There are     0 symmetry adapted cartesian basis functions of AU  symmetry.
 There are     5 symmetry adapted cartesian basis functions of BU  symmetry.
 There are     5 symmetry adapted basis functions of AG  symmetry.
 There are     0 symmetry adapted basis functions of BG  symmetry.
 There are     0 symmetry adapted basis functions of AU  symmetry.
 There are     5 symmetry adapted basis functions of BU  symmetry.
    10 basis functions,   100 primitive gaussians,    10 cartesian basis functions
     5 alpha electrons        5 beta electrons
       nuclear repulsion energy        10.4288960633 Hartrees.
 NAtoms=   10 NActive=   10 NUniq=    5 SFac= 4.00D+00 NAtFMM=   60 NAOKFM=F Big=F
 Integral buffers will be    131072 words long.
 Regular integral format.
 Two-electron integral symmetry is turned off.
 One-electron integrals computed using PRISM.
 NBasis=    10 RedAO= T EigKep=  1.37D-01  NBF=     5     0     0     5
 NBsUse=    10 1.00D-06 EigRej= -1.00D+00 NBFU=     5     0     0     5
 IOp(28)                       1
                        1                       0
                        2                       1
                        3                       1
                        4                      20
                        5                       0
                        6                       0
                        7                      10
                        8                       1
                        9                       4
                       10                       0
                       11              1073741824
                       12                      20
                       13                       2
                       14                  131070
                       15                       1
                       16                       1
                       17                  131073
                       18                       0
                       19                       0
                       20                       0
                       21                       2
                       22                  131070
                       23                       0
                       24                       0
                       25                       0
                       26                       0
                       27                   65535
                       28                       2
                       29                  131072
                       30                       0
 IHMeth                       1
 ib3: ISMode =                        0                       4
 Enter DskPsm, NBasis=  10 NBas6D=  10 NShell=  10 IDoSP=4.
 Out2e will use a cutoff of  1.00D-10
 FoFCou: FMM=F IPFlag=           0 FMFlag=           0 FMFlg1=           0
         NFxFlg=           0 DoJE=F BraDBF=F KetDBF=F FulRan=T
         wScrn=  0.000000 ICntrl=     600 IOpCl=  9 I1Cent=           0 NGrid=           0
         NMat0=    0 NMatS0=      0 NMatT0=    0 NMatD0=    0 NMtDS0=    0 NMtDT0=    0
 Symmetry not used in FoFCou.
 Entering PrmDigJobTyp =                      20
 LenSav and NKeep                       0                       0
 Entered Stor2E with KNTT1,2                       2                  131070
 Leave Stor2X
 Entering PrmDigJobTyp =                      20
 LenSav and NKeep                       0                       0
 Entered Stor2E with KNTT1,2                       2                  131056
 Leave Stor2X
 Entering PrmDigJobTyp =                      20
 LenSav and NKeep                       0                       0
 Entered Stor2E with KNTT1,2                       2                  131042
 Leave Stor2X
 Entering PrmDigJobTyp =                      20
 LenSav and NKeep                       0                       0
 Entered Stor2E with KNTT1,2                       2                  131028
 Leave Stor2X
 Entering PrmDigJobTyp =                      20
 LenSav and NKeep                       0                       0
 Entered Stor2E with KNTT1,2                       2                  131014
 Leave Stor2X
 Entering PrmDigJobTyp =                      20
 LenSav and NKeep                       0                       0
 Entered Stor2E with KNTT1,2                       2                  131000
 Leave Stor2X
 Entering PrmDigJobTyp =                      20
 LenSav and NKeep                       0                       0
 Entered Stor2E with KNTT1,2                       2                  130986
 Leave Stor2X
 Entering PrmDigJobTyp =                      20
 LenSav and NKeep                       0                       0
 Entered Stor2E with KNTT1,2                       2                  130972
 Leave Stor2X
 Entering PrmDigJobTyp =                      20
 LenSav and NKeep                       0                       0
 Entered Stor2E with KNTT1,2                       2                  130960
 Leave Stor2X
 Entering PrmDigJobTyp =                      20
 LenSav and NKeep                       0                       0
 Entered Stor2E with KNTT1,2                       2                  130944
 Leave Stor2X
 Entering PrmDigJobTyp =                      20
 LenSav and NKeep                       0                       0
 Entered Stor2E with KNTT1,2                       2                  130928
 Leave Stor2X
 Entering PrmDigJobTyp =                      20
 LenSav and NKeep                       0                       0
 Entered Stor2E with KNTT1,2                       2                  130912
 Leave Stor2X
 Entering PrmDigJobTyp =                      20
 LenSav and NKeep                       0                       0
 Entered Stor2E with KNTT1,2                       2                  130896
 Leave Stor2X
 Entering PrmDigJobTyp =                      20
 LenSav and NKeep                       0                       0
 Entered Stor2E with KNTT1,2                       2                  130880
 Leave Stor2X
 Entering PrmDigJobTyp =                      20
 LenSav and NKeep                       0                       0
 Entered Stor2E with KNTT1,2                       2                  130864
 Leave Stor2X
 Entering PrmDigJobTyp =                      20
 LenSav and NKeep                       0                       0
 Entered Stor2E with KNTT1,2                       2                  130848
 Leave Stor2X
 Entering PrmDigJobTyp =                      20
 LenSav and NKeep                       0                       0
 Entered Stor2E with KNTT1,2                       2                  130832
 Leave Stor2X
 Entering PrmDigJobTyp =                      20
 LenSav and NKeep                       0                       0
 Entered Stor2E with KNTT1,2                       2                  130816
 Leave Stor2X
 Entering PrmDigJobTyp =                      20
 LenSav and NKeep                       0                       0
 Entered Stor2E with KNTT1,2                       2                  130800
 Leave Stor2X
 Entering PrmDigJobTyp =                      20
 LenSav and NKeep                       0                       0
 Entered Stor2E with KNTT1,2                       2                  130784
 Leave Stor2X
 Entering PrmDigJobTyp =                      20
 LenSav and NKeep                       0                       0
 Entered Stor2E with KNTT1,2                       2                  130768
 Leave Stor2X
 Entering PrmDigJobTyp =                      20
 LenSav and NKeep                       0                       0
 Entered Stor2E with KNTT1,2                       2                  130752
 Leave Stor2X
 Entering PrmDigJobTyp =                      20
 LenSav and NKeep                       0                       0
 Entered Stor2E with KNTT1,2                       2                  130736
 Leave Stor2X
 Entering PrmDigJobTyp =                      20
 LenSav and NKeep                       0                       0
 Entered Stor2E with KNTT1,2                       2                  130720
 Leave Stor2X
 Entering PrmDigJobTyp =                      20
 LenSav and NKeep                       0                       0
 Entered Stor2E with KNTT1,2                       2                  130704
 Leave Stor2X
 Entering PrmDigJobTyp =                      20
 LenSav and NKeep                       0                       0
 Entered Stor2E with KNTT1,2                       2                  130700
 Leave Stor2X
 Entering PrmDigJobTyp =                      20
 LenSav and NKeep                       0                       0
 Entered Stor2E with KNTT1,2                      10                  130682
 Leave Stor2X
 Entering PrmDigJobTyp =                      20
 LenSav and NKeep                       0                       0
 Entered Stor2E with KNTT1,2                      24                  130670
 Leave Stor2X
 Entering PrmDigJobTyp =                      20
 LenSav and NKeep                       0                       0
 Entered Stor2E with KNTT1,2                      40                  130660
 Leave Stor2X
 Entering PrmDigJobTyp =                      20
 LenSav and NKeep                       0                       0
 Entered Stor2E with KNTT1,2                      60                  130654
 Leave Stor2X
 Entering PrmDigJobTyp =                      20
 LenSav and NKeep                       0                       0
 Entered Stor2E with KNTT1,2                      76                  130644
 Leave Stor2X
 Entering PrmDigJobTyp =                      20
 LenSav and NKeep                       0                       0
 Entered Stor2E with KNTT1,2                      94                  130636
 Leave Stor2X
 Entering PrmDigJobTyp =                      20
 LenSav and NKeep                       0                       0
 Entered Stor2E with KNTT1,2                     114                  130630
 Leave Stor2X
 Entering PrmDigJobTyp =                      20
 LenSav and NKeep                       0                       0
 Entered Stor2E with KNTT1,2                     114                  130608
 Leave Stor2X
 Entering PrmDigJobTyp =                      20
 LenSav and NKeep                       0                       0
 Entered Stor2E with KNTT1,2                     114                  130586
 Leave Stor2X
 Entering PrmDigJobTyp =                      20
 LenSav and NKeep                       0                       0
 Entered Stor2E with KNTT1,2                     114                  130564
 Leave Stor2X
 Entering PrmDigJobTyp =                      20
 LenSav and NKeep                       0                       0
 Entered Stor2E with KNTT1,2                     114                  130550
 Leave Stor2X
 Entering PrmDigJobTyp =                      20
 LenSav and NKeep                       0                       0
 Entered Stor2E with KNTT1,2                     134                  130536
 Leave Stor2X
 Entering PrmDigJobTyp =                      20
 LenSav and NKeep                       0                       0
 Entered Stor2E with KNTT1,2                     154                  130522
 Leave Stor2X
 Entering PrmDigJobTyp =                      20
 LenSav and NKeep                       0                       0
 Entered Stor2E with KNTT1,2                     174                  130508
 Leave Stor2X
 Entering PrmDigJobTyp =                      20
 LenSav and NKeep                       0                       0
 Entered Stor2E with KNTT1,2                     174                  130506
 Leave Stor2X
 Entering PrmDigJobTyp =                      20
 LenSav and NKeep                       0                       0
 Entered Stor2E with KNTT1,2                     186                  130498
 Leave Stor2X
 Entering PrmDigJobTyp =                      20
 LenSav and NKeep                       0                       0
 Entered Stor2E with KNTT1,2                     186                  130484
 Leave Stor2X
 Entering PrmDigJobTyp =                      20
 LenSav and NKeep                       0                       0
 Entered Stor2E with KNTT1,2                     186                  130470
 Leave Stor2X
 Entering PrmDigJobTyp =                      20
 LenSav and NKeep                       0                       0
 Entered Stor2E with KNTT1,2                     186                  130456
 Leave Stor2X
 Entering PrmDigJobTyp =                      20
 LenSav and NKeep                       0                       0
 Entered Stor2E with KNTT1,2                     186                  130442
 Leave Stor2X
 Entering PrmDigJobTyp =                      20
 LenSav and NKeep                       0                       0
 Entered Stor2E with KNTT1,2                     186                  130428
 Leave Stor2X
 Entering PrmDigJobTyp =                      20
 LenSav and NKeep                       0                       0
 Entered Stor2E with KNTT1,2                     186                  130418
 Leave Stor2X
 Entering PrmDigJobTyp =                      20
 LenSav and NKeep                       0                       0
 Entered Stor2E with KNTT1,2                     196                  130408
 Leave Stor2X
 Entering PrmDigJobTyp =                      20
 LenSav and NKeep                       0                       0
 Entered Stor2E with KNTT1,2                     206                  130398
 Leave Stor2X
 Entering PrmDigJobTyp =                      20
 LenSav and NKeep                       0                       0
 Entered Stor2E with KNTT1,2                     224                  130396
 Leave Stor2X
 Entering PrmDigJobTyp =                      20
 LenSav and NKeep                       0                       0
 Entered Stor2E with KNTT1,2                     232                  130384
 Leave Stor2X
 Entering PrmDigJobTyp =                      20
 LenSav and NKeep                       0                       0
 Entered Stor2E with KNTT1,2                     246                  130378
 Leave Stor2X
 Entering PrmDigJobTyp =                      20
 LenSav and NKeep                       0                       0
 Entered Stor2E with KNTT1,2                     246                  130374
 Leave Stor2X
 Entering PrmDigJobTyp =                      20
 LenSav and NKeep                       0                       0
 Entered Stor2E with KNTT1,2                     262                  130364
 Leave Stor2X
 Entering PrmDigJobTyp =                      20
 LenSav and NKeep                       0                       0
 Entered Stor2E with KNTT1,2                     266                  130362
 Leave Stor2X
 Entering PrmDigJobTyp =                      20
 LenSav and NKeep                       0                       0
 Entered Stor2E with KNTT1,2                     276                  130356
 Leave Stor2X
 Entering PrmDigJobTyp =                      20
 LenSav and NKeep                       0                       0
 Entered Stor2E with KNTT1,2                     278                  130354
 Leave Stor2X
 Entering PrmDigJobTyp =                      20
 LenSav and NKeep                       0                       0
 Entered Stor2E with KNTT1,2                     278                  130332
 Leave Stor2X
 Entering PrmDigJobTyp =                      20
 LenSav and NKeep                       0                       0
 Entered Stor2E with KNTT1,2                     278                  130310
 Leave Stor2X
 Entering PrmDigJobTyp =                      20
 LenSav and NKeep                       0                       0
 Entered Stor2E with KNTT1,2                     278                  130288
 Leave Stor2X
 Entering PrmDigJobTyp =                      20
 LenSav and NKeep                       0                       0
 Entered Stor2E with KNTT1,2                     278                  130266
 Leave Stor2X
 Entering PrmDigJobTyp =                      20
 LenSav and NKeep                       0                       0
 Entered Stor2E with KNTT1,2                     278                  130244
 Leave Stor2X
 Entering PrmDigJobTyp =                      20
 LenSav and NKeep                       0                       0
 Entered Stor2E with KNTT1,2                     278                  130234
 Leave Stor2X
 Entering PrmDigJobTyp =                      20
 LenSav and NKeep                       0                       0
 Entered Stor2E with KNTT1,2                     298                  130220
 Leave Stor2X
 Entering PrmDigJobTyp =                      20
 LenSav and NKeep                       0                       0
 Entered Stor2E with KNTT1,2                     318                  130206
 Leave Stor2X
 Entering PrmDigJobTyp =                      20
 LenSav and NKeep                       0                       0
 Entered Stor2E with KNTT1,2                     336                  130190
 Leave Stor2X
 Entering PrmDigJobTyp =                      20
 LenSav and NKeep                       0                       0
 Entered Stor2E with KNTT1,2                     360                  130180
 Leave Stor2X
 Entering PrmDigJobTyp =                      20
 LenSav and NKeep                       0                       0
 Entered Stor2E with KNTT1,2                     370                  130170
 Leave Stor2X
 Entering PrmDigJobTyp =                      20
 LenSav and NKeep                       0                       0
 Entered Stor2E with KNTT1,2                     394                  130152
 Leave Stor2X
 Entering PrmDigJobTyp =                      20
 LenSav and NKeep                       0                       0
 Entered Stor2E with KNTT1,2                     398                  130150
 Leave Stor2X
 Entering PrmDigJobTyp =                      20
 LenSav and NKeep                       0                       0
 Entered Stor2E with KNTT1,2                     412                  130138
 Leave Stor2X
 Entering PrmDigJobTyp =                      20
 LenSav and NKeep                       0                       0
 Entered Stor2E with KNTT1,2                     426                  130130
 Leave Stor2X
 Entering PrmDigJobTyp =                      20
 LenSav and NKeep                       0                       0
 Entered Stor2E with KNTT1,2                     452                  130114
 Leave Stor2X
 Entering PrmDigJobTyp =                      20
 LenSav and NKeep                       0                       0
 Entered Stor2E with KNTT1,2                     452                  130084
 Leave Stor2X
 Entering PrmDigJobTyp =                      20
 LenSav and NKeep                       0                       0
 Entered Stor2E with KNTT1,2                     452                  130054
 Leave Stor2X
 Entering PrmDigJobTyp =                      20
 LenSav and NKeep                       0                       0
 Entered Stor2E with KNTT1,2                     452                  130024
 Leave Stor2X
 Entering PrmDigJobTyp =                      20
 LenSav and NKeep                       0                       0
 Entered Stor2E with KNTT1,2                     452                  129994
 Leave Stor2X
 Entering PrmDigJobTyp =                      20
 LenSav and NKeep                       0                       0
 Entered Stor2E with KNTT1,2                     452                  129964
 Leave Stor2X
 Entering PrmDigJobTyp =                      20
 LenSav and NKeep                       0                       0
 Entered Stor2E with KNTT1,2                     452                  129954
 Leave Stor2X
 Entering PrmDigJobTyp =                      20
 LenSav and NKeep                       0                       0
 Entered Stor2E with KNTT1,2                     480                  129934
 Leave Stor2X
 Entering PrmDigJobTyp =                      20
 LenSav and NKeep                       0                       0
 Entered Stor2E with KNTT1,2                     510                  129916
 Leave Stor2X
 Entering PrmDigJobTyp =                      20
 LenSav and NKeep                       0                       0
 Entered Stor2E with KNTT1,2                     540                  129898
 Leave Stor2X
 Entering PrmDigJobTyp =                      20
 LenSav and NKeep                       0                       0
 Entered Stor2E with KNTT1,2                     570                  129880
 Leave Stor2X
 Entering PrmDigJobTyp =                      20
 LenSav and NKeep                       0                       0
 Entered Stor2E with KNTT1,2                     580                  129874
 Leave Stor2X
 Entering PrmDigJobTyp =                      20
 LenSav and NKeep                       0                       0
 Entered Stor2E with KNTT1,2                     616                  129850
 Leave Stor2X
 Entering PrmDigJobTyp =                      20
 LenSav and NKeep                       0                       0
 Entered Stor2E with KNTT1,2                     620                  129850
 Leave Stor2X
 Entering PrmDigJobTyp =                      20
 LenSav and NKeep                       0                       0
 Entered Stor2E with KNTT1,2                     642                  129836
 Leave Stor2X
 Entering PrmDigJobTyp =                      20
 LenSav and NKeep                       0                       0
 Entered Stor2E with KNTT1,2                     660                  129826
 Leave Stor2X
 Entering PrmDigJobTyp =                      20
 LenSav and NKeep                       0                       0
 Entered Stor2E with KNTT1,2                     698                  129804
 Leave Stor2X
 Entering PrmDigJobTyp =                      20
 LenSav and NKeep                       0                       0
 Entered Stor2E with KNTT1,2                     720                  129790
 Leave Stor2X
 Entering PrmDigJobTyp =                      20
 LenSav and NKeep                       0                       0
 Entered Stor2E with KNTT1,2                     764                  129762
 Leave Stor2X
 Entering PrmDigJobTyp =                      20
 LenSav and NKeep                       0                       0
 Entered Stor2E with KNTT1,2                     764                  129744
 Leave Stor2X
 Entering PrmDigJobTyp =                      20
 LenSav and NKeep                       0                       0
 Entered Stor2E with KNTT1,2                     764                  129726
 Leave Stor2X
 Entering PrmDigJobTyp =                      20
 LenSav and NKeep                       0                       0
 Entered Stor2E with KNTT1,2                     764                  129708
 Leave Stor2X
 Entering PrmDigJobTyp =                      20
 LenSav and NKeep                       0                       0
 Entered Stor2E with KNTT1,2                     764                  129702
 Leave Stor2X
 Entering PrmDigJobTyp =                      20
 LenSav and NKeep                       0                       0
 Entered Stor2E with KNTT1,2                     780                  129692
 Leave Stor2X
 Entering PrmDigJobTyp =                      20
 LenSav and NKeep                       0                       0
 Entered Stor2E with KNTT1,2                     794                  129680
 Leave Stor2X
 Entering PrmDigJobTyp =                      20
 LenSav and NKeep                       0                       0
 Entered Stor2E with KNTT1,2                     810                  129670
 Leave Stor2X
 Entering PrmDigJobTyp =                      20
 LenSav and NKeep                       0                       0
 Entered Stor2E with KNTT1,2                     826                  129662
 Leave Stor2X
 Entering PrmDigJobTyp =                      20
 LenSav and NKeep                       0                       0
 Entered Stor2E with KNTT1,2                     838                  129654
 Leave Stor2X
 Entering PrmDigJobTyp =                      20
 LenSav and NKeep                       0                       0
 Entered Stor2E with KNTT1,2                     838                  129650
 Leave Stor2X
 Entering PrmDigJobTyp =                      20
 LenSav and NKeep                       0                       0
 Entered Stor2E with KNTT1,2                     858                  129636
 Leave Stor2X
 Entering PrmDigJobTyp =                      20
 LenSav and NKeep                       0                       0
 Entered Stor2E with KNTT1,2                     858                  129634
 Leave Stor2X
 Entering PrmDigJobTyp =                      20
 LenSav and NKeep                       0                       0
 Entered Stor2E with KNTT1,2                     890                  129618
 Leave Stor2X
 Entering PrmDigJobTyp =                      20
 LenSav and NKeep                       0                       0
 Entered Stor2E with KNTT1,2                     896                  129612
 Leave Stor2X
 Entering PrmDigJobTyp =                      20
 LenSav and NKeep                       0                       0
 Entered Stor2E with KNTT1,2                     896                  129574
 Leave Stor2X
 Entering PrmDigJobTyp =                      20
 LenSav and NKeep                       0                       0
 Entered Stor2E with KNTT1,2                     896                  129572
 Leave Stor2X
 Entering PrmDigJobTyp =                      20
 LenSav and NKeep                       0                       0
 Entered Stor2E with KNTT1,2                     928                  129552
 Leave Stor2X
 Entering PrmDigJobTyp =                      20
 LenSav and NKeep                       0                       0
 Entered Stor2E with KNTT1,2                     936                  129544
 Leave Stor2X
 Entering PrmDigJobTyp =                      20
 LenSav and NKeep                       0                       0
 Entered Stor2E with KNTT1,2                     948                  129540
 Leave Stor2X
 Entering PrmDigJobTyp =                      20
 LenSav and NKeep                       0                       0
 Entered Stor2E with KNTT1,2                     964                  129532
 Leave Stor2X
 Entering PrmDigJobTyp =                      20
 LenSav and NKeep                       0                       0
 Entered Stor2E with KNTT1,2                     980                  129516
 Leave Stor2X
 Entering PrmDigJobTyp =                      20
 LenSav and NKeep                       0                       0
 Entered Stor2E with KNTT1,2                     992                  129516
 Leave Stor2X
 Entering PrmDigJobTyp =                      20
 LenSav and NKeep                       0                       0
 Entered Stor2E with KNTT1,2                     992                  129516
 Leave Stor2X
 Entering PrmDigJobTyp =                      20
 LenSav and NKeep                       0                       0
 Entered Stor2E with KNTT1,2                     992                  129494
 Leave Stor2X
 Entering PrmDigJobTyp =                      20
 LenSav and NKeep                       0                       0
 Entered Stor2E with KNTT1,2                     992                  129476
 Leave Stor2X
 Entering PrmDigJobTyp =                      20
 LenSav and NKeep                       0                       0
 Entered Stor2E with KNTT1,2                    1012                  129460
 Leave Stor2X
 Entering PrmDigJobTyp =                      20
 LenSav and NKeep                       0                       0
 Entered Stor2E with KNTT1,2                    1024                  129456
 Leave Stor2X
 Entering PrmDigJobTyp =                      20
 LenSav and NKeep                       0                       0
 Entered Stor2E with KNTT1,2                    1036                  129452
 Leave Stor2X
 Entering PrmDigJobTyp =                      20
 LenSav and NKeep                       0                       0
 Entered Stor2E with KNTT1,2                    1044                  129444
 Leave Stor2X
 Entering PrmDigJobTyp =                      20
 LenSav and NKeep                       0                       0
 Entered Stor2E with KNTT1,2                    1060                  129436
 Leave Stor2X
 Entering PrmDigJobTyp =                      20
 LenSav and NKeep                       0                       0
 Entered Stor2E with KNTT1,2                    1080                  129424
 Leave Stor2X
 Entering PrmDigJobTyp =                      20
 LenSav and NKeep                       0                       0
 Entered Stor2E with KNTT1,2                    1084                  129416
 Leave Stor2X
 Entering PrmDigJobTyp =                      20
 LenSav and NKeep                       0                       0
 Entered Stor2E with KNTT1,2                    1092                  129416
 Leave Stor2X
 Entering PrmDigJobTyp =                      20
 LenSav and NKeep                       0                       0
 Entered Stor2E with KNTT1,2                    1094                  129412
 Leave Stor2X
 Entering PrmDigJobTyp =                      20
 LenSav and NKeep                       0                       0
 Entered Stor2E with KNTT1,2                    1094                  129372
 Leave Stor2X
 Entering PrmDigJobTyp =                      20
 LenSav and NKeep                       0                       0
 Entered Stor2E with KNTT1,2                    1130                  129356
 Leave Stor2X
 Entering PrmDigJobTyp =                      20
 LenSav and NKeep                       0                       0
 Entered Stor2E with KNTT1,2                    1142                  129352
 Leave Stor2X
 Entering PrmDigJobTyp =                      20
 LenSav and NKeep                       0                       0
 Entered Stor2E with KNTT1,2                    1154                  129348
 Leave Stor2X
 Entering PrmDigJobTyp =                      20
 LenSav and NKeep                       0                       0
 Entered Stor2E with KNTT1,2                    1170                  129340
 Leave Stor2X
 Entering PrmDigJobTyp =                      20
 LenSav and NKeep                       0                       0
 Entered Stor2E with KNTT1,2                    1176                  129332
 Leave Stor2X
 Entering PrmDigJobTyp =                      20
 LenSav and NKeep                       0                       0
 Entered Stor2E with KNTT1,2                    1186                  129328
 Leave Stor2X
 Entering PrmDigJobTyp =                      20
 LenSav and NKeep                       0                       0
 Entered Stor2E with KNTT1,2                    1186                  129324
 Leave Stor2X
 Entering PrmDigJobTyp =                      20
 LenSav and NKeep                       0                       0
 Entered Stor2E with KNTT1,2                    1194                  129320
 Leave Stor2X
 Entering PrmDigJobTyp =                      20
 LenSav and NKeep                       0                       0
 Entered Stor2E with KNTT1,2                    1194                  129320
 Leave Stor2X
 Entering PrmDigJobTyp =                      20
 LenSav and NKeep                       0                       0
 Entered Stor2E with KNTT1,2                    1198                  129316
 Leave Stor2X
 Entering PrmDigJobTyp =                      20
 LenSav and NKeep                       0                       0
 Entered Stor2E with KNTT1,2                    1198                  129316
 Leave Stor2X
 Entering PrmDigJobTyp =                      20
 LenSav and NKeep                       0                       0
 Entered Stor2E with KNTT1,2                    1198                  129296
 Leave Stor2X
 Entering PrmDigJobTyp =                      20
 LenSav and NKeep                       0                       0
 Entered Stor2E with KNTT1,2                    1216                  129288
 Leave Stor2X
 Entering PrmDigJobTyp =                      20
 LenSav and NKeep                       0                       0
 Entered Stor2E with KNTT1,2                    1220                  129284
 Leave Stor2X
 Entering PrmDigJobTyp =                      20
 LenSav and NKeep                       0                       0
 Entered Stor2E with KNTT1,2                    1228                  129284
 Leave Stor2X
 Entering PrmDigJobTyp =                      20
 LenSav and NKeep                       0                       0
 Entered Stor2E with KNTT1,2                    1236                  129280
 Leave Stor2X
 Entering PrmDigJobTyp =                      20
 LenSav and NKeep                       0                       0
 Entered Stor2E with KNTT1,2                    1236                  129280
 Leave Stor2X
 Entering PrmDigJobTyp =                      20
 LenSav and NKeep                       0                       0
 Entered Stor2E with KNTT1,2                    1242                  129280
 Leave Stor2X
 Entering PrmDigJobTyp =                      20
 LenSav and NKeep                       0                       0
 Entered Stor2E with KNTT1,2                    1242                  129280
 Leave Stor2X
 Entering PrmDigJobTyp =                      20
 LenSav and NKeep                       0                       0
 Entered Stor2E with KNTT1,2                    1246                  129280
 Leave Stor2X
 In PrSumR
 Called IWRITE
         1517 integrals produced for a total of         1517.
 Initial guess from the checkpoint file:  "h10.chk"
 B after Tr=     0.000000    0.000000    0.000000
         Rot=    0.515192    0.000000    0.000000    0.857075 Ang= 117.98 deg.
 Mixing orbitals, IMix= 1 IMixAn=  0 NRI=2 NE=   10 Coef=  7.07106781D-01  7.07106781D-01
 Also mixing orbitals    10 and    12 Coef=  7.07106781D-01  7.07106781D-01
 Initial guess <Sx>= 0.0000 <Sy>= 0.0000 <Sz>= 0.0000 <S**2>= 0.5000 S= 0.3660
 Two-electron integrals will be kept in memory, NGetB=      152788.
 Requested convergence on RMS density matrix=1.00D-08 within 128 cycles.
 Requested convergence on MAX density matrix=1.00D-06.
 Requested convergence on             energy=1.00D-06.
 No special actions if energy rises.
 Density File Not Found. Continue as usual
 SCF Done:  E(GHF) =  -5.10950330374     A.U. after   13 cycles
            NFock= 13  Conv=0.10D-08     -V/T= 2.0572
 <Sx>= 0.0000 <Sy>= 0.0000 <Sz>= 0.0000 <S**2>= 1.0000 S= 0.6180
 <L.S>= 0.000000000000E+00
 Range of M.O.s used for correlation:     1    10
 NBasis=    10 NAE=    10 NBE=     0 NFC=     0 NFV=     0
 NROrb=     20 NOA=    10 NOB=     0 NVA=    10 NVB=     0
 jaja DoHack is true or false? T
 jaja in hckghf.F, NBasis=                      10
 jaja in hckGHF/FixOG, LC =                      800
 jaja in hckGHF/FixOG, IRwC=                      548
 bfr conversion (real):
                 1             2             3             4             5 
      1a  0.139570D+00  0.000000D+00 -0.274100D+00  0.000000D+00  0.348043D+00
      1b  0.000000D+00  0.195110D+00  0.000000D+00  0.307454D+00  0.000000D+00
      2a -0.731395D-02  0.000000D+00  0.129959D-01  0.000000D+00 -0.133567D-01
      2b  0.000000D+00  0.308986D-01  0.000000D+00  0.631787D-01  0.000000D+00
      3a  0.252345D+00  0.000000D+00 -0.222942D+00  0.000000D+00 -0.157569D+00
      3b  0.000000D+00  0.273347D+00  0.000000D+00  0.129038D+00  0.000000D+00
      4a  0.140153D+00  0.000000D+00 -0.276160D+00  0.000000D+00  0.350844D+00
      4b  0.000000D+00  0.195972D+00  0.000000D+00  0.309705D+00  0.000000D+00
      5a  0.272989D+00  0.000000D+00  0.129890D+00  0.000000D+00 -0.265379D+00
      5b  0.000000D+00  0.251652D+00  0.000000D+00 -0.223494D+00  0.000000D+00
      6a  0.251652D+00  0.000000D+00 -0.223494D+00  0.000000D+00 -0.157764D+00
      6b  0.000000D+00  0.272989D+00  0.000000D+00  0.129890D+00  0.000000D+00
      7a  0.195972D+00  0.000000D+00  0.309705D+00  0.000000D+00  0.310293D+00
      7b  0.000000D+00  0.140153D+00  0.000000D+00 -0.276160D+00  0.000000D+00
      8a  0.273347D+00  0.000000D+00  0.129038D+00  0.000000D+00 -0.265078D+00
      8b  0.000000D+00  0.252345D+00  0.000000D+00 -0.222942D+00  0.000000D+00
      9a  0.308986D-01  0.000000D+00  0.631787D-01  0.000000D+00  0.966701D-01
      9b  0.000000D+00 -0.731395D-02  0.000000D+00  0.129959D-01  0.000000D+00
     10a  0.195110D+00  0.000000D+00  0.307454D+00  0.000000D+00  0.308160D+00
     10b  0.000000D+00  0.139570D+00  0.000000D+00 -0.274100D+00  0.000000D+00
                 6             7             8             9            10 
      1a  0.000000D+00 -0.272694D+00  0.000000D+00  0.000000D+00  0.687373D-02
      1b  0.308160D+00  0.000000D+00  0.187897D+00 -0.204622D+00  0.000000D+00
      2a  0.000000D+00  0.725160D-02  0.000000D+00  0.000000D+00  0.158432D-03
      2b  0.966701D-01  0.000000D+00  0.984958D-01  0.101733D+01  0.000000D+00
      3a  0.000000D+00  0.409522D+00  0.000000D+00  0.000000D+00 -0.230281D-01
      3b -0.265078D+00  0.000000D+00 -0.374855D+00  0.662300D-01  0.000000D+00
      4a  0.000000D+00 -0.273117D+00  0.000000D+00  0.000000D+00  0.647878D-02
      4b  0.310293D+00  0.000000D+00  0.187639D+00 -0.204303D+00  0.000000D+00
      5a  0.000000D+00 -0.373914D+00  0.000000D+00  0.000000D+00  0.709637D-01
      5b -0.157764D+00  0.000000D+00  0.408779D+00 -0.217583D-01  0.000000D+00
      6a  0.000000D+00  0.408779D+00  0.000000D+00  0.000000D+00 -0.217583D-01
      6b -0.265379D+00  0.000000D+00 -0.373914D+00  0.709637D-01  0.000000D+00
      7a  0.000000D+00  0.187639D+00  0.000000D+00  0.000000D+00 -0.204303D+00
      7b  0.350844D+00  0.000000D+00 -0.273117D+00  0.647878D-02  0.000000D+00
      8a  0.000000D+00 -0.374855D+00  0.000000D+00  0.000000D+00  0.662300D-01
      8b -0.157569D+00  0.000000D+00  0.409522D+00 -0.230281D-01  0.000000D+00
      9a  0.000000D+00  0.984958D-01  0.000000D+00  0.000000D+00  0.101733D+01
      9b -0.133567D-01  0.000000D+00  0.725160D-02  0.158432D-03  0.000000D+00
     10a  0.000000D+00  0.187897D+00  0.000000D+00  0.000000D+00 -0.204622D+00
     10b  0.348043D+00  0.000000D+00 -0.272694D+00  0.687373D-02  0.000000D+00
                11            12            13            14            15 
      1a  0.000000D+00 -0.123154D+00  0.578575D+00  0.000000D+00 -0.996183D+00
      1b  0.143045D-02  0.000000D+00  0.000000D+00 -0.599850D+00  0.000000D+00
      2a  0.000000D+00  0.102874D+01  0.105489D-01  0.000000D+00 -0.846665D-02
      2b -0.382624D-03  0.000000D+00  0.000000D+00 -0.493223D-02  0.000000D+00
      3a  0.000000D+00  0.825272D-02  0.928552D+00  0.000000D+00 -0.632685D+00
      3b -0.518665D-02  0.000000D+00  0.000000D+00 -0.937176D+00  0.000000D+00
      4a  0.000000D+00 -0.115325D+00 -0.601651D+00  0.000000D+00  0.101826D+01
      4b  0.357493D-03  0.000000D+00  0.000000D+00  0.622110D+00  0.000000D+00
      5a  0.000000D+00 -0.395870D-02  0.941501D+00  0.000000D+00  0.566995D+00
      5b  0.374717D-01  0.000000D+00  0.000000D+00 -0.933389D+00  0.000000D+00
      6a  0.000000D+00  0.374717D-01 -0.933389D+00  0.000000D+00  0.598702D+00
      6b -0.395870D-02  0.000000D+00  0.000000D+00  0.941501D+00  0.000000D+00
      7a  0.000000D+00  0.357493D-03  0.622110D+00  0.000000D+00  0.102763D+01
      7b -0.115325D+00  0.000000D+00  0.000000D+00 -0.601651D+00  0.000000D+00
      8a  0.000000D+00 -0.518665D-02 -0.937176D+00  0.000000D+00 -0.601880D+00
      8b  0.825272D-02  0.000000D+00  0.000000D+00  0.928552D+00  0.000000D+00
      9a  0.000000D+00 -0.382624D-03 -0.493223D-02  0.000000D+00 -0.434535D-02
      9b  0.102874D+01  0.000000D+00  0.000000D+00  0.105489D-01  0.000000D+00
     10a  0.000000D+00  0.143045D-02 -0.599850D+00  0.000000D+00 -0.100688D+01
     10b -0.123154D+00  0.000000D+00  0.000000D+00  0.578575D+00  0.000000D+00
                16            17            18            19            20 
      1a  0.000000D+00  0.107602D+01  0.000000D+00 -0.712587D+00 -0.235393D-05
      1b -0.100688D+01  0.000000D+00 -0.106569D+01  0.229818D-05 -0.695708D+00
      2a  0.000000D+00 -0.281255D-02  0.000000D+00  0.919863D-02  0.000000D+00
      2b -0.434535D-02  0.000000D+00  0.173232D-02  0.000000D+00  0.576945D-02
      3a  0.000000D+00 -0.646023D+00  0.000000D+00  0.116996D+01  0.386480D-05
      3b -0.601880D+00  0.000000D+00  0.674692D+00 -0.384218D-05  0.116311D+01
      4a  0.000000D+00 -0.106906D+01  0.000000D+00  0.683438D+00  0.225764D-05
      4b  0.102763D+01  0.000000D+00  0.105821D+01 -0.220447D-05  0.667340D+00
      5a  0.000000D+00 -0.720058D+00  0.000000D+00 -0.114989D+01 -0.379849D-05
      5b  0.598702D+00  0.000000D+00  0.692247D+00  0.382292D-05 -0.115728D+01
      6a  0.000000D+00  0.692247D+00  0.000000D+00 -0.115728D+01 -0.382292D-05
      6b  0.566995D+00  0.000000D+00 -0.720058D+00  0.379849D-05 -0.114989D+01
      7a  0.000000D+00  0.105821D+01  0.000000D+00  0.667340D+00  0.220447D-05
      7b  0.101826D+01  0.000000D+00 -0.106906D+01 -0.225764D-05  0.683438D+00
      8a  0.000000D+00  0.674692D+00  0.000000D+00  0.116311D+01  0.384218D-05
      8b -0.632685D+00  0.000000D+00 -0.646023D+00 -0.386480D-05  0.116996D+01
      9a  0.000000D+00  0.173232D-02  0.000000D+00  0.576945D-02  0.000000D+00
      9b -0.846665D-02  0.000000D+00 -0.281255D-02  0.000000D+00  0.919863D-02
     10a  0.000000D+00 -0.106569D+01  0.000000D+00 -0.695708D+00 -0.229818D-05
     10b -0.996183D+00  0.000000D+00  0.107602D+01  0.235393D-05 -0.712587D+00
 bfr conversion (imaginary):
                 1             2             3             4             5 
      1a  0.000000D+00  0.000000D+00  0.000000D+00  0.000000D+00  0.000000D+00
      1b  0.000000D+00  0.000000D+00  0.000000D+00  0.000000D+00  0.000000D+00
      2a  0.000000D+00  0.000000D+00  0.000000D+00  0.000000D+00  0.000000D+00
      2b  0.000000D+00  0.000000D+00  0.000000D+00  0.000000D+00  0.000000D+00
      3a  0.000000D+00  0.000000D+00  0.000000D+00  0.000000D+00  0.000000D+00
      3b  0.000000D+00  0.000000D+00  0.000000D+00  0.000000D+00  0.000000D+00
      4a  0.000000D+00  0.000000D+00  0.000000D+00  0.000000D+00  0.000000D+00
      4b  0.000000D+00  0.000000D+00  0.000000D+00  0.000000D+00  0.000000D+00
      5a  0.000000D+00  0.000000D+00  0.000000D+00  0.000000D+00  0.000000D+00
      5b  0.000000D+00  0.000000D+00  0.000000D+00  0.000000D+00  0.000000D+00
      6a  0.000000D+00  0.000000D+00  0.000000D+00  0.000000D+00  0.000000D+00
      6b  0.000000D+00  0.000000D+00  0.000000D+00  0.000000D+00  0.000000D+00
      7a  0.000000D+00  0.000000D+00  0.000000D+00  0.000000D+00  0.000000D+00
      7b  0.000000D+00  0.000000D+00  0.000000D+00  0.000000D+00  0.000000D+00
      8a  0.000000D+00  0.000000D+00  0.000000D+00  0.000000D+00  0.000000D+00
      8b  0.000000D+00  0.000000D+00  0.000000D+00  0.000000D+00  0.000000D+00
      9a  0.000000D+00  0.000000D+00  0.000000D+00  0.000000D+00  0.000000D+00
      9b  0.000000D+00  0.000000D+00  0.000000D+00  0.000000D+00  0.000000D+00
     10a  0.000000D+00  0.000000D+00  0.000000D+00  0.000000D+00  0.000000D+00
     10b  0.000000D+00  0.000000D+00  0.000000D+00  0.000000D+00  0.000000D+00
                 6             7             8             9            10 
      1a  0.000000D+00  0.000000D+00  0.000000D+00  0.000000D+00  0.000000D+00
      1b  0.000000D+00  0.000000D+00  0.000000D+00  0.000000D+00  0.000000D+00
      2a  0.000000D+00  0.000000D+00  0.000000D+00  0.000000D+00  0.000000D+00
      2b  0.000000D+00  0.000000D+00  0.000000D+00  0.000000D+00  0.000000D+00
      3a  0.000000D+00  0.000000D+00  0.000000D+00  0.000000D+00  0.000000D+00
      3b  0.000000D+00  0.000000D+00  0.000000D+00  0.000000D+00  0.000000D+00
      4a  0.000000D+00  0.000000D+00  0.000000D+00  0.000000D+00  0.000000D+00
      4b  0.000000D+00  0.000000D+00  0.000000D+00  0.000000D+00  0.000000D+00
      5a  0.000000D+00  0.000000D+00  0.000000D+00  0.000000D+00  0.000000D+00
      5b  0.000000D+00  0.000000D+00  0.000000D+00  0.000000D+00  0.000000D+00
      6a  0.000000D+00  0.000000D+00  0.000000D+00  0.000000D+00  0.000000D+00
      6b  0.000000D+00  0.000000D+00  0.000000D+00  0.000000D+00  0.000000D+00
      7a  0.000000D+00  0.000000D+00  0.000000D+00  0.000000D+00  0.000000D+00
      7b  0.000000D+00  0.000000D+00  0.000000D+00  0.000000D+00  0.000000D+00
      8a  0.000000D+00  0.000000D+00  0.000000D+00  0.000000D+00  0.000000D+00
      8b  0.000000D+00  0.000000D+00  0.000000D+00  0.000000D+00  0.000000D+00
      9a  0.000000D+00  0.000000D+00  0.000000D+00  0.000000D+00  0.000000D+00
      9b  0.000000D+00  0.000000D+00  0.000000D+00  0.000000D+00  0.000000D+00
     10a  0.000000D+00  0.000000D+00  0.000000D+00  0.000000D+00  0.000000D+00
     10b  0.000000D+00  0.000000D+00  0.000000D+00  0.000000D+00  0.000000D+00
                11            12            13            14            15 
      1a  0.000000D+00  0.000000D+00  0.000000D+00  0.000000D+00  0.000000D+00
      1b  0.000000D+00  0.000000D+00  0.000000D+00  0.000000D+00  0.000000D+00
      2a  0.000000D+00  0.000000D+00  0.000000D+00  0.000000D+00  0.000000D+00
      2b  0.000000D+00  0.000000D+00  0.000000D+00  0.000000D+00  0.000000D+00
      3a  0.000000D+00  0.000000D+00  0.000000D+00  0.000000D+00  0.000000D+00
      3b  0.000000D+00  0.000000D+00  0.000000D+00  0.000000D+00  0.000000D+00
      4a  0.000000D+00  0.000000D+00  0.000000D+00  0.000000D+00  0.000000D+00
      4b  0.000000D+00  0.000000D+00  0.000000D+00  0.000000D+00  0.000000D+00
      5a  0.000000D+00  0.000000D+00  0.000000D+00  0.000000D+00  0.000000D+00
      5b  0.000000D+00  0.000000D+00  0.000000D+00  0.000000D+00  0.000000D+00
      6a  0.000000D+00  0.000000D+00  0.000000D+00  0.000000D+00  0.000000D+00
      6b  0.000000D+00  0.000000D+00  0.000000D+00  0.000000D+00  0.000000D+00
      7a  0.000000D+00  0.000000D+00  0.000000D+00  0.000000D+00  0.000000D+00
      7b  0.000000D+00  0.000000D+00  0.000000D+00  0.000000D+00  0.000000D+00
      8a  0.000000D+00  0.000000D+00  0.000000D+00  0.000000D+00  0.000000D+00
      8b  0.000000D+00  0.000000D+00  0.000000D+00  0.000000D+00  0.000000D+00
      9a  0.000000D+00  0.000000D+00  0.000000D+00  0.000000D+00  0.000000D+00
      9b  0.000000D+00  0.000000D+00  0.000000D+00  0.000000D+00  0.000000D+00
     10a  0.000000D+00  0.000000D+00  0.000000D+00  0.000000D+00  0.000000D+00
     10b  0.000000D+00  0.000000D+00  0.000000D+00  0.000000D+00  0.000000D+00
                16            17            18            19            20 
      1a  0.000000D+00  0.000000D+00  0.000000D+00  0.000000D+00  0.000000D+00
      1b  0.000000D+00  0.000000D+00  0.000000D+00  0.000000D+00  0.000000D+00
      2a  0.000000D+00  0.000000D+00  0.000000D+00  0.000000D+00  0.000000D+00
      2b  0.000000D+00  0.000000D+00  0.000000D+00  0.000000D+00  0.000000D+00
      3a  0.000000D+00  0.000000D+00  0.000000D+00  0.000000D+00  0.000000D+00
      3b  0.000000D+00  0.000000D+00  0.000000D+00  0.000000D+00  0.000000D+00
      4a  0.000000D+00  0.000000D+00  0.000000D+00  0.000000D+00  0.000000D+00
      4b  0.000000D+00  0.000000D+00  0.000000D+00  0.000000D+00  0.000000D+00
      5a  0.000000D+00  0.000000D+00  0.000000D+00  0.000000D+00  0.000000D+00
      5b  0.000000D+00  0.000000D+00  0.000000D+00  0.000000D+00  0.000000D+00
      6a  0.000000D+00  0.000000D+00  0.000000D+00  0.000000D+00  0.000000D+00
      6b  0.000000D+00  0.000000D+00  0.000000D+00  0.000000D+00  0.000000D+00
      7a  0.000000D+00  0.000000D+00  0.000000D+00  0.000000D+00  0.000000D+00
      7b  0.000000D+00  0.000000D+00  0.000000D+00  0.000000D+00  0.000000D+00
      8a  0.000000D+00  0.000000D+00  0.000000D+00  0.000000D+00  0.000000D+00
      8b  0.000000D+00  0.000000D+00  0.000000D+00  0.000000D+00  0.000000D+00
      9a  0.000000D+00  0.000000D+00  0.000000D+00  0.000000D+00  0.000000D+00
      9b  0.000000D+00  0.000000D+00  0.000000D+00  0.000000D+00  0.000000D+00
     10a  0.000000D+00  0.000000D+00  0.000000D+00  0.000000D+00  0.000000D+00
     10b  0.000000D+00  0.000000D+00  0.000000D+00  0.000000D+00  0.000000D+00
 afr conversion (alpha, real):
                 1             2             3             4             5 
      1   0.139570D+00  0.000000D+00 -0.274100D+00  0.000000D+00  0.348043D+00
      2  -0.731395D-02  0.000000D+00  0.129959D-01  0.000000D+00 -0.133567D-01
      3   0.252345D+00  0.000000D+00 -0.222942D+00  0.000000D+00 -0.157569D+00
      4   0.140153D+00  0.000000D+00 -0.276160D+00  0.000000D+00  0.350844D+00
      5   0.272989D+00  0.000000D+00  0.129890D+00  0.000000D+00 -0.265379D+00
      6   0.251652D+00  0.000000D+00 -0.223494D+00  0.000000D+00 -0.157764D+00
      7   0.195972D+00  0.000000D+00  0.309705D+00  0.000000D+00  0.310293D+00
      8   0.273347D+00  0.000000D+00  0.129038D+00  0.000000D+00 -0.265078D+00
      9   0.308986D-01  0.000000D+00  0.631787D-01  0.000000D+00  0.966701D-01
     10   0.195110D+00  0.000000D+00  0.307454D+00  0.000000D+00  0.308160D+00
                 6             7             8             9            10 
      1   0.000000D+00 -0.272694D+00  0.000000D+00  0.000000D+00  0.687373D-02
      2   0.000000D+00  0.725160D-02  0.000000D+00  0.000000D+00  0.158432D-03
      3   0.000000D+00  0.409522D+00  0.000000D+00  0.000000D+00 -0.230281D-01
      4   0.000000D+00 -0.273117D+00  0.000000D+00  0.000000D+00  0.647878D-02
      5   0.000000D+00 -0.373914D+00  0.000000D+00  0.000000D+00  0.709637D-01
      6   0.000000D+00  0.408779D+00  0.000000D+00  0.000000D+00 -0.217583D-01
      7   0.000000D+00  0.187639D+00  0.000000D+00  0.000000D+00 -0.204303D+00
      8   0.000000D+00 -0.374855D+00  0.000000D+00  0.000000D+00  0.662300D-01
      9   0.000000D+00  0.984958D-01  0.000000D+00  0.000000D+00  0.101733D+01
     10   0.000000D+00  0.187897D+00  0.000000D+00  0.000000D+00 -0.204622D+00
                11            12            13            14            15 
      1   0.000000D+00 -0.123154D+00  0.578575D+00  0.000000D+00 -0.996183D+00
      2   0.000000D+00  0.102874D+01  0.105489D-01  0.000000D+00 -0.846665D-02
      3   0.000000D+00  0.825272D-02  0.928552D+00  0.000000D+00 -0.632685D+00
      4   0.000000D+00 -0.115325D+00 -0.601651D+00  0.000000D+00  0.101826D+01
      5   0.000000D+00 -0.395870D-02  0.941501D+00  0.000000D+00  0.566995D+00
      6   0.000000D+00  0.374717D-01 -0.933389D+00  0.000000D+00  0.598702D+00
      7   0.000000D+00  0.357493D-03  0.622110D+00  0.000000D+00  0.102763D+01
      8   0.000000D+00 -0.518665D-02 -0.937176D+00  0.000000D+00 -0.601880D+00
      9   0.000000D+00 -0.382624D-03 -0.493223D-02  0.000000D+00 -0.434535D-02
     10   0.000000D+00  0.143045D-02 -0.599850D+00  0.000000D+00 -0.100688D+01
                16            17            18            19            20 
      1   0.000000D+00  0.107602D+01  0.000000D+00 -0.712587D+00 -0.235393D-05
      2   0.000000D+00 -0.281255D-02  0.000000D+00  0.919863D-02  0.000000D+00
      3   0.000000D+00 -0.646023D+00  0.000000D+00  0.116996D+01  0.386480D-05
      4   0.000000D+00 -0.106906D+01  0.000000D+00  0.683438D+00  0.225764D-05
      5   0.000000D+00 -0.720058D+00  0.000000D+00 -0.114989D+01 -0.379849D-05
      6   0.000000D+00  0.692247D+00  0.000000D+00 -0.115728D+01 -0.382292D-05
      7   0.000000D+00  0.105821D+01  0.000000D+00  0.667340D+00  0.220447D-05
      8   0.000000D+00  0.674692D+00  0.000000D+00  0.116311D+01  0.384218D-05
      9   0.000000D+00  0.173232D-02  0.000000D+00  0.576945D-02  0.000000D+00
     10   0.000000D+00 -0.106569D+01  0.000000D+00 -0.695708D+00 -0.229818D-05
 afr conversion (alpha, imaginary):
                 1             2             3             4             5 
      1   0.000000D+00  0.000000D+00  0.000000D+00  0.000000D+00  0.000000D+00
      2   0.000000D+00  0.000000D+00  0.000000D+00  0.000000D+00  0.000000D+00
      3   0.000000D+00  0.000000D+00  0.000000D+00  0.000000D+00  0.000000D+00
      4   0.000000D+00  0.000000D+00  0.000000D+00  0.000000D+00  0.000000D+00
      5   0.000000D+00  0.000000D+00  0.000000D+00  0.000000D+00  0.000000D+00
      6   0.000000D+00  0.000000D+00  0.000000D+00  0.000000D+00  0.000000D+00
      7   0.000000D+00  0.000000D+00  0.000000D+00  0.000000D+00  0.000000D+00
      8   0.000000D+00  0.000000D+00  0.000000D+00  0.000000D+00  0.000000D+00
      9   0.000000D+00  0.000000D+00  0.000000D+00  0.000000D+00  0.000000D+00
     10   0.000000D+00  0.000000D+00  0.000000D+00  0.000000D+00  0.000000D+00
                 6             7             8             9            10 
      1   0.000000D+00  0.000000D+00  0.000000D+00  0.000000D+00  0.000000D+00
      2   0.000000D+00  0.000000D+00  0.000000D+00  0.000000D+00  0.000000D+00
      3   0.000000D+00  0.000000D+00  0.000000D+00  0.000000D+00  0.000000D+00
      4   0.000000D+00  0.000000D+00  0.000000D+00  0.000000D+00  0.000000D+00
      5   0.000000D+00  0.000000D+00  0.000000D+00  0.000000D+00  0.000000D+00
      6   0.000000D+00  0.000000D+00  0.000000D+00  0.000000D+00  0.000000D+00
      7   0.000000D+00  0.000000D+00  0.000000D+00  0.000000D+00  0.000000D+00
      8   0.000000D+00  0.000000D+00  0.000000D+00  0.000000D+00  0.000000D+00
      9   0.000000D+00  0.000000D+00  0.000000D+00  0.000000D+00  0.000000D+00
     10   0.000000D+00  0.000000D+00  0.000000D+00  0.000000D+00  0.000000D+00
                11            12            13            14            15 
      1   0.000000D+00  0.000000D+00  0.000000D+00  0.000000D+00  0.000000D+00
      2   0.000000D+00  0.000000D+00  0.000000D+00  0.000000D+00  0.000000D+00
      3   0.000000D+00  0.000000D+00  0.000000D+00  0.000000D+00  0.000000D+00
      4   0.000000D+00  0.000000D+00  0.000000D+00  0.000000D+00  0.000000D+00
      5   0.000000D+00  0.000000D+00  0.000000D+00  0.000000D+00  0.000000D+00
      6   0.000000D+00  0.000000D+00  0.000000D+00  0.000000D+00  0.000000D+00
      7   0.000000D+00  0.000000D+00  0.000000D+00  0.000000D+00  0.000000D+00
      8   0.000000D+00  0.000000D+00  0.000000D+00  0.000000D+00  0.000000D+00
      9   0.000000D+00  0.000000D+00  0.000000D+00  0.000000D+00  0.000000D+00
     10   0.000000D+00  0.000000D+00  0.000000D+00  0.000000D+00  0.000000D+00
                16            17            18            19            20 
      1   0.000000D+00  0.000000D+00  0.000000D+00  0.000000D+00  0.000000D+00
      2   0.000000D+00  0.000000D+00  0.000000D+00  0.000000D+00  0.000000D+00
      3   0.000000D+00  0.000000D+00  0.000000D+00  0.000000D+00  0.000000D+00
      4   0.000000D+00  0.000000D+00  0.000000D+00  0.000000D+00  0.000000D+00
      5   0.000000D+00  0.000000D+00  0.000000D+00  0.000000D+00  0.000000D+00
      6   0.000000D+00  0.000000D+00  0.000000D+00  0.000000D+00  0.000000D+00
      7   0.000000D+00  0.000000D+00  0.000000D+00  0.000000D+00  0.000000D+00
      8   0.000000D+00  0.000000D+00  0.000000D+00  0.000000D+00  0.000000D+00
      9   0.000000D+00  0.000000D+00  0.000000D+00  0.000000D+00  0.000000D+00
     10   0.000000D+00  0.000000D+00  0.000000D+00  0.000000D+00  0.000000D+00
 afr conversion (beta, real):
                 1             2             3             4             5 
      1   0.000000D+00  0.195110D+00  0.000000D+00  0.307454D+00  0.000000D+00
      2   0.000000D+00  0.308986D-01  0.000000D+00  0.631787D-01  0.000000D+00
      3   0.000000D+00  0.273347D+00  0.000000D+00  0.129038D+00  0.000000D+00
      4   0.000000D+00  0.195972D+00  0.000000D+00  0.309705D+00  0.000000D+00
      5   0.000000D+00  0.251652D+00  0.000000D+00 -0.223494D+00  0.000000D+00
      6   0.000000D+00  0.272989D+00  0.000000D+00  0.129890D+00  0.000000D+00
      7   0.000000D+00  0.140153D+00  0.000000D+00 -0.276160D+00  0.000000D+00
      8   0.000000D+00  0.252345D+00  0.000000D+00 -0.222942D+00  0.000000D+00
      9   0.000000D+00 -0.731395D-02  0.000000D+00  0.129959D-01  0.000000D+00
     10   0.000000D+00  0.139570D+00  0.000000D+00 -0.274100D+00  0.000000D+00
                 6             7             8             9            10 
      1   0.308160D+00  0.000000D+00  0.187897D+00 -0.204622D+00  0.000000D+00
      2   0.966701D-01  0.000000D+00  0.984958D-01  0.101733D+01  0.000000D+00
      3  -0.265078D+00  0.000000D+00 -0.374855D+00  0.662300D-01  0.000000D+00
      4   0.310293D+00  0.000000D+00  0.187639D+00 -0.204303D+00  0.000000D+00
      5  -0.157764D+00  0.000000D+00  0.408779D+00 -0.217583D-01  0.000000D+00
      6  -0.265379D+00  0.000000D+00 -0.373914D+00  0.709637D-01  0.000000D+00
      7   0.350844D+00  0.000000D+00 -0.273117D+00  0.647878D-02  0.000000D+00
      8  -0.157569D+00  0.000000D+00  0.409522D+00 -0.230281D-01  0.000000D+00
      9  -0.133567D-01  0.000000D+00  0.725160D-02  0.158432D-03  0.000000D+00
     10   0.348043D+00  0.000000D+00 -0.272694D+00  0.687373D-02  0.000000D+00
                11            12            13            14            15 
      1   0.143045D-02  0.000000D+00  0.000000D+00 -0.599850D+00  0.000000D+00
      2  -0.382624D-03  0.000000D+00  0.000000D+00 -0.493223D-02  0.000000D+00
      3  -0.518665D-02  0.000000D+00  0.000000D+00 -0.937176D+00  0.000000D+00
      4   0.357493D-03  0.000000D+00  0.000000D+00  0.622110D+00  0.000000D+00
      5   0.374717D-01  0.000000D+00  0.000000D+00 -0.933389D+00  0.000000D+00
      6  -0.395870D-02  0.000000D+00  0.000000D+00  0.941501D+00  0.000000D+00
      7  -0.115325D+00  0.000000D+00  0.000000D+00 -0.601651D+00  0.000000D+00
      8   0.825272D-02  0.000000D+00  0.000000D+00  0.928552D+00  0.000000D+00
      9   0.102874D+01  0.000000D+00  0.000000D+00  0.105489D-01  0.000000D+00
     10  -0.123154D+00  0.000000D+00  0.000000D+00  0.578575D+00  0.000000D+00
                16            17            18            19            20 
      1  -0.100688D+01  0.000000D+00 -0.106569D+01  0.229818D-05 -0.695708D+00
      2  -0.434535D-02  0.000000D+00  0.173232D-02  0.000000D+00  0.576945D-02
      3  -0.601880D+00  0.000000D+00  0.674692D+00 -0.384218D-05  0.116311D+01
      4   0.102763D+01  0.000000D+00  0.105821D+01 -0.220447D-05  0.667340D+00
      5   0.598702D+00  0.000000D+00  0.692247D+00  0.382292D-05 -0.115728D+01
      6   0.566995D+00  0.000000D+00 -0.720058D+00  0.379849D-05 -0.114989D+01
      7   0.101826D+01  0.000000D+00 -0.106906D+01 -0.225764D-05  0.683438D+00
      8  -0.632685D+00  0.000000D+00 -0.646023D+00 -0.386480D-05  0.116996D+01
      9  -0.846665D-02  0.000000D+00 -0.281255D-02  0.000000D+00  0.919863D-02
     10  -0.996183D+00  0.000000D+00  0.107602D+01  0.235393D-05 -0.712587D+00
 afr conversion (beta, imaginary):
                 1             2             3             4             5 
      1   0.000000D+00  0.000000D+00  0.000000D+00  0.000000D+00  0.000000D+00
      2   0.000000D+00  0.000000D+00  0.000000D+00  0.000000D+00  0.000000D+00
      3   0.000000D+00  0.000000D+00  0.000000D+00  0.000000D+00  0.000000D+00
      4   0.000000D+00  0.000000D+00  0.000000D+00  0.000000D+00  0.000000D+00
      5   0.000000D+00  0.000000D+00  0.000000D+00  0.000000D+00  0.000000D+00
      6   0.000000D+00  0.000000D+00  0.000000D+00  0.000000D+00  0.000000D+00
      7   0.000000D+00  0.000000D+00  0.000000D+00  0.000000D+00  0.000000D+00
      8   0.000000D+00  0.000000D+00  0.000000D+00  0.000000D+00  0.000000D+00
      9   0.000000D+00  0.000000D+00  0.000000D+00  0.000000D+00  0.000000D+00
     10   0.000000D+00  0.000000D+00  0.000000D+00  0.000000D+00  0.000000D+00
                 6             7             8             9            10 
      1   0.000000D+00  0.000000D+00  0.000000D+00  0.000000D+00  0.000000D+00
      2   0.000000D+00  0.000000D+00  0.000000D+00  0.000000D+00  0.000000D+00
      3   0.000000D+00  0.000000D+00  0.000000D+00  0.000000D+00  0.000000D+00
      4   0.000000D+00  0.000000D+00  0.000000D+00  0.000000D+00  0.000000D+00
      5   0.000000D+00  0.000000D+00  0.000000D+00  0.000000D+00  0.000000D+00
      6   0.000000D+00  0.000000D+00  0.000000D+00  0.000000D+00  0.000000D+00
      7   0.000000D+00  0.000000D+00  0.000000D+00  0.000000D+00  0.000000D+00
      8   0.000000D+00  0.000000D+00  0.000000D+00  0.000000D+00  0.000000D+00
      9   0.000000D+00  0.000000D+00  0.000000D+00  0.000000D+00  0.000000D+00
     10   0.000000D+00  0.000000D+00  0.000000D+00  0.000000D+00  0.000000D+00
                11            12            13            14            15 
      1   0.000000D+00  0.000000D+00  0.000000D+00  0.000000D+00  0.000000D+00
      2   0.000000D+00  0.000000D+00  0.000000D+00  0.000000D+00  0.000000D+00
      3   0.000000D+00  0.000000D+00  0.000000D+00  0.000000D+00  0.000000D+00
      4   0.000000D+00  0.000000D+00  0.000000D+00  0.000000D+00  0.000000D+00
      5   0.000000D+00  0.000000D+00  0.000000D+00  0.000000D+00  0.000000D+00
      6   0.000000D+00  0.000000D+00  0.000000D+00  0.000000D+00  0.000000D+00
      7   0.000000D+00  0.000000D+00  0.000000D+00  0.000000D+00  0.000000D+00
      8   0.000000D+00  0.000000D+00  0.000000D+00  0.000000D+00  0.000000D+00
      9   0.000000D+00  0.000000D+00  0.000000D+00  0.000000D+00  0.000000D+00
     10   0.000000D+00  0.000000D+00  0.000000D+00  0.000000D+00  0.000000D+00
                16            17            18            19            20 
      1   0.000000D+00  0.000000D+00  0.000000D+00  0.000000D+00  0.000000D+00
      2   0.000000D+00  0.000000D+00  0.000000D+00  0.000000D+00  0.000000D+00
      3   0.000000D+00  0.000000D+00  0.000000D+00  0.000000D+00  0.000000D+00
      4   0.000000D+00  0.000000D+00  0.000000D+00  0.000000D+00  0.000000D+00
      5   0.000000D+00  0.000000D+00  0.000000D+00  0.000000D+00  0.000000D+00
      6   0.000000D+00  0.000000D+00  0.000000D+00  0.000000D+00  0.000000D+00
      7   0.000000D+00  0.000000D+00  0.000000D+00  0.000000D+00  0.000000D+00
      8   0.000000D+00  0.000000D+00  0.000000D+00  0.000000D+00  0.000000D+00
      9   0.000000D+00  0.000000D+00  0.000000D+00  0.000000D+00  0.000000D+00
     10   0.000000D+00  0.000000D+00  0.000000D+00  0.000000D+00  0.000000D+00
 jaja in hckghf.F, ISPECT =                     548
Spin block MO for GHF transformation
NOA =   10   NOB =   10
NVA =   10   NVB =   10
 NOAvA in Hack                     100
 jaja in tranN3.F, ISPECT =                     548
 in l802/tranN3.F, LSPECT =                      800
 NMat, NBtSiz,MDV                    8372                   16000
                133954722
 TranN3:  NGot= 134217728 NBasic=    263006 NTTT=       550 NMat=      8372.
 Defined bucket =                      51                   10000
 Defined bucket =                      52                   10000
 Defined bucket =                      53                   10000
 Defined bucket =                      55                   10000
 Defined bucket =                      57                   10000
 Defined bucket =                      58                   10000
 Defined bucket =                      60                   10000
 Defined bucket =                      72                   10000
 Defined bucket =                      73                   10000
 Defined bucket =                      74                   10000
 Defined bucket =                      75                   10000
 Defined bucket =                      76                   10000
 (IK/LS) integrals will be saved in memory.
 TrCghf made   2 passes through the AO integrals.
 jaja DoHack is true or false? F
 jaja in hckghf.F, NBasis=                      10
 jaja in hckGHF/FixOG, LC =                      800
 jaja in hckGHF/FixOG, IRwC=                      548
 bfr conversion (alpha, real):
                 1             2             3             4             5 
      1   0.139570D+00  0.000000D+00 -0.274100D+00  0.000000D+00  0.348043D+00
      2  -0.731395D-02  0.000000D+00  0.129959D-01  0.000000D+00 -0.133567D-01
      3   0.252345D+00  0.000000D+00 -0.222942D+00  0.000000D+00 -0.157569D+00
      4   0.140153D+00  0.000000D+00 -0.276160D+00  0.000000D+00  0.350844D+00
      5   0.272989D+00  0.000000D+00  0.129890D+00  0.000000D+00 -0.265379D+00
      6   0.251652D+00  0.000000D+00 -0.223494D+00  0.000000D+00 -0.157764D+00
      7   0.195972D+00  0.000000D+00  0.309705D+00  0.000000D+00  0.310293D+00
      8   0.273347D+00  0.000000D+00  0.129038D+00  0.000000D+00 -0.265078D+00
      9   0.308986D-01  0.000000D+00  0.631787D-01  0.000000D+00  0.966701D-01
     10   0.195110D+00  0.000000D+00  0.307454D+00  0.000000D+00  0.308160D+00
                 6             7             8             9            10 
      1   0.000000D+00 -0.272694D+00  0.000000D+00  0.000000D+00  0.687373D-02
      2   0.000000D+00  0.725160D-02  0.000000D+00  0.000000D+00  0.158432D-03
      3   0.000000D+00  0.409522D+00  0.000000D+00  0.000000D+00 -0.230281D-01
      4   0.000000D+00 -0.273117D+00  0.000000D+00  0.000000D+00  0.647878D-02
      5   0.000000D+00 -0.373914D+00  0.000000D+00  0.000000D+00  0.709637D-01
      6   0.000000D+00  0.408779D+00  0.000000D+00  0.000000D+00 -0.217583D-01
      7   0.000000D+00  0.187639D+00  0.000000D+00  0.000000D+00 -0.204303D+00
      8   0.000000D+00 -0.374855D+00  0.000000D+00  0.000000D+00  0.662300D-01
      9   0.000000D+00  0.984958D-01  0.000000D+00  0.000000D+00  0.101733D+01
     10   0.000000D+00  0.187897D+00  0.000000D+00  0.000000D+00 -0.204622D+00
                11            12            13            14            15 
      1   0.000000D+00 -0.123154D+00  0.578575D+00  0.000000D+00 -0.996183D+00
      2   0.000000D+00  0.102874D+01  0.105489D-01  0.000000D+00 -0.846665D-02
      3   0.000000D+00  0.825272D-02  0.928552D+00  0.000000D+00 -0.632685D+00
      4   0.000000D+00 -0.115325D+00 -0.601651D+00  0.000000D+00  0.101826D+01
      5   0.000000D+00 -0.395870D-02  0.941501D+00  0.000000D+00  0.566995D+00
      6   0.000000D+00  0.374717D-01 -0.933389D+00  0.000000D+00  0.598702D+00
      7   0.000000D+00  0.357493D-03  0.622110D+00  0.000000D+00  0.102763D+01
      8   0.000000D+00 -0.518665D-02 -0.937176D+00  0.000000D+00 -0.601880D+00
      9   0.000000D+00 -0.382624D-03 -0.493223D-02  0.000000D+00 -0.434535D-02
     10   0.000000D+00  0.143045D-02 -0.599850D+00  0.000000D+00 -0.100688D+01
                16            17            18            19            20 
      1   0.000000D+00  0.107602D+01  0.000000D+00 -0.712587D+00 -0.235393D-05
      2   0.000000D+00 -0.281255D-02  0.000000D+00  0.919863D-02  0.000000D+00
      3   0.000000D+00 -0.646023D+00  0.000000D+00  0.116996D+01  0.386480D-05
      4   0.000000D+00 -0.106906D+01  0.000000D+00  0.683438D+00  0.225764D-05
      5   0.000000D+00 -0.720058D+00  0.000000D+00 -0.114989D+01 -0.379849D-05
      6   0.000000D+00  0.692247D+00  0.000000D+00 -0.115728D+01 -0.382292D-05
      7   0.000000D+00  0.105821D+01  0.000000D+00  0.667340D+00  0.220447D-05
      8   0.000000D+00  0.674692D+00  0.000000D+00  0.116311D+01  0.384218D-05
      9   0.000000D+00  0.173232D-02  0.000000D+00  0.576945D-02  0.000000D+00
     10   0.000000D+00 -0.106569D+01  0.000000D+00 -0.695708D+00 -0.229818D-05
 bfr conversion (alpha, imaginary):
                 1             2             3             4             5 
      1   0.000000D+00  0.000000D+00  0.000000D+00  0.000000D+00  0.000000D+00
      2   0.000000D+00  0.000000D+00  0.000000D+00  0.000000D+00  0.000000D+00
      3   0.000000D+00  0.000000D+00  0.000000D+00  0.000000D+00  0.000000D+00
      4   0.000000D+00  0.000000D+00  0.000000D+00  0.000000D+00  0.000000D+00
      5   0.000000D+00  0.000000D+00  0.000000D+00  0.000000D+00  0.000000D+00
      6   0.000000D+00  0.000000D+00  0.000000D+00  0.000000D+00  0.000000D+00
      7   0.000000D+00  0.000000D+00  0.000000D+00  0.000000D+00  0.000000D+00
      8   0.000000D+00  0.000000D+00  0.000000D+00  0.000000D+00  0.000000D+00
      9   0.000000D+00  0.000000D+00  0.000000D+00  0.000000D+00  0.000000D+00
     10   0.000000D+00  0.000000D+00  0.000000D+00  0.000000D+00  0.000000D+00
                 6             7             8             9            10 
      1   0.000000D+00  0.000000D+00  0.000000D+00  0.000000D+00  0.000000D+00
      2   0.000000D+00  0.000000D+00  0.000000D+00  0.000000D+00  0.000000D+00
      3   0.000000D+00  0.000000D+00  0.000000D+00  0.000000D+00  0.000000D+00
      4   0.000000D+00  0.000000D+00  0.000000D+00  0.000000D+00  0.000000D+00
      5   0.000000D+00  0.000000D+00  0.000000D+00  0.000000D+00  0.000000D+00
      6   0.000000D+00  0.000000D+00  0.000000D+00  0.000000D+00  0.000000D+00
      7   0.000000D+00  0.000000D+00  0.000000D+00  0.000000D+00  0.000000D+00
      8   0.000000D+00  0.000000D+00  0.000000D+00  0.000000D+00  0.000000D+00
      9   0.000000D+00  0.000000D+00  0.000000D+00  0.000000D+00  0.000000D+00
     10   0.000000D+00  0.000000D+00  0.000000D+00  0.000000D+00  0.000000D+00
                11            12            13            14            15 
      1   0.000000D+00  0.000000D+00  0.000000D+00  0.000000D+00  0.000000D+00
      2   0.000000D+00  0.000000D+00  0.000000D+00  0.000000D+00  0.000000D+00
      3   0.000000D+00  0.000000D+00  0.000000D+00  0.000000D+00  0.000000D+00
      4   0.000000D+00  0.000000D+00  0.000000D+00  0.000000D+00  0.000000D+00
      5   0.000000D+00  0.000000D+00  0.000000D+00  0.000000D+00  0.000000D+00
      6   0.000000D+00  0.000000D+00  0.000000D+00  0.000000D+00  0.000000D+00
      7   0.000000D+00  0.000000D+00  0.000000D+00  0.000000D+00  0.000000D+00
      8   0.000000D+00  0.000000D+00  0.000000D+00  0.000000D+00  0.000000D+00
      9   0.000000D+00  0.000000D+00  0.000000D+00  0.000000D+00  0.000000D+00
     10   0.000000D+00  0.000000D+00  0.000000D+00  0.000000D+00  0.000000D+00
                16            17            18            19            20 
      1   0.000000D+00  0.000000D+00  0.000000D+00  0.000000D+00  0.000000D+00
      2   0.000000D+00  0.000000D+00  0.000000D+00  0.000000D+00  0.000000D+00
      3   0.000000D+00  0.000000D+00  0.000000D+00  0.000000D+00  0.000000D+00
      4   0.000000D+00  0.000000D+00  0.000000D+00  0.000000D+00  0.000000D+00
      5   0.000000D+00  0.000000D+00  0.000000D+00  0.000000D+00  0.000000D+00
[...]
      6b 0.577726D-03  0.373729D-02 -0.257175D-02  0.379113D-01 -0.127954D-03
      7a-0.143619D+00  0.125208D-03  0.664324D-02 -0.794498D-04 -0.123565D+00
      7b 0.304856D-02 -0.163994D+00  0.210703D-02 -0.295632D-01  0.158762D-02
      8a-0.627815D-01 -0.177195D-04  0.421222D-02  0.355733D-03 -0.124173D+00
      8b-0.940363D-03 -0.153685D+00  0.298957D-02 -0.406285D-01 -0.207201D-03
      9a-0.331680D-01  0.264181D-03  0.140727D-02 -0.688431D-04 -0.114845D-01
      9b-0.281715D-01  0.784021D-02  0.110147D-02  0.161743D-02 -0.130271D-01
     10a-0.142978D+00  0.116481D-03  0.660256D-02 -0.996464D-04 -0.121549D+00
     10b 0.298326D-02 -0.163187D+00  0.207573D-02 -0.290455D-01  0.153041D-02
                3b            4a            4b            5a            5b
      3b 0.475152D+00
      4a 0.215689D-03  0.587325D+00
      4b 0.458219D-02 -0.171663D-03  0.665686D+00
      5a 0.722839D-04 -0.657691D-01 -0.359753D-04  0.484253D+00
      5b-0.117484D+00 -0.100340D-02 -0.157300D+00 -0.246282D-03  0.536739D+00
      6a 0.134008D-03  0.322990D-01  0.864205D-04 -0.124491D+00 -0.238728D-03
      6b 0.475441D+00  0.577538D-03  0.445469D-02  0.777048D-04 -0.117906D+00
      7a-0.361712D-03 -0.144321D+00  0.198260D-04 -0.967306D-03  0.173434D-02
      7b-0.931247D-01  0.305910D-02 -0.164826D+00  0.178022D-02  0.625467D-01
      8a 0.802281D-04 -0.643778D-01 -0.420130D-04  0.484288D+00 -0.302263D-03
      8b-0.117420D+00 -0.948549D-03 -0.155883D+00 -0.446205D-03  0.536899D+00
      9a-0.125378D-02 -0.333362D-01  0.175531D-03 -0.256250D-01  0.636043D-02
      9b 0.442688D-02 -0.283211D-01  0.782475D-02 -0.155489D-01 -0.227896D-02
     10a-0.362400D-03 -0.143674D+00  0.116002D-04 -0.161047D-02  0.172011D-02
     10b-0.913682D-01  0.299351D-02 -0.164012D+00  0.178437D-02  0.614917D-01
                6a            6b            7a            7b            8a
      6a 0.542256D+00
      6b-0.161766D-03  0.475760D+00
      7a-0.124741D+00 -0.311238D-03  0.603485D+00
      7b 0.158731D-02 -0.945601D-01 -0.928983D-02  0.609123D+00
      8a-0.124253D+00  0.853809D-04 -0.154441D-02  0.195402D-02  0.484334D+00
      8b-0.196839D-03 -0.117846D+00  0.177035D-02  0.620790D-01 -0.497058D-03
      9a-0.113715D-01 -0.995695D-03  0.851886D-01 -0.302121D-01 -0.273484D-01
      9b-0.129806D-01  0.467488D-02  0.785651D-01 -0.469577D-01 -0.168009D-01
     10a-0.122719D+00 -0.313531D-03  0.599869D+00 -0.916779D-02 -0.218243D-02
     10b 0.152918D-02 -0.927928D-01 -0.897886D-02  0.605154D+00  0.195844D-02
                8b            9a            9b           10a           10b
      8b 0.537066D+00
      9a 0.525106D-02  0.360794D+00
      9b-0.305302D-02  0.260781D+00  0.190074D+00
     10a 0.175758D-02  0.842695D-01  0.777954D-01  0.596279D+00
     10b 0.610270D-01 -0.303175D-01 -0.468532D-01 -0.885870D-02  0.601215D+00
 jaja lower-tri density matrix (imaginary):
                1a            1b            2a            2b            3a
      1a 0.000000D+00
      1b 0.000000D+00  0.000000D+00
      2a 0.000000D+00  0.000000D+00  0.000000D+00
      2b 0.000000D+00  0.000000D+00  0.000000D+00  0.000000D+00
      3a 0.000000D+00  0.000000D+00  0.000000D+00  0.000000D+00  0.000000D+00
      3b 0.000000D+00  0.000000D+00  0.000000D+00  0.000000D+00  0.000000D+00
      4a 0.000000D+00  0.000000D+00  0.000000D+00  0.000000D+00  0.000000D+00
      4b 0.000000D+00  0.000000D+00  0.000000D+00  0.000000D+00  0.000000D+00
      5a 0.000000D+00  0.000000D+00  0.000000D+00  0.000000D+00  0.000000D+00
      5b 0.000000D+00  0.000000D+00  0.000000D+00  0.000000D+00  0.000000D+00
      6a 0.000000D+00  0.000000D+00  0.000000D+00  0.000000D+00  0.000000D+00
      6b 0.000000D+00  0.000000D+00  0.000000D+00  0.000000D+00  0.000000D+00
      7a 0.000000D+00  0.000000D+00  0.000000D+00  0.000000D+00  0.000000D+00
      7b 0.000000D+00  0.000000D+00  0.000000D+00  0.000000D+00  0.000000D+00
      8a 0.000000D+00  0.000000D+00  0.000000D+00  0.000000D+00  0.000000D+00
      8b 0.000000D+00  0.000000D+00  0.000000D+00  0.000000D+00  0.000000D+00
      9a 0.000000D+00  0.000000D+00  0.000000D+00  0.000000D+00  0.000000D+00
      9b 0.000000D+00  0.000000D+00  0.000000D+00  0.000000D+00  0.000000D+00
     10a 0.000000D+00  0.000000D+00  0.000000D+00  0.000000D+00  0.000000D+00
     10b 0.000000D+00  0.000000D+00  0.000000D+00  0.000000D+00  0.000000D+00
                3b            4a            4b            5a            5b
      3b 0.000000D+00
      4a 0.000000D+00  0.000000D+00
      4b 0.000000D+00  0.000000D+00  0.000000D+00
      5a 0.000000D+00  0.000000D+00  0.000000D+00  0.000000D+00
      5b 0.000000D+00  0.000000D+00  0.000000D+00  0.000000D+00  0.000000D+00
      6a 0.000000D+00  0.000000D+00  0.000000D+00  0.000000D+00  0.000000D+00
      6b 0.000000D+00  0.000000D+00  0.000000D+00  0.000000D+00  0.000000D+00
      7a 0.000000D+00  0.000000D+00  0.000000D+00  0.000000D+00  0.000000D+00
      7b 0.000000D+00  0.000000D+00  0.000000D+00  0.000000D+00  0.000000D+00
      8a 0.000000D+00  0.000000D+00  0.000000D+00  0.000000D+00  0.000000D+00
      8b 0.000000D+00  0.000000D+00  0.000000D+00  0.000000D+00  0.000000D+00
      9a 0.000000D+00  0.000000D+00  0.000000D+00  0.000000D+00  0.000000D+00
      9b 0.000000D+00  0.000000D+00  0.000000D+00  0.000000D+00  0.000000D+00
     10a 0.000000D+00  0.000000D+00  0.000000D+00  0.000000D+00  0.000000D+00
     10b 0.000000D+00  0.000000D+00  0.000000D+00  0.000000D+00  0.000000D+00
                6a            6b            7a            7b            8a
      6a 0.000000D+00
      6b 0.000000D+00  0.000000D+00
      7a 0.000000D+00  0.000000D+00  0.000000D+00
      7b 0.000000D+00  0.000000D+00  0.000000D+00  0.000000D+00
      8a 0.000000D+00  0.000000D+00  0.000000D+00  0.000000D+00  0.000000D+00
      8b 0.000000D+00  0.000000D+00  0.000000D+00  0.000000D+00  0.000000D+00
      9a 0.000000D+00  0.000000D+00  0.000000D+00  0.000000D+00  0.000000D+00
      9b 0.000000D+00  0.000000D+00  0.000000D+00  0.000000D+00  0.000000D+00
     10a 0.000000D+00  0.000000D+00  0.000000D+00  0.000000D+00  0.000000D+00
     10b 0.000000D+00  0.000000D+00  0.000000D+00  0.000000D+00  0.000000D+00
                8b            9a            9b           10a           10b
      8b 0.000000D+00
      9a 0.000000D+00  0.000000D+00
      9b 0.000000D+00  0.000000D+00  0.000000D+00
     10a 0.000000D+00  0.000000D+00  0.000000D+00  0.000000D+00
     10b 0.000000D+00  0.000000D+00  0.000000D+00  0.000000D+00  0.000000D+00
 jaja non-ortho density matrix               [Gau-style] (real):
                 1             2             3             4             5 
      1a  0.579803D+00 -0.563393D-03 -0.243526D-01  0.840843D-02  0.308838D-01
      1b -0.563393D-03  0.658083D+00  0.304038D-02 -0.765974D-01  0.211389D-04
      2a -0.243526D-01  0.304038D-02  0.541653D-02 -0.721734D-01 -0.559640D-02
      2b  0.840843D-02 -0.765974D-01 -0.721734D-01  0.118523D+01 -0.143546D-02
      3a  0.308838D-01  0.211389D-04 -0.559640D-02 -0.143546D-02  0.542746D+00
      3b  0.217410D-03  0.387194D-02 -0.222161D-02  0.323479D-01  0.166798D-03
      4a  0.583550D+00 -0.529370D-03 -0.245112D-01  0.836134D-02  0.317753D-01
      4b -0.208029D-03  0.661871D+00  0.294098D-02 -0.753637D-01  0.363717D-04
      5a -0.641641D-01 -0.103993D-04  0.427479D-02  0.279203D-03 -0.124412D+00
      5b -0.994050D-03 -0.155097D+00  0.292675D-02 -0.394894D-01 -0.249641D-03
      6a  0.314049D-01  0.710989D-04 -0.559531D-02 -0.176762D-02  0.542499D+00
      6b  0.577726D-03  0.373729D-02 -0.257175D-02  0.379113D-01 -0.127954D-03
      7a -0.143619D+00  0.125208D-03  0.664324D-02 -0.794498D-04 -0.123565D+00
      7b  0.304856D-02 -0.163994D+00  0.210703D-02 -0.295632D-01  0.158762D-02
      8a -0.627815D-01 -0.177195D-04  0.421222D-02  0.355733D-03 -0.124173D+00
      8b -0.940363D-03 -0.153685D+00  0.298957D-02 -0.406285D-01 -0.207201D-03
      9a -0.331680D-01  0.264181D-03  0.140727D-02 -0.688431D-04 -0.114845D-01
      9b -0.281715D-01  0.784021D-02  0.110147D-02  0.161743D-02 -0.130271D-01
     10a -0.142978D+00  0.116481D-03  0.660256D-02 -0.996464D-04 -0.121549D+00
     10b  0.298326D-02 -0.163187D+00  0.207573D-02 -0.290455D-01  0.153041D-02
                 6             7             8             9            10 
      1a  0.217410D-03  0.583550D+00 -0.208029D-03 -0.641641D-01 -0.994050D-03
      1b  0.387194D-02 -0.529370D-03  0.661871D+00 -0.103993D-04 -0.155097D+00
      2a -0.222161D-02 -0.245112D-01  0.294098D-02  0.427479D-02  0.292675D-02
      2b  0.323479D-01  0.836134D-02 -0.753637D-01  0.279203D-03 -0.394894D-01
      3a  0.166798D-03  0.317753D-01  0.363717D-04 -0.124412D+00 -0.249641D-03
      3b  0.475152D+00  0.215689D-03  0.458219D-02  0.722839D-04 -0.117484D+00
      4a  0.215689D-03  0.587325D+00 -0.171663D-03 -0.657691D-01 -0.100340D-02
      4b  0.458219D-02 -0.171663D-03  0.665686D+00 -0.359753D-04 -0.157300D+00
      5a  0.722839D-04 -0.657691D-01 -0.359753D-04  0.484253D+00 -0.246282D-03
      5b -0.117484D+00 -0.100340D-02 -0.157300D+00 -0.246282D-03  0.536739D+00
      6a  0.134008D-03  0.322990D-01  0.864205D-04 -0.124491D+00 -0.238728D-03
      6b  0.475441D+00  0.577538D-03  0.445469D-02  0.777048D-04 -0.117906D+00
      7a -0.361712D-03 -0.144321D+00  0.198260D-04 -0.967306D-03  0.173434D-02
      7b -0.931247D-01  0.305910D-02 -0.164826D+00  0.178022D-02  0.625467D-01
      8a  0.802281D-04 -0.643778D-01 -0.420130D-04  0.484288D+00 -0.302263D-03
      8b -0.117420D+00 -0.948549D-03 -0.155883D+00 -0.446205D-03  0.536899D+00
      9a -0.125378D-02 -0.333362D-01  0.175531D-03 -0.256250D-01  0.636043D-02
      9b  0.442688D-02 -0.283211D-01  0.782475D-02 -0.155489D-01 -0.227896D-02
     10a -0.362400D-03 -0.143674D+00  0.116002D-04 -0.161047D-02  0.172011D-02
     10b -0.913682D-01  0.299351D-02 -0.164012D+00  0.178437D-02  0.614917D-01
                11            12            13            14            15 
      1a  0.314049D-01  0.577726D-03 -0.143619D+00  0.304856D-02 -0.627815D-01
      1b  0.710989D-04  0.373729D-02  0.125208D-03 -0.163994D+00 -0.177195D-04
      2a -0.559531D-02 -0.257175D-02  0.664324D-02  0.210703D-02  0.421222D-02
      2b -0.176762D-02  0.379113D-01 -0.794498D-04 -0.295632D-01  0.355733D-03
      3a  0.542499D+00 -0.127954D-03 -0.123565D+00  0.158762D-02 -0.124173D+00
      3b  0.134008D-03  0.475441D+00 -0.361712D-03 -0.931247D-01  0.802281D-04
      4a  0.322990D-01  0.577538D-03 -0.144321D+00  0.305910D-02 -0.643778D-01
      4b  0.864205D-04  0.445469D-02  0.198260D-04 -0.164826D+00 -0.420130D-04
      5a -0.124491D+00  0.777048D-04 -0.967306D-03  0.178022D-02  0.484288D+00
      5b -0.238728D-03 -0.117906D+00  0.173434D-02  0.625467D-01 -0.302263D-03
      6a  0.542256D+00 -0.161766D-03 -0.124741D+00  0.158731D-02 -0.124253D+00
      6b -0.161766D-03  0.475760D+00 -0.311238D-03 -0.945601D-01  0.853809D-04
      7a -0.124741D+00 -0.311238D-03  0.603485D+00 -0.928983D-02 -0.154441D-02
      7b  0.158731D-02 -0.945601D-01 -0.928983D-02  0.609123D+00  0.195402D-02
      8a -0.124253D+00  0.853809D-04 -0.154441D-02  0.195402D-02  0.484334D+00
      8b -0.196839D-03 -0.117846D+00  0.177035D-02  0.620790D-01 -0.497058D-03
      9a -0.113715D-01 -0.995695D-03  0.851886D-01 -0.302121D-01 -0.273484D-01
      9b -0.129806D-01  0.467488D-02  0.785651D-01 -0.469577D-01 -0.168009D-01
     10a -0.122719D+00 -0.313531D-03  0.599869D+00 -0.916779D-02 -0.218243D-02
     10b  0.152918D-02 -0.927928D-01 -0.897886D-02  0.605154D+00  0.195844D-02
                16            17            18            19            20 
      1a -0.940363D-03 -0.331680D-01 -0.281715D-01 -0.142978D+00  0.298326D-02
      1b -0.153685D+00  0.264181D-03  0.784021D-02  0.116481D-03 -0.163187D+00
      2a  0.298957D-02  0.140727D-02  0.110147D-02  0.660256D-02  0.207573D-02
      2b -0.406285D-01 -0.688431D-04  0.161743D-02 -0.996464D-04 -0.290455D-01
      3a -0.207201D-03 -0.114845D-01 -0.130271D-01 -0.121549D+00  0.153041D-02
      3b -0.117420D+00 -0.125378D-02  0.442688D-02 -0.362400D-03 -0.913682D-01
      4a -0.948549D-03 -0.333362D-01 -0.283211D-01 -0.143674D+00  0.299351D-02
      4b -0.155883D+00  0.175531D-03  0.782475D-02  0.116002D-04 -0.164012D+00
      5a -0.446205D-03 -0.256250D-01 -0.155489D-01 -0.161047D-02  0.178437D-02
      5b  0.536899D+00  0.636043D-02 -0.227896D-02  0.172011D-02  0.614917D-01
      6a -0.196839D-03 -0.113715D-01 -0.129806D-01 -0.122719D+00  0.152918D-02
      6b -0.117846D+00 -0.995695D-03  0.467488D-02 -0.313531D-03 -0.927928D-01
      7a  0.177035D-02  0.851886D-01  0.785651D-01  0.599869D+00 -0.897886D-02
      7b  0.620790D-01 -0.302121D-01 -0.469577D-01 -0.916779D-02  0.605154D+00
      8a -0.497058D-03 -0.273484D-01 -0.168009D-01 -0.218243D-02  0.195844D-02
      8b  0.537066D+00  0.525106D-02 -0.305302D-02  0.175758D-02  0.610270D-01
      9a  0.525106D-02  0.360794D+00  0.260781D+00  0.842695D-01 -0.303175D-01
      9b -0.305302D-02  0.260781D+00  0.190074D+00  0.777954D-01 -0.468532D-01
     10a  0.175758D-02  0.842695D-01  0.777954D-01  0.596279D+00 -0.885870D-02
     10b  0.610270D-01 -0.303175D-01 -0.468532D-01 -0.885870D-02  0.601215D+00
 jaja non-ortho density matrix               [Gau-style] (imaginary):
                 1             2             3             4             5 
      1a  0.000000D+00  0.000000D+00  0.000000D+00  0.000000D+00  0.000000D+00
      1b  0.000000D+00  0.000000D+00  0.000000D+00  0.000000D+00  0.000000D+00
      2a  0.000000D+00  0.000000D+00  0.000000D+00  0.000000D+00  0.000000D+00
      2b  0.000000D+00  0.000000D+00  0.000000D+00  0.000000D+00  0.000000D+00
      3a  0.000000D+00  0.000000D+00  0.000000D+00  0.000000D+00  0.000000D+00
      3b  0.000000D+00  0.000000D+00  0.000000D+00  0.000000D+00  0.000000D+00
      4a  0.000000D+00  0.000000D+00  0.000000D+00  0.000000D+00  0.000000D+00
      4b  0.000000D+00  0.000000D+00  0.000000D+00  0.000000D+00  0.000000D+00
      5a  0.000000D+00  0.000000D+00  0.000000D+00  0.000000D+00  0.000000D+00
      5b  0.000000D+00  0.000000D+00  0.000000D+00  0.000000D+00  0.000000D+00
      6a  0.000000D+00  0.000000D+00  0.000000D+00  0.000000D+00  0.000000D+00
      6b  0.000000D+00  0.000000D+00  0.000000D+00  0.000000D+00  0.000000D+00
      7a  0.000000D+00  0.000000D+00  0.000000D+00  0.000000D+00  0.000000D+00
      7b  0.000000D+00  0.000000D+00  0.000000D+00  0.000000D+00  0.000000D+00
      8a  0.000000D+00  0.000000D+00  0.000000D+00  0.000000D+00  0.000000D+00
      8b  0.000000D+00  0.000000D+00  0.000000D+00  0.000000D+00  0.000000D+00
      9a  0.000000D+00  0.000000D+00  0.000000D+00  0.000000D+00  0.000000D+00
      9b  0.000000D+00  0.000000D+00  0.000000D+00  0.000000D+00  0.000000D+00
     10a  0.000000D+00  0.000000D+00  0.000000D+00  0.000000D+00  0.000000D+00
     10b  0.000000D+00  0.000000D+00  0.000000D+00  0.000000D+00  0.000000D+00
                 6             7             8             9            10 
      1a  0.000000D+00  0.000000D+00  0.000000D+00  0.000000D+00  0.000000D+00
      1b  0.000000D+00  0.000000D+00  0.000000D+00  0.000000D+00  0.000000D+00
      2a  0.000000D+00  0.000000D+00  0.000000D+00  0.000000D+00  0.000000D+00
      2b  0.000000D+00  0.000000D+00  0.000000D+00  0.000000D+00  0.000000D+00
      3a  0.000000D+00  0.000000D+00  0.000000D+00  0.000000D+00  0.000000D+00
      3b  0.000000D+00  0.000000D+00  0.000000D+00  0.000000D+00  0.000000D+00
      4a  0.000000D+00  0.000000D+00  0.000000D+00  0.000000D+00  0.000000D+00
      4b  0.000000D+00  0.000000D+00  0.000000D+00  0.000000D+00  0.000000D+00
      5a  0.000000D+00  0.000000D+00  0.000000D+00  0.000000D+00  0.000000D+00
      5b  0.000000D+00  0.000000D+00  0.000000D+00  0.000000D+00  0.000000D+00
      6a  0.000000D+00  0.000000D+00  0.000000D+00  0.000000D+00  0.000000D+00
      6b  0.000000D+00  0.000000D+00  0.000000D+00  0.000000D+00  0.000000D+00
      7a  0.000000D+00  0.000000D+00  0.000000D+00  0.000000D+00  0.000000D+00
      7b  0.000000D+00  0.000000D+00  0.000000D+00  0.000000D+00  0.000000D+00
      8a  0.000000D+00  0.000000D+00  0.000000D+00  0.000000D+00  0.000000D+00
      8b  0.000000D+00  0.000000D+00  0.000000D+00  0.000000D+00  0.000000D+00
      9a  0.000000D+00  0.000000D+00  0.000000D+00  0.000000D+00  0.000000D+00
      9b  0.000000D+00  0.000000D+00  0.000000D+00  0.000000D+00  0.000000D+00
     10a  0.000000D+00  0.000000D+00  0.000000D+00  0.000000D+00  0.000000D+00
     10b  0.000000D+00  0.000000D+00  0.000000D+00  0.000000D+00  0.000000D+00
                11            12            13            14            15 
      1a  0.000000D+00  0.000000D+00  0.000000D+00  0.000000D+00  0.000000D+00
      1b  0.000000D+00  0.000000D+00  0.000000D+00  0.000000D+00  0.000000D+00
      2a  0.000000D+00  0.000000D+00  0.000000D+00  0.000000D+00  0.000000D+00
      2b  0.000000D+00  0.000000D+00  0.000000D+00  0.000000D+00  0.000000D+00
      3a  0.000000D+00  0.000000D+00  0.000000D+00  0.000000D+00  0.000000D+00
      3b  0.000000D+00  0.000000D+00  0.000000D+00  0.000000D+00  0.000000D+00
      4a  0.000000D+00  0.000000D+00  0.000000D+00  0.000000D+00  0.000000D+00
      4b  0.000000D+00  0.000000D+00  0.000000D+00  0.000000D+00  0.000000D+00
      5a  0.000000D+00  0.000000D+00  0.000000D+00  0.000000D+00  0.000000D+00
      5b  0.000000D+00  0.000000D+00  0.000000D+00  0.000000D+00  0.000000D+00
      6a  0.000000D+00  0.000000D+00  0.000000D+00  0.000000D+00  0.000000D+00
      6b  0.000000D+00  0.000000D+00  0.000000D+00  0.000000D+00  0.000000D+00
      7a  0.000000D+00  0.000000D+00  0.000000D+00  0.000000D+00  0.000000D+00
      7b  0.000000D+00  0.000000D+00  0.000000D+00  0.000000D+00  0.000000D+00
      8a  0.000000D+00  0.000000D+00  0.000000D+00  0.000000D+00  0.000000D+00
      8b  0.000000D+00  0.000000D+00  0.000000D+00  0.000000D+00  0.000000D+00
      9a  0.000000D+00  0.000000D+00  0.000000D+00  0.000000D+00  0.000000D+00
      9b  0.000000D+00  0.000000D+00  0.000000D+00  0.000000D+00  0.000000D+00
     10a  0.000000D+00  0.000000D+00  0.000000D+00  0.000000D+00  0.000000D+00
     10b  0.000000D+00  0.000000D+00  0.000000D+00  0.000000D+00  0.000000D+00
                16            17            18            19            20 
      1a  0.000000D+00  0.000000D+00  0.000000D+00  0.000000D+00  0.000000D+00
      1b  0.000000D+00  0.000000D+00  0.000000D+00  0.000000D+00  0.000000D+00
      2a  0.000000D+00  0.000000D+00  0.000000D+00  0.000000D+00  0.000000D+00
      2b  0.000000D+00  0.000000D+00  0.000000D+00  0.000000D+00  0.000000D+00
      3a  0.000000D+00  0.000000D+00  0.000000D+00  0.000000D+00  0.000000D+00
      3b  0.000000D+00  0.000000D+00  0.000000D+00  0.000000D+00  0.000000D+00
      4a  0.000000D+00  0.000000D+00  0.000000D+00  0.000000D+00  0.000000D+00
      4b  0.000000D+00  0.000000D+00  0.000000D+00  0.000000D+00  0.000000D+00
      5a  0.000000D+00  0.000000D+00  0.000000D+00  0.000000D+00  0.000000D+00
      5b  0.000000D+00  0.000000D+00  0.000000D+00  0.000000D+00  0.000000D+00
      6a  0.000000D+00  0.000000D+00  0.000000D+00  0.000000D+00  0.000000D+00
      6b  0.000000D+00  0.000000D+00  0.000000D+00  0.000000D+00  0.000000D+00
      7a  0.000000D+00  0.000000D+00  0.000000D+00  0.000000D+00  0.000000D+00
      7b  0.000000D+00  0.000000D+00  0.000000D+00  0.000000D+00  0.000000D+00
      8a  0.000000D+00  0.000000D+00  0.000000D+00  0.000000D+00  0.000000D+00
      8b  0.000000D+00  0.000000D+00  0.000000D+00  0.000000D+00  0.000000D+00
      9a  0.000000D+00  0.000000D+00  0.000000D+00  0.000000D+00  0.000000D+00
      9b  0.000000D+00  0.000000D+00  0.000000D+00  0.000000D+00  0.000000D+00
     10a  0.000000D+00  0.000000D+00  0.000000D+00  0.000000D+00  0.000000D+00
     10b  0.000000D+00  0.000000D+00  0.000000D+00  0.000000D+00  0.000000D+00
FORTRAN STOP
