 Entering Gaussian System, Link 0=gdv
 AtFile(1): H.gbs
            H     0
            S   10   1.00
               1000.000000000000            0.000068713567
                316.227766000000            0.000169141320
                100.000000000000            0.000823394812
                 31.622776600000            0.003425569236
                 10.000000000000            0.013951996000
                  3.162277660000            0.056909313560
                  1.000000000000            0.198286399900
                  0.316227766000            0.496922426700
                  0.100000000000            0.369846276400
                  0.031622776600            0.003752720039
            ****
 Initial command:
 /users/lcj1/GHF_hess/exe-dir/l1.exe "/users/lcj1/GHF_hess/h10_2rows/readmixrmY/Gau-4563.inp" -scrdir="/users/lcj1/GHF_hess/h10_2rows/readmixrmY/"
 Entering Link 1 = /users/lcj1/GHF_hess/exe-dir/l1.exe PID=      4564.
  
 Copyright (c) 1988,1990,1992,1993,1995,1998,2003,2009,2012,
            Gaussian, Inc.  All Rights Reserved.
  
 This is the private, development version of
 the Gaussian(R) DV system of programs. It is based on
 the Gaussian(R) 09 system (copyright 2009, Gaussian, Inc.),
 the Gaussian(R) 03 system (copyright 2003, Gaussian, Inc.),
 the Gaussian(R) 98 system (copyright 1998, Gaussian, Inc.),
 the Gaussian(R) 94 system (copyright 1995, Gaussian, Inc.),
 the Gaussian 92(TM) system (copyright 1992, Gaussian, Inc.),
 the Gaussian 90(TM) system (copyright 1990, Gaussian, Inc.),
 the Gaussian 88(TM) system (copyright 1988, Gaussian, Inc.),
 the Gaussian 86(TM) system (copyright 1986, Carnegie Mellon
 University), and the Gaussian 82(TM) system (copyright 1983,
 Carnegie Mellon University). Gaussian is a federally registered
 trademark of Gaussian, Inc.
  
 This software contains proprietary and confidential information,
 including trade secrets, belonging to Gaussian, Inc.
  
 This software is provided under written license and may be
 used, copied, transmitted, or stored only in accord with that
 written license.
  
 The following legend is applicable only to US Government
 contracts under FAR:
  
                    RESTRICTED RIGHTS LEGEND
  
 Use, reproduction and disclosure by the US Government is
 subject to restrictions as set forth in subparagraphs (a)
 and (c) of the Commercial Computer Software - Restricted
 Rights clause in FAR 52.227-19.
  
 Gaussian, Inc.
 340 Quinnipiac St., Bldg. 40, Wallingford CT 06492
  
  
 ---------------------------------------------------------------
 Warning -- This program may not be used in any manner that
 competes with the business of Gaussian, Inc. or will provide
 assistance to any competitor of Gaussian, Inc.  The licensee
 of this program is prohibited from giving any competitor of
 Gaussian, Inc. access to this program.  By using this program,
 the user acknowledges that Gaussian, Inc. is engaged in the
 business of creating and licensing software in the field of
 computational chemistry and represents and warrants to the
 licensee that it is not a competitor of Gaussian, Inc. and that
 it will not use this program in any manner prohibited above.
 ---------------------------------------------------------------
  

 Cite this work as:
 Gaussian Development Version, Revision H.21,
 M. J. Frisch, G. W. Trucks, H. B. Schlegel, G. E. Scuseria, 
 M. A. Robb, J. R. Cheeseman, G. Scalmani, V. Barone, B. Mennucci, 
 G. A. Petersson, H. Nakatsuji, M. Caricato, X. Li, H. P. Hratchian, 
 A. F. Izmaylov, J. Bloino, G. Zheng, J. L. Sonnenberg, W. Liang, 
 M. Hada, M. Ehara, K. Toyota, R. Fukuda, J. Hasegawa, M. Ishida, 
 T. Nakajima, Y. Honda, O. Kitao, H. Nakai, T. Vreven, 
 J. A. Montgomery, Jr., J. E. Peralta, F. Ogliaro, M. Bearpark, 
 J. J. Heyd, E. Brothers, K. N. Kudin, V. N. Staroverov, T. Keith, 
 R. Kobayashi, J. Normand, K. Raghavachari, A. Rendell, J. C. Burant, 
 S. S. Iyengar, J. Tomasi, M. Cossi, N. Rega, J. M. Millam, M. Klene, 
 J. E. Knox, J. B. Cross, V. Bakken, C. Adamo, J. Jaramillo, 
 R. Gomperts, R. E. Stratmann, O. Yazyev, A. J. Austin, R. Cammi, 
 C. Pomelli, J. W. Ochterski, R. L. Martin, K. Morokuma, 
 V. G. Zakrzewski, G. A. Voth, P. Salvador, J. J. Dannenberg, 
 S. Dapprich, P. V. Parandekar, N. J. Mayhall, A. D. Daniels, 
 O. Farkas, J. B. Foresman, J. V. Ortiz, J. Cioslowski, 
 and D. J. Fox, Gaussian, Inc., Wallingford CT, 2010.
 
 ******************************************
 Gaussian DV:  EM64L-GDVRevH.21 13-May-2012
                28-Feb-2017 
 ******************************************
 %chk=h10.chk
 ----------------------------------------------------------------------
 #ghf/gen scf(tight,novaracc,noincfock,fulldiag) stable guess=(read,mix
 ) geom=nocrowd use=l802 use=l902 test
 ----------------------------------------------------------------------
 ********************************************
   THE COMPLEX ERI TRANSFORMATION WITH L802  
        COMPLEX STABILITY WITH L902          
 ********************************************
 1/38=1/1;
 2/12=1,17=6,18=5,40=1/2;
 3/5=7,16=1,25=20,28=1,116=7/1,2,3,20;
 4/5=1,13=-1/1;
 5/5=100001,16=1,32=2,38=6/2;
 8/6=1,10=90,11=11/1,2;
 9/8=4,13=1/1,2;
 6/7=2,8=2,9=2,10=2,28=1/1;
 99/5=1,9=1/99;
 ----------------------------------------------------------------------
 hf stability analysis of h10 triangular lattice, y= 1.7234297938777567
  alpha= 79.000000000000000
 ----------------------------------------------------------------------
 Symbolic Z-Matrix:
 Charge =  0 Multiplicity = 1
 H
 H                    1     1.75569 
 H                    1     1.75569  2     22. 
 H                    2     1.75569  1     158.     3     0.       0
 H                    3     1.75569  1     180.     2     0.       0
 H                    4     1.75569  2     180.     1     0.       0
 H                    5     1.75569  3     180.     2     0.       0
 H                    6     1.75569  4     180.     1     0.       0
 H                    7     1.75569  5     180.     2     0.       0
 H                    8     1.75569  6     180.     1     0.       0
 
                          Input orientation:                          
 ---------------------------------------------------------------------
 Center     Atomic      Atomic             Coordinates (Angstroms)
 Number     Number       Type             X           Y           Z
 ---------------------------------------------------------------------
      1          1           0        0.000000    0.000000    0.000000
      2          1           0        0.000000    0.000000    1.755687
      3          1           0        0.657692    0.000000    1.627844
      4          1           0        0.657692    0.000000    3.383531
      5          1           0        1.315384    0.000000    3.255689
      6          1           0        1.315384    0.000000    5.011375
      7          1           0        1.973075    0.000000    4.883533
      8          1           0        1.973075    0.000000    6.639220
      9          1           0        2.630767    0.000000    6.511377
     10          1           0        2.630767    0.000000    8.267064
 ---------------------------------------------------------------------
                    Distance matrix (angstroms):
                    1          2          3          4          5
     1  H    0.000000
     2  H    1.755687   0.000000
     3  H    1.755687   0.670002   0.000000
     4  H    3.446860   1.755687   1.755687   0.000000
     5  H    3.511373   1.995054   1.755687   0.670002   0.000000
     6  H    5.181131   3.511373   3.446860   1.755687   1.755687
     7  H    5.267060   3.698168   3.511373   1.995054   1.755687
     8  H    6.926201   5.267060   5.181131   3.511373   3.446860
     9  H    7.022747   5.434844   5.267060   3.698168   3.511373
    10  H    8.675557   7.022747   6.926201   5.267060   5.181131
                    6          7          8          9         10
     6  H    0.000000
     7  H    0.670002   0.000000
     8  H    1.755687   1.755687   0.000000
     9  H    1.995054   1.755687   0.670002   0.000000
    10  H    3.511373   3.446860   1.755687   1.755687   0.000000
 Stoichiometry    H10
 Framework group  C2H[SGH(H10)]
 Deg. of freedom     9
 Full point group                 C2H     NOp   4
 Largest Abelian subgroup         C2H     NOp   4
 Largest concise Abelian subgroup C2      NOp   2
                         Standard orientation:                         
 ---------------------------------------------------------------------
 Center     Atomic      Atomic             Coordinates (Angstroms)
 Number     Number       Type             X           Y           Z
 ---------------------------------------------------------------------
      1          1           0        1.315384    4.133532    0.000000
      2          1           0        1.315384    2.377845    0.000000
      3          1           0        0.657692    2.505688    0.000000
      4          1           0        0.657692    0.750001    0.000000
      5          1           0        0.000000    0.877843    0.000000
      6          1           0        0.000000   -0.877843    0.000000
      7          1           0       -0.657692   -0.750001    0.000000
      8          1           0       -0.657692   -2.505688    0.000000
      9          1           0       -1.315384   -2.377845    0.000000
     10          1           0       -1.315384   -4.133532    0.000000
 ---------------------------------------------------------------------
 Rotational constants (GHZ):    514.3412384      7.3333744      7.2302865
 General basis read from cards:  (5D, 7F)
 There are     5 symmetry adapted cartesian basis functions of AG  symmetry.
 There are     0 symmetry adapted cartesian basis functions of BG  symmetry.
 There are     0 symmetry adapted cartesian basis functions of AU  symmetry.
 There are     5 symmetry adapted cartesian basis functions of BU  symmetry.
 There are     5 symmetry adapted basis functions of AG  symmetry.
 There are     0 symmetry adapted basis functions of BG  symmetry.
 There are     0 symmetry adapted basis functions of AU  symmetry.
 There are     5 symmetry adapted basis functions of BU  symmetry.
    10 basis functions,   100 primitive gaussians,    10 cartesian basis functions
     5 alpha electrons        5 beta electrons
       nuclear repulsion energy        10.8479500217 Hartrees.
 NAtoms=   10 NActive=   10 NUniq=    5 SFac= 4.00D+00 NAtFMM=   60 NAOKFM=F Big=F
 Integral buffers will be    131072 words long.
 Regular integral format.
 Two-electron integral symmetry is turned off.
 One-electron integrals computed using PRISM.
 NBasis=    10 RedAO= T EigKep=  1.55D-01  NBF=     5     0     0     5
 NBsUse=    10 1.00D-06 EigRej= -1.00D+00 NBFU=     5     0     0     5
 IOp(28)                       1
                        1                       0
                        2                       1
                        3                       1
                        4                      20
                        5                       0
                        6                       0
                        7                      10
                        8                       1
                        9                       4
                       10                       0
                       11              1073741824
                       12                      20
                       13                       2
                       14                  131070
                       15                       1
                       16                       1
                       17                  131073
                       18                       0
                       19                       0
                       20                       0
                       21                       2
                       22                  131070
                       23                       0
                       24                       0
                       25                       0
                       26                       0
                       27                   65535
                       28                       2
                       29                  131072
                       30                       0
 IHMeth                       1
 ib3: ISMode =                        0                       4
 Enter DskPsm, NBasis=  10 NBas6D=  10 NShell=  10 IDoSP=4.
 Out2e will use a cutoff of  1.00D-10
 FoFCou: FMM=F IPFlag=           0 FMFlag=           0 FMFlg1=           0
         NFxFlg=           0 DoJE=F BraDBF=F KetDBF=F FulRan=T
         wScrn=  0.000000 ICntrl=     600 IOpCl=  9 I1Cent=           0 NGrid=           0
         NMat0=    0 NMatS0=      0 NMatT0=    0 NMatD0=    0 NMtDS0=    0 NMtDT0=    0
 Symmetry not used in FoFCou.
 Entering PrmDigJobTyp =                      20
 LenSav and NKeep                       0                       0
 Entered Stor2E with KNTT1,2                       2                  131070
 Leave Stor2X
 Entering PrmDigJobTyp =                      20
 LenSav and NKeep                       0                       0
 Entered Stor2E with KNTT1,2                       2                  131056
 Leave Stor2X
 Entering PrmDigJobTyp =                      20
 LenSav and NKeep                       0                       0
 Entered Stor2E with KNTT1,2                       2                  131042
 Leave Stor2X
 Entering PrmDigJobTyp =                      20
 LenSav and NKeep                       0                       0
 Entered Stor2E with KNTT1,2                       2                  131028
 Leave Stor2X
 Entering PrmDigJobTyp =                      20
 LenSav and NKeep                       0                       0
 Entered Stor2E with KNTT1,2                       2                  131014
 Leave Stor2X
 Entering PrmDigJobTyp =                      20
 LenSav and NKeep                       0                       0
 Entered Stor2E with KNTT1,2                       2                  131000
 Leave Stor2X
 Entering PrmDigJobTyp =                      20
 LenSav and NKeep                       0                       0
 Entered Stor2E with KNTT1,2                       2                  130986
 Leave Stor2X
 Entering PrmDigJobTyp =                      20
 LenSav and NKeep                       0                       0
 Entered Stor2E with KNTT1,2                       2                  130972
 Leave Stor2X
 Entering PrmDigJobTyp =                      20
 LenSav and NKeep                       0                       0
 Entered Stor2E with KNTT1,2                       2                  130960
 Leave Stor2X
 Entering PrmDigJobTyp =                      20
 LenSav and NKeep                       0                       0
 Entered Stor2E with KNTT1,2                       2                  130944
 Leave Stor2X
 Entering PrmDigJobTyp =                      20
 LenSav and NKeep                       0                       0
 Entered Stor2E with KNTT1,2                       2                  130928
 Leave Stor2X
 Entering PrmDigJobTyp =                      20
 LenSav and NKeep                       0                       0
 Entered Stor2E with KNTT1,2                       2                  130912
 Leave Stor2X
 Entering PrmDigJobTyp =                      20
 LenSav and NKeep                       0                       0
 Entered Stor2E with KNTT1,2                       2                  130896
 Leave Stor2X
 Entering PrmDigJobTyp =                      20
 LenSav and NKeep                       0                       0
 Entered Stor2E with KNTT1,2                       2                  130880
 Leave Stor2X
 Entering PrmDigJobTyp =                      20
 LenSav and NKeep                       0                       0
 Entered Stor2E with KNTT1,2                       2                  130864
 Leave Stor2X
 Entering PrmDigJobTyp =                      20
 LenSav and NKeep                       0                       0
 Entered Stor2E with KNTT1,2                       2                  130848
 Leave Stor2X
 Entering PrmDigJobTyp =                      20
 LenSav and NKeep                       0                       0
 Entered Stor2E with KNTT1,2                       2                  130832
 Leave Stor2X
 Entering PrmDigJobTyp =                      20
 LenSav and NKeep                       0                       0
 Entered Stor2E with KNTT1,2                       2                  130816
 Leave Stor2X
 Entering PrmDigJobTyp =                      20
 LenSav and NKeep                       0                       0
 Entered Stor2E with KNTT1,2                       2                  130800
 Leave Stor2X
 Entering PrmDigJobTyp =                      20
 LenSav and NKeep                       0                       0
 Entered Stor2E with KNTT1,2                       2                  130784
 Leave Stor2X
 Entering PrmDigJobTyp =                      20
 LenSav and NKeep                       0                       0
 Entered Stor2E with KNTT1,2                       2                  130768
 Leave Stor2X
 Entering PrmDigJobTyp =                      20
 LenSav and NKeep                       0                       0
 Entered Stor2E with KNTT1,2                       2                  130752
 Leave Stor2X
 Entering PrmDigJobTyp =                      20
 LenSav and NKeep                       0                       0
 Entered Stor2E with KNTT1,2                       2                  130736
 Leave Stor2X
 Entering PrmDigJobTyp =                      20
 LenSav and NKeep                       0                       0
 Entered Stor2E with KNTT1,2                       2                  130720
 Leave Stor2X
 Entering PrmDigJobTyp =                      20
 LenSav and NKeep                       0                       0
 Entered Stor2E with KNTT1,2                       2                  130704
 Leave Stor2X
 Entering PrmDigJobTyp =                      20
 LenSav and NKeep                       0                       0
 Entered Stor2E with KNTT1,2                       2                  130688
 Leave Stor2X
 Entering PrmDigJobTyp =                      20
 LenSav and NKeep                       0                       0
 Entered Stor2E with KNTT1,2                       2                  130672
 Leave Stor2X
 Entering PrmDigJobTyp =                      20
 LenSav and NKeep                       0                       0
 Entered Stor2E with KNTT1,2                       2                  130656
 Leave Stor2X
 Entering PrmDigJobTyp =                      20
 LenSav and NKeep                       0                       0
 Entered Stor2E with KNTT1,2                       2                  130640
 Leave Stor2X
 Entering PrmDigJobTyp =                      20
 LenSav and NKeep                       0                       0
 Entered Stor2E with KNTT1,2                       8                  130620
 Leave Stor2X
 Entering PrmDigJobTyp =                      20
 LenSav and NKeep                       0                       0
 Entered Stor2E with KNTT1,2                      20                  130606
 Leave Stor2X
 Entering PrmDigJobTyp =                      20
 LenSav and NKeep                       0                       0
 Entered Stor2E with KNTT1,2                      34                  130594
 Leave Stor2X
 Entering PrmDigJobTyp =                      20
 LenSav and NKeep                       0                       0
 Entered Stor2E with KNTT1,2                      50                  130584
 Leave Stor2X
 Entering PrmDigJobTyp =                      20
 LenSav and NKeep                       0                       0
 Entered Stor2E with KNTT1,2                      66                  130574
 Leave Stor2X
 Entering PrmDigJobTyp =                      20
 LenSav and NKeep                       0                       0
 Entered Stor2E with KNTT1,2                      82                  130564
 Leave Stor2X
 Entering PrmDigJobTyp =                      20
 LenSav and NKeep                       0                       0
 Entered Stor2E with KNTT1,2                     100                  130556
 Leave Stor2X
 Entering PrmDigJobTyp =                      20
 LenSav and NKeep                       0                       0
 Entered Stor2E with KNTT1,2                     118                  130548
 Leave Stor2X
 Entering PrmDigJobTyp =                      20
 LenSav and NKeep                       0                       0
 Entered Stor2E with KNTT1,2                     138                  130542
 Leave Stor2X
 Entering PrmDigJobTyp =                      20
 LenSav and NKeep                       0                       0
 Entered Stor2E with KNTT1,2                     162                  130540
 Leave Stor2X
 Entering PrmDigJobTyp =                      20
 LenSav and NKeep                       0                       0
 Entered Stor2E with KNTT1,2                     166                  130532
 Leave Stor2X
 Entering PrmDigJobTyp =                      20
 LenSav and NKeep                       0                       0
 Entered Stor2E with KNTT1,2                     166                  130518
 Leave Stor2X
 Entering PrmDigJobTyp =                      20
 LenSav and NKeep                       0                       0
 Entered Stor2E with KNTT1,2                     166                  130504
 Leave Stor2X
 Entering PrmDigJobTyp =                      20
 LenSav and NKeep                       0                       0
 Entered Stor2E with KNTT1,2                     166                  130490
 Leave Stor2X
 Entering PrmDigJobTyp =                      20
 LenSav and NKeep                       0                       0
 Entered Stor2E with KNTT1,2                     166                  130476
 Leave Stor2X
 Entering PrmDigJobTyp =                      20
 LenSav and NKeep                       0                       0
 Entered Stor2E with KNTT1,2                     166                  130462
 Leave Stor2X
 Entering PrmDigJobTyp =                      20
 LenSav and NKeep                       0                       0
 Entered Stor2E with KNTT1,2                     166                  130452
 Leave Stor2X
 Entering PrmDigJobTyp =                      20
 LenSav and NKeep                       0                       0
 Entered Stor2E with KNTT1,2                     174                  130440
 Leave Stor2X
 Entering PrmDigJobTyp =                      20
 LenSav and NKeep                       0                       0
 Entered Stor2E with KNTT1,2                     190                  130436
 Leave Stor2X
 Entering PrmDigJobTyp =                      20
 LenSav and NKeep                       0                       0
 Entered Stor2E with KNTT1,2                     198                  130424
 Leave Stor2X
 Entering PrmDigJobTyp =                      20
 LenSav and NKeep                       0                       0
 Entered Stor2E with KNTT1,2                     214                  130420
 Leave Stor2X
 Entering PrmDigJobTyp =                      20
 LenSav and NKeep                       0                       0
 Entered Stor2E with KNTT1,2                     222                  130408
 Leave Stor2X
 Entering PrmDigJobTyp =                      20
 LenSav and NKeep                       0                       0
 Entered Stor2E with KNTT1,2                     238                  130404
 Leave Stor2X
 Entering PrmDigJobTyp =                      20
 LenSav and NKeep                       0                       0
 Entered Stor2E with KNTT1,2                     238                  130396
 Leave Stor2X
 Entering PrmDigJobTyp =                      20
 LenSav and NKeep                       0                       0
 Entered Stor2E with KNTT1,2                     248                  130390
 Leave Stor2X
 Entering PrmDigJobTyp =                      20
 LenSav and NKeep                       0                       0
 Entered Stor2E with KNTT1,2                     250                  130388
 Leave Stor2X
 Entering PrmDigJobTyp =                      20
 LenSav and NKeep                       0                       0
 Entered Stor2E with KNTT1,2                     250                  130366
 Leave Stor2X
 Entering PrmDigJobTyp =                      20
 LenSav and NKeep                       0                       0
 Entered Stor2E with KNTT1,2                     250                  130344
 Leave Stor2X
 Entering PrmDigJobTyp =                      20
 LenSav and NKeep                       0                       0
 Entered Stor2E with KNTT1,2                     250                  130322
 Leave Stor2X
 Entering PrmDigJobTyp =                      20
 LenSav and NKeep                       0                       0
 Entered Stor2E with KNTT1,2                     250                  130300
 Leave Stor2X
 Entering PrmDigJobTyp =                      20
 LenSav and NKeep                       0                       0
 Entered Stor2E with KNTT1,2                     250                  130278
 Leave Stor2X
 Entering PrmDigJobTyp =                      20
 LenSav and NKeep                       0                       0
 Entered Stor2E with KNTT1,2                     250                  130256
 Leave Stor2X
 Entering PrmDigJobTyp =                      20
 LenSav and NKeep                       0                       0
 Entered Stor2E with KNTT1,2                     250                  130234
 Leave Stor2X
 Entering PrmDigJobTyp =                      20
 LenSav and NKeep                       0                       0
 Entered Stor2E with KNTT1,2                     250                  130212
 Leave Stor2X
 Entering PrmDigJobTyp =                      20
 LenSav and NKeep                       0                       0
 Entered Stor2E with KNTT1,2                     250                  130190
 Leave Stor2X
 Entering PrmDigJobTyp =                      20
 LenSav and NKeep                       0                       0
 Entered Stor2E with KNTT1,2                     250                  130168
 Leave Stor2X
 Entering PrmDigJobTyp =                      20
 LenSav and NKeep                       0                       0
 Entered Stor2E with KNTT1,2                     250                  130148
 Leave Stor2X
 Entering PrmDigJobTyp =                      20
 LenSav and NKeep                       0                       0
 Entered Stor2E with KNTT1,2                     270                  130134
 Leave Stor2X
 Entering PrmDigJobTyp =                      20
 LenSav and NKeep                       0                       0
 Entered Stor2E with KNTT1,2                     292                  130122
 Leave Stor2X
 Entering PrmDigJobTyp =                      20
 LenSav and NKeep                       0                       0
 Entered Stor2E with KNTT1,2                     312                  130108
 Leave Stor2X
 Entering PrmDigJobTyp =                      20
 LenSav and NKeep                       0                       0
 Entered Stor2E with KNTT1,2                     330                  130092
 Leave Stor2X
 Entering PrmDigJobTyp =                      20
 LenSav and NKeep                       0                       0
 Entered Stor2E with KNTT1,2                     350                  130078
 Leave Stor2X
 Entering PrmDigJobTyp =                      20
 LenSav and NKeep                       0                       0
 Entered Stor2E with KNTT1,2                     370                  130064
 Leave Stor2X
 Entering PrmDigJobTyp =                      20
 LenSav and NKeep                       0                       0
 Entered Stor2E with KNTT1,2                     390                  130050
 Leave Stor2X
 Entering PrmDigJobTyp =                      20
 LenSav and NKeep                       0                       0
 Entered Stor2E with KNTT1,2                     408                  130034
 Leave Stor2X
 Entering PrmDigJobTyp =                      20
 LenSav and NKeep                       0                       0
 Entered Stor2E with KNTT1,2                     428                  130020
 Leave Stor2X
 Entering PrmDigJobTyp =                      20
 LenSav and NKeep                       0                       0
 Entered Stor2E with KNTT1,2                     450                  130008
 Leave Stor2X
 Entering PrmDigJobTyp =                      20
 LenSav and NKeep                       0                       0
 Entered Stor2E with KNTT1,2                     472                  129996
 Leave Stor2X
 Entering PrmDigJobTyp =                      20
 LenSav and NKeep                       0                       0
 Entered Stor2E with KNTT1,2                     474                  129988
 Leave Stor2X
 Entering PrmDigJobTyp =                      20
 LenSav and NKeep                       0                       0
 Entered Stor2E with KNTT1,2                     490                  129978
 Leave Stor2X
 Entering PrmDigJobTyp =                      20
 LenSav and NKeep                       0                       0
 Entered Stor2E with KNTT1,2                     504                  129966
 Leave Stor2X
 Entering PrmDigJobTyp =                      20
 LenSav and NKeep                       0                       0
 Entered Stor2E with KNTT1,2                     518                  129954
 Leave Stor2X
 Entering PrmDigJobTyp =                      20
 LenSav and NKeep                       0                       0
 Entered Stor2E with KNTT1,2                     530                  129948
 Leave Stor2X
 Entering PrmDigJobTyp =                      20
 LenSav and NKeep                       0                       0
 Entered Stor2E with KNTT1,2                     550                  129926
 Leave Stor2X
 Entering PrmDigJobTyp =                      20
 LenSav and NKeep                       0                       0
 Entered Stor2E with KNTT1,2                     580                  129914
 Leave Stor2X
 Entering PrmDigJobTyp =                      20
 LenSav and NKeep                       0                       0
 Entered Stor2E with KNTT1,2                     606                  129898
 Leave Stor2X
 Entering PrmDigJobTyp =                      20
 LenSav and NKeep                       0                       0
 Entered Stor2E with KNTT1,2                     626                  129888
 Leave Stor2X
 Entering PrmDigJobTyp =                      20
 LenSav and NKeep                       0                       0
 Entered Stor2E with KNTT1,2                     626                  129860
 Leave Stor2X
 Entering PrmDigJobTyp =                      20
 LenSav and NKeep                       0                       0
 Entered Stor2E with KNTT1,2                     626                  129832
 Leave Stor2X
 Entering PrmDigJobTyp =                      20
 LenSav and NKeep                       0                       0
 Entered Stor2E with KNTT1,2                     626                  129804
 Leave Stor2X
 Entering PrmDigJobTyp =                      20
 LenSav and NKeep                       0                       0
 Entered Stor2E with KNTT1,2                     626                  129776
 Leave Stor2X
 Entering PrmDigJobTyp =                      20
 LenSav and NKeep                       0                       0
 Entered Stor2E with KNTT1,2                     626                  129748
 Leave Stor2X
 Entering PrmDigJobTyp =                      20
 LenSav and NKeep                       0                       0
 Entered Stor2E with KNTT1,2                     626                  129728
 Leave Stor2X
 Entering PrmDigJobTyp =                      20
 LenSav and NKeep                       0                       0
 Entered Stor2E with KNTT1,2                     654                  129712
 Leave Stor2X
 Entering PrmDigJobTyp =                      20
 LenSav and NKeep                       0                       0
 Entered Stor2E with KNTT1,2                     680                  129694
 Leave Stor2X
 Entering PrmDigJobTyp =                      20
 LenSav and NKeep                       0                       0
 Entered Stor2E with KNTT1,2                     708                  129678
 Leave Stor2X
 Entering PrmDigJobTyp =                      20
 LenSav and NKeep                       0                       0
 Entered Stor2E with KNTT1,2                     736                  129662
 Leave Stor2X
 Entering PrmDigJobTyp =                      20
 LenSav and NKeep                       0                       0
 Entered Stor2E with KNTT1,2                     766                  129648
 Leave Stor2X
 Entering PrmDigJobTyp =                      20
 LenSav and NKeep                       0                       0
 Entered Stor2E with KNTT1,2                     786                  129632
 Leave Stor2X
 Entering PrmDigJobTyp =                      20
 LenSav and NKeep                       0                       0
 Entered Stor2E with KNTT1,2                     806                  129618
 Leave Stor2X
 Entering PrmDigJobTyp =                      20
 LenSav and NKeep                       0                       0
 Entered Stor2E with KNTT1,2                     826                  129608
 Leave Stor2X
 Entering PrmDigJobTyp =                      20
 LenSav and NKeep                       0                       0
 Entered Stor2E with KNTT1,2                     860                  129586
 Leave Stor2X
 Entering PrmDigJobTyp =                      20
 LenSav and NKeep                       0                       0
 Entered Stor2E with KNTT1,2                     898                  129568
 Leave Stor2X
 Entering PrmDigJobTyp =                      20
 LenSav and NKeep                       0                       0
 Entered Stor2E with KNTT1,2                     932                  129546
 Leave Stor2X
 Entering PrmDigJobTyp =                      20
 LenSav and NKeep                       0                       0
 Entered Stor2E with KNTT1,2                     946                  129536
 Leave Stor2X
 Entering PrmDigJobTyp =                      20
 LenSav and NKeep                       0                       0
 Entered Stor2E with KNTT1,2                     990                  129508
 Leave Stor2X
 Entering PrmDigJobTyp =                      20
 LenSav and NKeep                       0                       0
 Entered Stor2E with KNTT1,2                     990                  129478
 Leave Stor2X
 Entering PrmDigJobTyp =                      20
 LenSav and NKeep                       0                       0
 Entered Stor2E with KNTT1,2                     990                  129448
 Leave Stor2X
 Entering PrmDigJobTyp =                      20
 LenSav and NKeep                       0                       0
 Entered Stor2E with KNTT1,2                     990                  129428
 Leave Stor2X
 Entering PrmDigJobTyp =                      20
 LenSav and NKeep                       0                       0
 Entered Stor2E with KNTT1,2                    1024                  129414
 Leave Stor2X
 Entering PrmDigJobTyp =                      20
 LenSav and NKeep                       0                       0
 Entered Stor2E with KNTT1,2                    1056                  129398
 Leave Stor2X
 Entering PrmDigJobTyp =                      20
 LenSav and NKeep                       0                       0
 Entered Stor2E with KNTT1,2                    1078                  129388
 Leave Stor2X
 Entering PrmDigJobTyp =                      20
 LenSav and NKeep                       0                       0
 Entered Stor2E with KNTT1,2                    1102                  129380
 Leave Stor2X
 Entering PrmDigJobTyp =                      20
 LenSav and NKeep                       0                       0
 Entered Stor2E with KNTT1,2                    1142                  129360
 Leave Stor2X
 Entering PrmDigJobTyp =                      20
 LenSav and NKeep                       0                       0
 Entered Stor2E with KNTT1,2                    1166                  129348
 Leave Stor2X
 Entering PrmDigJobTyp =                      20
 LenSav and NKeep                       0                       0
 Entered Stor2E with KNTT1,2                    1198                  129316
 Leave Stor2X
 Entering PrmDigJobTyp =                      20
 LenSav and NKeep                       0                       0
 Entered Stor2E with KNTT1,2                    1206                  129304
 Leave Stor2X
 Entering PrmDigJobTyp =                      20
 LenSav and NKeep                       0                       0
 Entered Stor2E with KNTT1,2                    1206                  129284
 Leave Stor2X
 Entering PrmDigJobTyp =                      20
 LenSav and NKeep                       0                       0
 Entered Stor2E with KNTT1,2                    1230                  129276
 Leave Stor2X
 Entering PrmDigJobTyp =                      20
 LenSav and NKeep                       0                       0
 Entered Stor2E with KNTT1,2                    1238                  129276
 Leave Stor2X
 Entering PrmDigJobTyp =                      20
 LenSav and NKeep                       0                       0
 Entered Stor2E with KNTT1,2                    1254                  129268
 Leave Stor2X
 Entering PrmDigJobTyp =                      20
 LenSav and NKeep                       0                       0
 Entered Stor2E with KNTT1,2                    1262                  129262
 Leave Stor2X
 Entering PrmDigJobTyp =                      20
 LenSav and NKeep                       0                       0
 Entered Stor2E with KNTT1,2                    1262                  129260
 Leave Stor2X
 Entering PrmDigJobTyp =                      20
 LenSav and NKeep                       0                       0
 Entered Stor2E with KNTT1,2                    1262                  129260
 Leave Stor2X
 In PrSumR
 Called IWRITE
         1535 integrals produced for a total of         1535.
 Initial guess from the checkpoint file:  "h10.chk"
 B after Tr=     0.000000    0.000000    0.000000
         Rot=    0.991618    0.000000    0.000000   -0.129205 Ang= -14.85 deg.
 Mixing orbitals, IMix= 1 IMixAn=  0 NRI=2 NE=   10 Coef=  7.07106781D-01  7.07106781D-01
 Also mixing orbitals    10 and    12 Coef=  7.07106781D-01  7.07106781D-01
 Initial guess <Sx>= 0.0000 <Sy>= 0.0000 <Sz>= 0.0000 <S**2>= 0.5000 S= 0.3660
 Two-electron integrals will be kept in memory, NGetB=      152788.
 Requested convergence on RMS density matrix=1.00D-08 within 128 cycles.
 Requested convergence on MAX density matrix=1.00D-06.
 Requested convergence on             energy=1.00D-06.
 No special actions if energy rises.
 Density File Not Found. Continue as usual
 SCF Done:  E(GHF) =  -5.19762350876     A.U. after   15 cycles
            NFock= 15  Conv=0.91D-09     -V/T= 2.0348
 <Sx>= 0.0000 <Sy>= 0.0000 <Sz>= 0.0000 <S**2>= 1.0000 S= 0.6180
 <L.S>= 0.000000000000E+00
 Range of M.O.s used for correlation:     1    10
 NBasis=    10 NAE=    10 NBE=     0 NFC=     0 NFV=     0
 NROrb=     20 NOA=    10 NOB=     0 NVA=    10 NVB=     0
 jaja DoHack is true or false? T
 jaja in hckghf.F, NBasis=                      10
 jaja in hckGHF/FixOG, LC =                      800
 jaja in hckGHF/FixOG, IRwC=                      548
 bfr conversion (real):
                 1             2             3             4             5 
      1a -0.531822D-02  0.000000D+00  0.752323D-02  0.000000D+00 -0.952836D-03
      1b  0.000000D+00  0.479759D-01  0.000000D+00  0.106027D+00  0.000000D+00
      2a  0.125154D+00  0.000000D+00 -0.261321D+00  0.000000D+00  0.354135D+00
      2b  0.000000D+00  0.193099D+00  0.000000D+00  0.301959D+00  0.000000D+00
      3a  0.130447D+00  0.000000D+00 -0.270188D+00  0.000000D+00  0.358276D+00
      3b  0.000000D+00  0.198876D+00  0.000000D+00  0.308206D+00  0.000000D+00
      4a  0.238136D+00  0.000000D+00 -0.234053D+00  0.000000D+00 -0.134107D+00
      4b  0.000000D+00  0.264914D+00  0.000000D+00  0.115211D+00  0.000000D+00
      5a  0.238279D+00  0.000000D+00 -0.228835D+00  0.000000D+00 -0.146357D+00
      5b  0.000000D+00  0.265202D+00  0.000000D+00  0.108308D+00  0.000000D+00
      6a  0.265202D+00  0.000000D+00  0.108308D+00  0.000000D+00 -0.298510D+00
      6b  0.000000D+00  0.238279D+00  0.000000D+00 -0.228835D+00  0.000000D+00
      7a  0.264914D+00  0.000000D+00  0.115211D+00  0.000000D+00 -0.288960D+00
      7b  0.000000D+00  0.238136D+00  0.000000D+00 -0.234053D+00  0.000000D+00
      8a  0.198876D+00  0.000000D+00  0.308206D+00  0.000000D+00  0.291704D+00
      8b  0.000000D+00  0.130447D+00  0.000000D+00 -0.270188D+00  0.000000D+00
      9a  0.193099D+00  0.000000D+00  0.301959D+00  0.000000D+00  0.293679D+00
      9b  0.000000D+00  0.125154D+00  0.000000D+00 -0.261321D+00  0.000000D+00
     10a  0.479759D-01  0.000000D+00  0.106027D+00  0.000000D+00  0.194331D+00
     10b  0.000000D+00 -0.531822D-02  0.000000D+00  0.752323D-02  0.000000D+00
                 6             7             8             9            10 
      1a  0.000000D+00 -0.111367D-01  0.000000D+00  0.000000D+00  0.408678D-02
      1b  0.194331D+00  0.196306D-05  0.280456D+00  0.989569D+00  0.000000D+00
      2a  0.000000D+00 -0.311043D+00  0.217715D-05  0.000000D+00  0.428240D-01
      2b  0.293679D+00  0.000000D+00  0.133542D+00 -0.334420D+00  0.000000D+00
      3a  0.000000D+00 -0.301429D+00  0.210986D-05  0.000000D+00  0.384044D-01
      3b  0.291704D+00  0.000000D+00  0.122703D+00 -0.326678D+00  0.000000D+00
      4a  0.000000D+00  0.451952D+00 -0.316344D-05  0.000000D+00 -0.994903D-01
      4b -0.288960D+00 -0.266650D-05 -0.380955D+00  0.175062D+00  0.000000D+00
      5a  0.000000D+00  0.448024D+00 -0.313595D-05  0.000000D+00 -0.917973D-01
      5b -0.298510D+00 -0.259704D-05 -0.371032D+00  0.190327D+00  0.000000D+00
      6a  0.000000D+00 -0.371032D+00  0.259704D-05  0.000000D+00  0.190327D+00
      6b -0.146357D+00  0.313595D-05  0.448024D+00 -0.917973D-01  0.000000D+00
      7a  0.000000D+00 -0.380955D+00  0.266650D-05  0.000000D+00  0.175062D+00
      7b -0.134107D+00  0.316344D-05  0.451952D+00 -0.994903D-01  0.000000D+00
      8a  0.000000D+00  0.122703D+00  0.000000D+00  0.000000D+00 -0.326678D+00
      8b  0.358276D+00 -0.210986D-05 -0.301429D+00  0.384044D-01  0.000000D+00
      9a  0.000000D+00  0.133542D+00  0.000000D+00  0.000000D+00 -0.334420D+00
      9b  0.354135D+00 -0.217715D-05 -0.311043D+00  0.428240D-01  0.000000D+00
     10a  0.000000D+00  0.280456D+00 -0.196306D-05  0.000000D+00  0.989569D+00
     10b -0.952836D-03  0.000000D+00 -0.111367D-01  0.408678D-02  0.000000D+00
                11            12            13            14            15 
      1a  0.000000D+00  0.105219D+01  0.345444D-01  0.000000D+00 -0.249946D-01
      1b -0.182021D-02  0.000000D+00  0.000000D+00 -0.119746D-01  0.000000D+00
      2a  0.000000D+00 -0.199983D+00  0.487488D+00 -0.128222D-05 -0.874969D+00
      2b  0.734299D-02  0.000000D+00 -0.137510D-05 -0.522800D+00 -0.674832D-04
      3a  0.000000D+00 -0.164842D+00 -0.533905D+00  0.140431D-05  0.920815D+00
      3b -0.410341D-03  0.000000D+00  0.148292D-05  0.563792D+00  0.705733D-04
      4a  0.000000D+00  0.599541D-02  0.799244D+00 -0.210222D-05 -0.576891D+00
      4b -0.119164D-01  0.000000D+00 -0.214131D-05 -0.814109D+00 -0.402096D-04
      5a  0.000000D+00  0.905063D-01 -0.803210D+00  0.211265D-05  0.518568D+00
      5b -0.150753D-01  0.000000D+00  0.214860D-05  0.816880D+00  0.356116D-04
      6a  0.000000D+00 -0.150753D-01  0.816880D+00 -0.214860D-05  0.470358D+00
      6b  0.905063D-01  0.000000D+00 -0.211265D-05 -0.803210D+00  0.392617D-04
      7a  0.000000D+00 -0.119164D-01 -0.814109D+00  0.214131D-05 -0.531088D+00
      7b  0.599541D-02  0.000000D+00  0.210222D-05  0.799244D+00 -0.436774D-04
      8a  0.000000D+00 -0.410341D-03  0.563792D+00 -0.148292D-05  0.932131D+00
      8b -0.164842D+00  0.000000D+00 -0.140431D-05 -0.533905D+00  0.697165D-04
      9a  0.000000D+00  0.734299D-02 -0.522800D+00  0.137510D-05 -0.891317D+00
      9b -0.199983D+00  0.000000D+00  0.128222D-05  0.487488D+00 -0.662454D-04
     10a  0.000000D+00 -0.182021D-02 -0.119746D-01  0.000000D+00 -0.109773D-01
     10b  0.105219D+01  0.000000D+00  0.000000D+00  0.345444D-01 -0.189239D-05
                16            17            18            19            20 
      1a  0.189239D-05 -0.435358D-02  0.000000D+00  0.000000D+00  0.220008D-01
      1b -0.109773D-01  0.000000D+00  0.258031D-02  0.132705D-01  0.000000D+00
      2a  0.662454D-04  0.983872D+00  0.137169D-04  0.000000D+00 -0.678972D+00
      2b -0.891317D+00  0.135306D-04 -0.970504D+00 -0.652747D+00  0.000000D+00
      3a -0.697165D-04 -0.977762D+00 -0.136317D-04  0.000000D+00  0.623519D+00
      3b  0.932131D+00 -0.134258D-04  0.962988D+00  0.600126D+00  0.000000D+00
      4a  0.436774D-04 -0.566997D+00 -0.790495D-05  0.118415D-05  0.111474D+01
      4b -0.531088D+00 -0.851811D-05  0.610977D+00  0.110381D+01 -0.117254D-05
      5a -0.392617D-04  0.654421D+00  0.912380D-05 -0.115859D-05 -0.109068D+01
      5b  0.470358D+00  0.970115D-05 -0.695833D+00 -0.107788D+01  0.114499D-05
      6a -0.356116D-04 -0.695833D+00 -0.970115D-05 -0.114499D-05 -0.107788D+01
      6b  0.518568D+00 -0.912380D-05  0.654421D+00 -0.109068D+01  0.115859D-05
      7a  0.402096D-04  0.610977D+00  0.851811D-05  0.117254D-05  0.110381D+01
      7b -0.576891D+00  0.790495D-05 -0.566997D+00  0.111474D+01 -0.118415D-05
      8a -0.705733D-04  0.962988D+00  0.134258D-04  0.000000D+00  0.600126D+00
      8b  0.920815D+00  0.136317D-04 -0.977762D+00  0.623519D+00  0.000000D+00
      9a  0.674832D-04 -0.970504D+00 -0.135306D-04  0.000000D+00 -0.652747D+00
      9b -0.874969D+00 -0.137169D-04  0.983872D+00 -0.678972D+00  0.000000D+00
     10a  0.000000D+00  0.258031D-02  0.000000D+00  0.000000D+00  0.132705D-01
     10b -0.249946D-01  0.000000D+00 -0.435358D-02  0.220008D-01  0.000000D+00
 bfr conversion (imaginary):
                 1             2             3             4             5 
      1a  0.000000D+00  0.000000D+00  0.000000D+00  0.000000D+00  0.000000D+00
      1b  0.000000D+00  0.000000D+00  0.000000D+00  0.000000D+00  0.000000D+00
      2a  0.000000D+00  0.000000D+00  0.000000D+00  0.000000D+00  0.000000D+00
      2b  0.000000D+00  0.000000D+00  0.000000D+00  0.000000D+00  0.000000D+00
      3a  0.000000D+00  0.000000D+00  0.000000D+00  0.000000D+00  0.000000D+00
      3b  0.000000D+00  0.000000D+00  0.000000D+00  0.000000D+00  0.000000D+00
      4a  0.000000D+00  0.000000D+00  0.000000D+00  0.000000D+00  0.000000D+00
      4b  0.000000D+00  0.000000D+00  0.000000D+00  0.000000D+00  0.000000D+00
      5a  0.000000D+00  0.000000D+00  0.000000D+00  0.000000D+00  0.000000D+00
      5b  0.000000D+00  0.000000D+00  0.000000D+00  0.000000D+00  0.000000D+00
      6a  0.000000D+00  0.000000D+00  0.000000D+00  0.000000D+00  0.000000D+00
      6b  0.000000D+00  0.000000D+00  0.000000D+00  0.000000D+00  0.000000D+00
      7a  0.000000D+00  0.000000D+00  0.000000D+00  0.000000D+00  0.000000D+00
      7b  0.000000D+00  0.000000D+00  0.000000D+00  0.000000D+00  0.000000D+00
      8a  0.000000D+00  0.000000D+00  0.000000D+00  0.000000D+00  0.000000D+00
      8b  0.000000D+00  0.000000D+00  0.000000D+00  0.000000D+00  0.000000D+00
      9a  0.000000D+00  0.000000D+00  0.000000D+00  0.000000D+00  0.000000D+00
      9b  0.000000D+00  0.000000D+00  0.000000D+00  0.000000D+00  0.000000D+00
     10a  0.000000D+00  0.000000D+00  0.000000D+00  0.000000D+00  0.000000D+00
     10b  0.000000D+00  0.000000D+00  0.000000D+00  0.000000D+00  0.000000D+00
                 6             7             8             9            10 
      1a  0.000000D+00  0.000000D+00  0.000000D+00  0.000000D+00  0.000000D+00
      1b  0.000000D+00  0.000000D+00  0.000000D+00  0.000000D+00  0.000000D+00
      2a  0.000000D+00  0.000000D+00  0.000000D+00  0.000000D+00  0.000000D+00
      2b  0.000000D+00  0.000000D+00  0.000000D+00  0.000000D+00  0.000000D+00
      3a  0.000000D+00  0.000000D+00  0.000000D+00  0.000000D+00  0.000000D+00
      3b  0.000000D+00  0.000000D+00  0.000000D+00  0.000000D+00  0.000000D+00
      4a  0.000000D+00  0.000000D+00  0.000000D+00  0.000000D+00  0.000000D+00
      4b  0.000000D+00  0.000000D+00  0.000000D+00  0.000000D+00  0.000000D+00
      5a  0.000000D+00  0.000000D+00  0.000000D+00  0.000000D+00  0.000000D+00
      5b  0.000000D+00  0.000000D+00  0.000000D+00  0.000000D+00  0.000000D+00
      6a  0.000000D+00  0.000000D+00  0.000000D+00  0.000000D+00  0.000000D+00
      6b  0.000000D+00  0.000000D+00  0.000000D+00  0.000000D+00  0.000000D+00
      7a  0.000000D+00  0.000000D+00  0.000000D+00  0.000000D+00  0.000000D+00
      7b  0.000000D+00  0.000000D+00  0.000000D+00  0.000000D+00  0.000000D+00
      8a  0.000000D+00  0.000000D+00  0.000000D+00  0.000000D+00  0.000000D+00
      8b  0.000000D+00  0.000000D+00  0.000000D+00  0.000000D+00  0.000000D+00
      9a  0.000000D+00  0.000000D+00  0.000000D+00  0.000000D+00  0.000000D+00
      9b  0.000000D+00  0.000000D+00  0.000000D+00  0.000000D+00  0.000000D+00
     10a  0.000000D+00  0.000000D+00  0.000000D+00  0.000000D+00  0.000000D+00
     10b  0.000000D+00  0.000000D+00  0.000000D+00  0.000000D+00  0.000000D+00
                11            12            13            14            15 
      1a  0.000000D+00  0.000000D+00  0.000000D+00  0.000000D+00  0.000000D+00
      1b  0.000000D+00  0.000000D+00  0.000000D+00  0.000000D+00  0.000000D+00
      2a  0.000000D+00  0.000000D+00  0.000000D+00  0.000000D+00  0.000000D+00
      2b  0.000000D+00  0.000000D+00  0.000000D+00  0.000000D+00  0.000000D+00
      3a  0.000000D+00  0.000000D+00  0.000000D+00  0.000000D+00  0.000000D+00
      3b  0.000000D+00  0.000000D+00  0.000000D+00  0.000000D+00  0.000000D+00
      4a  0.000000D+00  0.000000D+00  0.000000D+00  0.000000D+00  0.000000D+00
      4b  0.000000D+00  0.000000D+00  0.000000D+00  0.000000D+00  0.000000D+00
      5a  0.000000D+00  0.000000D+00  0.000000D+00  0.000000D+00  0.000000D+00
      5b  0.000000D+00  0.000000D+00  0.000000D+00  0.000000D+00  0.000000D+00
      6a  0.000000D+00  0.000000D+00  0.000000D+00  0.000000D+00  0.000000D+00
      6b  0.000000D+00  0.000000D+00  0.000000D+00  0.000000D+00  0.000000D+00
      7a  0.000000D+00  0.000000D+00  0.000000D+00  0.000000D+00  0.000000D+00
      7b  0.000000D+00  0.000000D+00  0.000000D+00  0.000000D+00  0.000000D+00
      8a  0.000000D+00  0.000000D+00  0.000000D+00  0.000000D+00  0.000000D+00
      8b  0.000000D+00  0.000000D+00  0.000000D+00  0.000000D+00  0.000000D+00
      9a  0.000000D+00  0.000000D+00  0.000000D+00  0.000000D+00  0.000000D+00
      9b  0.000000D+00  0.000000D+00  0.000000D+00  0.000000D+00  0.000000D+00
     10a  0.000000D+00  0.000000D+00  0.000000D+00  0.000000D+00  0.000000D+00
     10b  0.000000D+00  0.000000D+00  0.000000D+00  0.000000D+00  0.000000D+00
                16            17            18            19            20 
      1a  0.000000D+00  0.000000D+00  0.000000D+00  0.000000D+00  0.000000D+00
      1b  0.000000D+00  0.000000D+00  0.000000D+00  0.000000D+00  0.000000D+00
      2a  0.000000D+00  0.000000D+00  0.000000D+00  0.000000D+00  0.000000D+00
      2b  0.000000D+00  0.000000D+00  0.000000D+00  0.000000D+00  0.000000D+00
      3a  0.000000D+00  0.000000D+00  0.000000D+00  0.000000D+00  0.000000D+00
      3b  0.000000D+00  0.000000D+00  0.000000D+00  0.000000D+00  0.000000D+00
      4a  0.000000D+00  0.000000D+00  0.000000D+00  0.000000D+00  0.000000D+00
      4b  0.000000D+00  0.000000D+00  0.000000D+00  0.000000D+00  0.000000D+00
      5a  0.000000D+00  0.000000D+00  0.000000D+00  0.000000D+00  0.000000D+00
      5b  0.000000D+00  0.000000D+00  0.000000D+00  0.000000D+00  0.000000D+00
      6a  0.000000D+00  0.000000D+00  0.000000D+00  0.000000D+00  0.000000D+00
      6b  0.000000D+00  0.000000D+00  0.000000D+00  0.000000D+00  0.000000D+00
      7a  0.000000D+00  0.000000D+00  0.000000D+00  0.000000D+00  0.000000D+00
      7b  0.000000D+00  0.000000D+00  0.000000D+00  0.000000D+00  0.000000D+00
      8a  0.000000D+00  0.000000D+00  0.000000D+00  0.000000D+00  0.000000D+00
      8b  0.000000D+00  0.000000D+00  0.000000D+00  0.000000D+00  0.000000D+00
      9a  0.000000D+00  0.000000D+00  0.000000D+00  0.000000D+00  0.000000D+00
      9b  0.000000D+00  0.000000D+00  0.000000D+00  0.000000D+00  0.000000D+00
     10a  0.000000D+00  0.000000D+00  0.000000D+00  0.000000D+00  0.000000D+00
     10b  0.000000D+00  0.000000D+00  0.000000D+00  0.000000D+00  0.000000D+00
 afr conversion (alpha, real):
                 1             2             3             4             5 
      1  -0.531822D-02  0.000000D+00  0.752323D-02  0.000000D+00 -0.952836D-03
      2   0.125154D+00  0.000000D+00 -0.261321D+00  0.000000D+00  0.354135D+00
      3   0.130447D+00  0.000000D+00 -0.270188D+00  0.000000D+00  0.358276D+00
      4   0.238136D+00  0.000000D+00 -0.234053D+00  0.000000D+00 -0.134107D+00
      5   0.238279D+00  0.000000D+00 -0.228835D+00  0.000000D+00 -0.146357D+00
      6   0.265202D+00  0.000000D+00  0.108308D+00  0.000000D+00 -0.298510D+00
      7   0.264914D+00  0.000000D+00  0.115211D+00  0.000000D+00 -0.288960D+00
      8   0.198876D+00  0.000000D+00  0.308206D+00  0.000000D+00  0.291704D+00
      9   0.193099D+00  0.000000D+00  0.301959D+00  0.000000D+00  0.293679D+00
     10   0.479759D-01  0.000000D+00  0.106027D+00  0.000000D+00  0.194331D+00
                 6             7             8             9            10 
      1   0.000000D+00 -0.111367D-01  0.000000D+00  0.000000D+00  0.408678D-02
      2   0.000000D+00 -0.311043D+00  0.217715D-05  0.000000D+00  0.428240D-01
      3   0.000000D+00 -0.301429D+00  0.210986D-05  0.000000D+00  0.384044D-01
      4   0.000000D+00  0.451952D+00 -0.316344D-05  0.000000D+00 -0.994903D-01
      5   0.000000D+00  0.448024D+00 -0.313595D-05  0.000000D+00 -0.917973D-01
      6   0.000000D+00 -0.371032D+00  0.259704D-05  0.000000D+00  0.190327D+00
      7   0.000000D+00 -0.380955D+00  0.266650D-05  0.000000D+00  0.175062D+00
      8   0.000000D+00  0.122703D+00  0.000000D+00  0.000000D+00 -0.326678D+00
      9   0.000000D+00  0.133542D+00  0.000000D+00  0.000000D+00 -0.334420D+00
     10   0.000000D+00  0.280456D+00 -0.196306D-05  0.000000D+00  0.989569D+00
                11            12            13            14            15 
      1   0.000000D+00  0.105219D+01  0.345444D-01  0.000000D+00 -0.249946D-01
      2   0.000000D+00 -0.199983D+00  0.487488D+00 -0.128222D-05 -0.874969D+00
      3   0.000000D+00 -0.164842D+00 -0.533905D+00  0.140431D-05  0.920815D+00
      4   0.000000D+00  0.599541D-02  0.799244D+00 -0.210222D-05 -0.576891D+00
      5   0.000000D+00  0.905063D-01 -0.803210D+00  0.211265D-05  0.518568D+00
      6   0.000000D+00 -0.150753D-01  0.816880D+00 -0.214860D-05  0.470358D+00
      7   0.000000D+00 -0.119164D-01 -0.814109D+00  0.214131D-05 -0.531088D+00
      8   0.000000D+00 -0.410341D-03  0.563792D+00 -0.148292D-05  0.932131D+00
      9   0.000000D+00  0.734299D-02 -0.522800D+00  0.137510D-05 -0.891317D+00
     10   0.000000D+00 -0.182021D-02 -0.119746D-01  0.000000D+00 -0.109773D-01
                16            17            18            19            20 
      1   0.189239D-05 -0.435358D-02  0.000000D+00  0.000000D+00  0.220008D-01
      2   0.662454D-04  0.983872D+00  0.137169D-04  0.000000D+00 -0.678972D+00
      3  -0.697165D-04 -0.977762D+00 -0.136317D-04  0.000000D+00  0.623519D+00
      4   0.436774D-04 -0.566997D+00 -0.790495D-05  0.118415D-05  0.111474D+01
      5  -0.392617D-04  0.654421D+00  0.912380D-05 -0.115859D-05 -0.109068D+01
      6  -0.356116D-04 -0.695833D+00 -0.970115D-05 -0.114499D-05 -0.107788D+01
      7   0.402096D-04  0.610977D+00  0.851811D-05  0.117254D-05  0.110381D+01
      8  -0.705733D-04  0.962988D+00  0.134258D-04  0.000000D+00  0.600126D+00
      9   0.674832D-04 -0.970504D+00 -0.135306D-04  0.000000D+00 -0.652747D+00
     10   0.000000D+00  0.258031D-02  0.000000D+00  0.000000D+00  0.132705D-01
 afr conversion (alpha, imaginary):
                 1             2             3             4             5 
      1   0.000000D+00  0.000000D+00  0.000000D+00  0.000000D+00  0.000000D+00
      2   0.000000D+00  0.000000D+00  0.000000D+00  0.000000D+00  0.000000D+00
      3   0.000000D+00  0.000000D+00  0.000000D+00  0.000000D+00  0.000000D+00
      4   0.000000D+00  0.000000D+00  0.000000D+00  0.000000D+00  0.000000D+00
      5   0.000000D+00  0.000000D+00  0.000000D+00  0.000000D+00  0.000000D+00
      6   0.000000D+00  0.000000D+00  0.000000D+00  0.000000D+00  0.000000D+00
      7   0.000000D+00  0.000000D+00  0.000000D+00  0.000000D+00  0.000000D+00
      8   0.000000D+00  0.000000D+00  0.000000D+00  0.000000D+00  0.000000D+00
      9   0.000000D+00  0.000000D+00  0.000000D+00  0.000000D+00  0.000000D+00
     10   0.000000D+00  0.000000D+00  0.000000D+00  0.000000D+00  0.000000D+00
                 6             7             8             9            10 
      1   0.000000D+00  0.000000D+00  0.000000D+00  0.000000D+00  0.000000D+00
      2   0.000000D+00  0.000000D+00  0.000000D+00  0.000000D+00  0.000000D+00
      3   0.000000D+00  0.000000D+00  0.000000D+00  0.000000D+00  0.000000D+00
      4   0.000000D+00  0.000000D+00  0.000000D+00  0.000000D+00  0.000000D+00
      5   0.000000D+00  0.000000D+00  0.000000D+00  0.000000D+00  0.000000D+00
      6   0.000000D+00  0.000000D+00  0.000000D+00  0.000000D+00  0.000000D+00
      7   0.000000D+00  0.000000D+00  0.000000D+00  0.000000D+00  0.000000D+00
      8   0.000000D+00  0.000000D+00  0.000000D+00  0.000000D+00  0.000000D+00
      9   0.000000D+00  0.000000D+00  0.000000D+00  0.000000D+00  0.000000D+00
     10   0.000000D+00  0.000000D+00  0.000000D+00  0.000000D+00  0.000000D+00
                11            12            13            14            15 
      1   0.000000D+00  0.000000D+00  0.000000D+00  0.000000D+00  0.000000D+00
      2   0.000000D+00  0.000000D+00  0.000000D+00  0.000000D+00  0.000000D+00
      3   0.000000D+00  0.000000D+00  0.000000D+00  0.000000D+00  0.000000D+00
      4   0.000000D+00  0.000000D+00  0.000000D+00  0.000000D+00  0.000000D+00
      5   0.000000D+00  0.000000D+00  0.000000D+00  0.000000D+00  0.000000D+00
      6   0.000000D+00  0.000000D+00  0.000000D+00  0.000000D+00  0.000000D+00
      7   0.000000D+00  0.000000D+00  0.000000D+00  0.000000D+00  0.000000D+00
      8   0.000000D+00  0.000000D+00  0.000000D+00  0.000000D+00  0.000000D+00
      9   0.000000D+00  0.000000D+00  0.000000D+00  0.000000D+00  0.000000D+00
     10   0.000000D+00  0.000000D+00  0.000000D+00  0.000000D+00  0.000000D+00
                16            17            18            19            20 
      1   0.000000D+00  0.000000D+00  0.000000D+00  0.000000D+00  0.000000D+00
      2   0.000000D+00  0.000000D+00  0.000000D+00  0.000000D+00  0.000000D+00
      3   0.000000D+00  0.000000D+00  0.000000D+00  0.000000D+00  0.000000D+00
      4   0.000000D+00  0.000000D+00  0.000000D+00  0.000000D+00  0.000000D+00
      5   0.000000D+00  0.000000D+00  0.000000D+00  0.000000D+00  0.000000D+00
      6   0.000000D+00  0.000000D+00  0.000000D+00  0.000000D+00  0.000000D+00
      7   0.000000D+00  0.000000D+00  0.000000D+00  0.000000D+00  0.000000D+00
      8   0.000000D+00  0.000000D+00  0.000000D+00  0.000000D+00  0.000000D+00
      9   0.000000D+00  0.000000D+00  0.000000D+00  0.000000D+00  0.000000D+00
     10   0.000000D+00  0.000000D+00  0.000000D+00  0.000000D+00  0.000000D+00
 afr conversion (beta, real):
                 1             2             3             4             5 
      1   0.000000D+00  0.479759D-01  0.000000D+00  0.106027D+00  0.000000D+00
      2   0.000000D+00  0.193099D+00  0.000000D+00  0.301959D+00  0.000000D+00
      3   0.000000D+00  0.198876D+00  0.000000D+00  0.308206D+00  0.000000D+00
      4   0.000000D+00  0.264914D+00  0.000000D+00  0.115211D+00  0.000000D+00
      5   0.000000D+00  0.265202D+00  0.000000D+00  0.108308D+00  0.000000D+00
      6   0.000000D+00  0.238279D+00  0.000000D+00 -0.228835D+00  0.000000D+00
      7   0.000000D+00  0.238136D+00  0.000000D+00 -0.234053D+00  0.000000D+00
      8   0.000000D+00  0.130447D+00  0.000000D+00 -0.270188D+00  0.000000D+00
      9   0.000000D+00  0.125154D+00  0.000000D+00 -0.261321D+00  0.000000D+00
     10   0.000000D+00 -0.531822D-02  0.000000D+00  0.752323D-02  0.000000D+00
                 6             7             8             9            10 
      1   0.194331D+00  0.196306D-05  0.280456D+00  0.989569D+00  0.000000D+00
      2   0.293679D+00  0.000000D+00  0.133542D+00 -0.334420D+00  0.000000D+00
      3   0.291704D+00  0.000000D+00  0.122703D+00 -0.326678D+00  0.000000D+00
      4  -0.288960D+00 -0.266650D-05 -0.380955D+00  0.175062D+00  0.000000D+00
      5  -0.298510D+00 -0.259704D-05 -0.371032D+00  0.190327D+00  0.000000D+00
      6  -0.146357D+00  0.313595D-05  0.448024D+00 -0.917973D-01  0.000000D+00
      7  -0.134107D+00  0.316344D-05  0.451952D+00 -0.994903D-01  0.000000D+00
      8   0.358276D+00 -0.210986D-05 -0.301429D+00  0.384044D-01  0.000000D+00
      9   0.354135D+00 -0.217715D-05 -0.311043D+00  0.428240D-01  0.000000D+00
     10  -0.952836D-03  0.000000D+00 -0.111367D-01  0.408678D-02  0.000000D+00
                11            12            13            14            15 
      1  -0.182021D-02  0.000000D+00  0.000000D+00 -0.119746D-01  0.000000D+00
      2   0.734299D-02  0.000000D+00 -0.137510D-05 -0.522800D+00 -0.674832D-04
      3  -0.410341D-03  0.000000D+00  0.148292D-05  0.563792D+00  0.705733D-04
      4  -0.119164D-01  0.000000D+00 -0.214131D-05 -0.814109D+00 -0.402096D-04
      5  -0.150753D-01  0.000000D+00  0.214860D-05  0.816880D+00  0.356116D-04
      6   0.905063D-01  0.000000D+00 -0.211265D-05 -0.803210D+00  0.392617D-04
      7   0.599541D-02  0.000000D+00  0.210222D-05  0.799244D+00 -0.436774D-04
      8  -0.164842D+00  0.000000D+00 -0.140431D-05 -0.533905D+00  0.697165D-04
      9  -0.199983D+00  0.000000D+00  0.128222D-05  0.487488D+00 -0.662454D-04
     10   0.105219D+01  0.000000D+00  0.000000D+00  0.345444D-01 -0.189239D-05
                16            17            18            19            20 
      1  -0.109773D-01  0.000000D+00  0.258031D-02  0.132705D-01  0.000000D+00
      2  -0.891317D+00  0.135306D-04 -0.970504D+00 -0.652747D+00  0.000000D+00
      3   0.932131D+00 -0.134258D-04  0.962988D+00  0.600126D+00  0.000000D+00
      4  -0.531088D+00 -0.851811D-05  0.610977D+00  0.110381D+01 -0.117254D-05
      5   0.470358D+00  0.970115D-05 -0.695833D+00 -0.107788D+01  0.114499D-05
      6   0.518568D+00 -0.912380D-05  0.654421D+00 -0.109068D+01  0.115859D-05
      7  -0.576891D+00  0.790495D-05 -0.566997D+00  0.111474D+01 -0.118415D-05
      8   0.920815D+00  0.136317D-04 -0.977762D+00  0.623519D+00  0.000000D+00
      9  -0.874969D+00 -0.137169D-04  0.983872D+00 -0.678972D+00  0.000000D+00
     10  -0.249946D-01  0.000000D+00 -0.435358D-02  0.220008D-01  0.000000D+00
 afr conversion (beta, imaginary):
                 1             2             3             4             5 
      1   0.000000D+00  0.000000D+00  0.000000D+00  0.000000D+00  0.000000D+00
      2   0.000000D+00  0.000000D+00  0.000000D+00  0.000000D+00  0.000000D+00
      3   0.000000D+00  0.000000D+00  0.000000D+00  0.000000D+00  0.000000D+00
      4   0.000000D+00  0.000000D+00  0.000000D+00  0.000000D+00  0.000000D+00
      5   0.000000D+00  0.000000D+00  0.000000D+00  0.000000D+00  0.000000D+00
      6   0.000000D+00  0.000000D+00  0.000000D+00  0.000000D+00  0.000000D+00
      7   0.000000D+00  0.000000D+00  0.000000D+00  0.000000D+00  0.000000D+00
      8   0.000000D+00  0.000000D+00  0.000000D+00  0.000000D+00  0.000000D+00
      9   0.000000D+00  0.000000D+00  0.000000D+00  0.000000D+00  0.000000D+00
     10   0.000000D+00  0.000000D+00  0.000000D+00  0.000000D+00  0.000000D+00
                 6             7             8             9            10 
      1   0.000000D+00  0.000000D+00  0.000000D+00  0.000000D+00  0.000000D+00
      2   0.000000D+00  0.000000D+00  0.000000D+00  0.000000D+00  0.000000D+00
      3   0.000000D+00  0.000000D+00  0.000000D+00  0.000000D+00  0.000000D+00
      4   0.000000D+00  0.000000D+00  0.000000D+00  0.000000D+00  0.000000D+00
      5   0.000000D+00  0.000000D+00  0.000000D+00  0.000000D+00  0.000000D+00
      6   0.000000D+00  0.000000D+00  0.000000D+00  0.000000D+00  0.000000D+00
      7   0.000000D+00  0.000000D+00  0.000000D+00  0.000000D+00  0.000000D+00
      8   0.000000D+00  0.000000D+00  0.000000D+00  0.000000D+00  0.000000D+00
      9   0.000000D+00  0.000000D+00  0.000000D+00  0.000000D+00  0.000000D+00
     10   0.000000D+00  0.000000D+00  0.000000D+00  0.000000D+00  0.000000D+00
                11            12            13            14            15 
      1   0.000000D+00  0.000000D+00  0.000000D+00  0.000000D+00  0.000000D+00
      2   0.000000D+00  0.000000D+00  0.000000D+00  0.000000D+00  0.000000D+00
      3   0.000000D+00  0.000000D+00  0.000000D+00  0.000000D+00  0.000000D+00
      4   0.000000D+00  0.000000D+00  0.000000D+00  0.000000D+00  0.000000D+00
      5   0.000000D+00  0.000000D+00  0.000000D+00  0.000000D+00  0.000000D+00
      6   0.000000D+00  0.000000D+00  0.000000D+00  0.000000D+00  0.000000D+00
      7   0.000000D+00  0.000000D+00  0.000000D+00  0.000000D+00  0.000000D+00
      8   0.000000D+00  0.000000D+00  0.000000D+00  0.000000D+00  0.000000D+00
      9   0.000000D+00  0.000000D+00  0.000000D+00  0.000000D+00  0.000000D+00
     10   0.000000D+00  0.000000D+00  0.000000D+00  0.000000D+00  0.000000D+00
                16            17            18            19            20 
      1   0.000000D+00  0.000000D+00  0.000000D+00  0.000000D+00  0.000000D+00
      2   0.000000D+00  0.000000D+00  0.000000D+00  0.000000D+00  0.000000D+00
      3   0.000000D+00  0.000000D+00  0.000000D+00  0.000000D+00  0.000000D+00
      4   0.000000D+00  0.000000D+00  0.000000D+00  0.000000D+00  0.000000D+00
      5   0.000000D+00  0.000000D+00  0.000000D+00  0.000000D+00  0.000000D+00
      6   0.000000D+00  0.000000D+00  0.000000D+00  0.000000D+00  0.000000D+00
      7   0.000000D+00  0.000000D+00  0.000000D+00  0.000000D+00  0.000000D+00
      8   0.000000D+00  0.000000D+00  0.000000D+00  0.000000D+00  0.000000D+00
      9   0.000000D+00  0.000000D+00  0.000000D+00  0.000000D+00  0.000000D+00
     10   0.000000D+00  0.000000D+00  0.000000D+00  0.000000D+00  0.000000D+00
 jaja in hckghf.F, ISPECT =                     548
Spin block MO for GHF transformation
NOA =   10   NOB =   10
NVA =   10   NVB =   10
 NOAvA in Hack                     100
 jaja in tranN3.F, ISPECT =                     548
 in l802/tranN3.F, LSPECT =                      800
 NMat, NBtSiz,MDV                    8372                   16000
                133954722
 TranN3:  NGot= 134217728 NBasic=    263006 NTTT=       550 NMat=      8372.
 Defined bucket =                      51                   10000
 Defined bucket =                      52                   10000
 Defined bucket =                      53                   10000
 Defined bucket =                      55                   10000
 Defined bucket =                      57                   10000
 Defined bucket =                      58                   10000
 Defined bucket =                      60                   10000
 Defined bucket =                      72                   10000
 Defined bucket =                      73                   10000
 Defined bucket =                      74                   10000
 Defined bucket =                      75                   10000
 Defined bucket =                      76                   10000
 (IK/LS) integrals will be saved in memory.
 TrCghf made   2 passes through the AO integrals.
 jaja DoHack is true or false? F
 jaja in hckghf.F, NBasis=                      10
 jaja in hckGHF/FixOG, LC =                      800
 jaja in hckGHF/FixOG, IRwC=                      548
 bfr conversion (alpha, real):
                 1             2             3             4             5 
      1  -0.531822D-02  0.000000D+00  0.752323D-02  0.000000D+00 -0.952836D-03
      2   0.125154D+00  0.000000D+00 -0.261321D+00  0.000000D+00  0.354135D+00
      3   0.130447D+00  0.000000D+00 -0.270188D+00  0.000000D+00  0.358276D+00
      4   0.238136D+00  0.000000D+00 -0.234053D+00  0.000000D+00 -0.134107D+00
      5   0.238279D+00  0.000000D+00 -0.228835D+00  0.000000D+00 -0.146357D+00
      6   0.265202D+00  0.000000D+00  0.108308D+00  0.000000D+00 -0.298510D+00
      7   0.264914D+00  0.000000D+00  0.115211D+00  0.000000D+00 -0.288960D+00
      8   0.198876D+00  0.000000D+00  0.308206D+00  0.000000D+00  0.291704D+00
      9   0.193099D+00  0.000000D+00  0.301959D+00  0.000000D+00  0.293679D+00
     10   0.479759D-01  0.000000D+00  0.106027D+00  0.000000D+00  0.194331D+00
                 6             7             8             9            10 
      1   0.000000D+00 -0.111367D-01  0.000000D+00  0.000000D+00  0.408678D-02
      2   0.000000D+00 -0.311043D+00  0.217715D-05  0.000000D+00  0.428240D-01
      3   0.000000D+00 -0.301429D+00  0.210986D-05  0.000000D+00  0.384044D-01
      4   0.000000D+00  0.451952D+00 -0.316344D-05  0.000000D+00 -0.994903D-01
      5   0.000000D+00  0.448024D+00 -0.313595D-05  0.000000D+00 -0.917973D-01
      6   0.000000D+00 -0.371032D+00  0.259704D-05  0.000000D+00  0.190327D+00
      7   0.000000D+00 -0.380955D+00  0.266650D-05  0.000000D+00  0.175062D+00
      8   0.000000D+00  0.122703D+00  0.000000D+00  0.000000D+00 -0.326678D+00
      9   0.000000D+00  0.133542D+00  0.000000D+00  0.000000D+00 -0.334420D+00
     10   0.000000D+00  0.280456D+00 -0.196306D-05  0.000000D+00  0.989569D+00
                11            12            13            14            15 
      1   0.000000D+00  0.105219D+01  0.345444D-01  0.000000D+00 -0.249946D-01
      2   0.000000D+00 -0.199983D+00  0.487488D+00 -0.128222D-05 -0.874969D+00
      3   0.000000D+00 -0.164842D+00 -0.533905D+00  0.140431D-05  0.920815D+00
      4   0.000000D+00  0.599541D-02  0.799244D+00 -0.210222D-05 -0.576891D+00
      5   0.000000D+00  0.905063D-01 -0.803210D+00  0.211265D-05  0.518568D+00
      6   0.000000D+00 -0.150753D-01  0.816880D+00 -0.214860D-05  0.470358D+00
      7   0.000000D+00 -0.119164D-01 -0.814109D+00  0.214131D-05 -0.531088D+00
      8   0.000000D+00 -0.410341D-03  0.563792D+00 -0.148292D-05  0.932131D+00
      9   0.000000D+00  0.734299D-02 -0.522800D+00  0.137510D-05 -0.891317D+00
     10   0.000000D+00 -0.182021D-02 -0.119746D-01  0.000000D+00 -0.109773D-01
                16            17            18            19            20 
      1   0.189239D-05 -0.435358D-02  0.000000D+00  0.000000D+00  0.220008D-01
      2   0.662454D-04  0.983872D+00  0.137169D-04  0.000000D+00 -0.678972D+00
      3  -0.697165D-04 -0.977762D+00 -0.136317D-04  0.000000D+00  0.623519D+00
      4   0.436774D-04 -0.566997D+00 -0.790495D-05  0.118415D-05  0.111474D+01
      5  -0.392617D-04  0.654421D+00  0.912380D-05 -0.115859D-05 -0.109068D+01
      6  -0.356116D-04 -0.695833D+00 -0.970115D-05 -0.114499D-05 -0.107788D+01
      7   0.402096D-04  0.610977D+00  0.851811D-05  0.117254D-05  0.110381D+01
      8  -0.705733D-04  0.962988D+00  0.134258D-04  0.000000D+00  0.600126D+00
      9   0.674832D-04 -0.970504D+00 -0.135306D-04  0.000000D+00 -0.652747D+00
     10   0.000000D+00  0.258031D-02  0.000000D+00  0.000000D+00  0.132705D-01
 bfr conversion (alpha, imaginary):
                 1             2             3             4             5 
      1   0.000000D+00  0.000000D+00  0.000000D+00  0.000000D+00  0.000000D+00
      2   0.000000D+00  0.000000D+00  0.000000D+00  0.000000D+00  0.000000D+00
      3   0.000000D+00  0.000000D+00  0.000000D+00  0.000000D+00  0.000000D+00
      4   0.000000D+00  0.000000D+00  0.000000D+00  0.000000D+00  0.000000D+00
      5   0.000000D+00  0.000000D+00  0.000000D+00  0.000000D+00  0.000000D+00
      6   0.000000D+00  0.000000D+00  0.000000D+00  0.000000D+00  0.000000D+00
      7   0.000000D+00  0.000000D+00  0.000000D+00  0.000000D+00  0.000000D+00
      8   0.000000D+00  0.000000D+00  0.000000D+00  0.000000D+00  0.000000D+00
      9   0.000000D+00  0.000000D+00  0.000000D+00  0.000000D+00  0.000000D+00
     10   0.000000D+00  0.000000D+00  0.000000D+00  0.000000D+00  0.000000D+00
                 6             7             8             9            10 
      1   0.000000D+00  0.000000D+00  0.000000D+00  0.000000D+00  0.000000D+00
      2   0.000000D+00  0.000000D+00  0.000000D+00  0.000000D+00  0.000000D+00
      3   0.000000D+00  0.000000D+00  0.000000D+00  0.000000D+00  0.000000D+00
      4   0.000000D+00  0.000000D+00  0.000000D+00  0.000000D+00  0.000000D+00
      5   0.000000D+00  0.000000D+00  0.000000D+00  0.000000D+00  0.000000D+00
      6   0.000000D+00  0.000000D+00  0.000000D+00  0.000000D+00  0.000000D+00
      7   0.000000D+00  0.000000D+00  0.000000D+00  0.000000D+00  0.000000D+00
      8   0.000000D+00  0.000000D+00  0.000000D+00  0.000000D+00  0.000000D+00
      9   0.000000D+00  0.000000D+00  0.000000D+00  0.000000D+00  0.000000D+00
     10   0.000000D+00  0.000000D+00  0.000000D+00  0.000000D+00  0.000000D+00
                11            12            13            14            15 
      1   0.000000D+00  0.000000D+00  0.000000D+00  0.000000D+00  0.000000D+00
      2   0.000000D+00  0.000000D+00  0.000000D+00  0.000000D+00  0.000000D+00
      3   0.000000D+00  0.000000D+00  0.000000D+00  0.000000D+00  0.000000D+00
      4   0.000000D+00  0.000000D+00  0.000000D+00  0.000000D+00  0.000000D+00
      5   0.000000D+00  0.000000D+00  0.000000D+00  0.000000D+00  0.000000D+00
      6   0.000000D+00  0.000000D+00  0.000000D+00  0.000000D+00  0.000000D+00
      7   0.000000D+00  0.000000D+00  0.000000D+00  0.000000D+00  0.000000D+00
      8   0.000000D+00  0.000000D+00  0.000000D+00  0.000000D+00  0.000000D+00
      9   0.000000D+00  0.000000D+00  0.000000D+00  0.000000D+00  0.000000D+00
     10   0.000000D+00  0.000000D+00  0.000000D+00  0.000000D+00  0.000000D+00
                16            17            18            19            20 
      1   0.000000D+00  0.000000D+00  0.000000D+00  0.000000D+00  0.000000D+00
      2   0.000000D+00  0.000000D+00  0.000000D+00  0.000000D+00  0.000000D+00
      3   0.000000D+00  0.000000D+00  0.000000D+00  0.000000D+00  0.000000D+00
      4   0.000000D+00  0.000000D+00  0.000000D+00  0.000000D+00  0.000000D+00
      5   0.000000D+00  0.000000D+00  0.000000D+00  0.000000D+00  0.000000D+00
      6   0.000000D+00  0.000000D+00  0.000000D+00  0.000000D+00  0.000000D+00
      7   0.000000D+00  0.000000D+00  0.000000D+00  0.000000D+00  0.000000D+00
      8   0.000000D+00  0.000000D+00  0.000000D+00  0.000000D+00  0.000000D+00
      9   0.000000D+00  0.000000D+00  0.000000D+00  0.000000D+00  0.000000D+00
     10   0.000000D+00  0.000000D+00  0.000000D+00  0.000000D+00  0.000000D+00
 bfr conversion (beta, real):
                 1             2             3             4             5 
      1   0.000000D+00  0.479759D-01  0.000000D+00  0.106027D+00  0.000000D+00
      2   0.000000D+00  0.193099D+00  0.000000D+00  0.301959D+00  0.000000D+00
      3   0.000000D+00  0.198876D+00  0.000000D+00  0.308206D+00  0.000000D+00
      4   0.000000D+00  0.264914D+00  0.000000D+00  0.115211D+00  0.000000D+00
      5   0.000000D+00  0.265202D+00  0.000000D+00  0.108308D+00  0.000000D+00
      6   0.000000D+00  0.238279D+00  0.000000D+00 -0.228835D+00  0.000000D+00
      7   0.000000D+00  0.238136D+00  0.000000D+00 -0.234053D+00  0.000000D+00
      8   0.000000D+00  0.130447D+00  0.000000D+00 -0.270188D+00  0.000000D+00
      9   0.000000D+00  0.125154D+00  0.000000D+00 -0.261321D+00  0.000000D+00
     10   0.000000D+00 -0.531822D-02  0.000000D+00  0.752323D-02  0.000000D+00
                 6             7             8             9            10 
      1   0.194331D+00  0.196306D-05  0.280456D+00  0.989569D+00  0.000000D+00
      2   0.293679D+00  0.000000D+00  0.133542D+00 -0.334420D+00  0.000000D+00
      3   0.291704D+00  0.000000D+00  0.122703D+00 -0.326678D+00  0.000000D+00
      4  -0.288960D+00 -0.266650D-05 -0.380955D+00  0.175062D+00  0.000000D+00
      5  -0.298510D+00 -0.259704D-05 -0.371032D+00  0.190327D+00  0.000000D+00
      6  -0.146357D+00  0.313595D-05  0.448024D+00 -0.917973D-01  0.000000D+00
      7  -0.134107D+00  0.316344D-05  0.451952D+00 -0.994903D-01  0.000000D+00
      8   0.358276D+00 -0.210986D-05 -0.301429D+00  0.384044D-01  0.000000D+00
      9   0.354135D+00 -0.217715D-05 -0.311043D+00  0.428240D-01  0.000000D+00
     10  -0.952836D-03  0.000000D+00 -0.111367D-01  0.408678D-02  0.000000D+00
                11            12            13            14            15 
      1  -0.182021D-02  0.000000D+00  0.000000D+00 -0.119746D-01  0.000000D+00
      2   0.734299D-02  0.000000D+00 -0.137510D-05 -0.522800D+00 -0.674832D-04
      3  -0.410341D-03  0.000000D+00  0.148292D-05  0.563792D+00  0.705733D-04
      4  -0.119164D-01  0.000000D+00 -0.214131D-05 -0.814109D+00 -0.402096D-04
      5  -0.150753D-01  0.000000D+00  0.214860D-05  0.816880D+00  0.356116D-04
      6   0.905063D-01  0.000000D+00 -0.211265D-05 -0.803210D+00  0.392617D-04
      7   0.599541D-02  0.000000D+00  0.210222D-05  0.799244D+00 -0.436774D-04
      8  -0.164842D+00  0.000000D+00 -0.140431D-05 -0.533905D+00  0.697165D-04
      9  -0.199983D+00  0.000000D+00  0.128222D-05  0.487488D+00 -0.662454D-04
     10   0.105219D+01  0.000000D+00  0.000000D+00  0.345444D-01 -0.189239D-05
                16            17            18            19            20 
      1  -0.109773D-01  0.000000D+00  0.258031D-02  0.132705D-01  0.000000D+00
      2  -0.891317D+00  0.135306D-04 -0.970504D+00 -0.652747D+00  0.000000D+00
      3   0.932131D+00 -0.134258D-04  0.962988D+00  0.600126D+00  0.000000D+00
      4  -0.531088D+00 -0.851811D-05  0.610977D+00  0.110381D+01 -0.117254D-05
      5   0.470358D+00  0.970115D-05 -0.695833D+00 -0.107788D+01  0.114499D-05
      6   0.518568D+00 -0.912380D-05  0.654421D+00 -0.109068D+01  0.115859D-05
      7  -0.576891D+00  0.790495D-05 -0.566997D+00  0.111474D+01 -0.118415D-05
      8   0.920815D+00  0.136317D-04 -0.977762D+00  0.623519D+00  0.000000D+00
      9  -0.874969D+00 -0.137169D-04  0.983872D+00 -0.678972D+00  0.000000D+00
     10  -0.249946D-01  0.000000D+00 -0.435358D-02  0.220008D-01  0.000000D+00
 bfr conversion (beta, imaginary):
                 1             2             3             4             5 
      1   0.000000D+00  0.000000D+00  0.000000D+00  0.000000D+00  0.000000D+00
      2   0.000000D+00  0.000000D+00  0.000000D+00  0.000000D+00  0.000000D+00
      3   0.000000D+00  0.000000D+00  0.000000D+00  0.000000D+00  0.000000D+00
      4   0.000000D+00  0.000000D+00  0.000000D+00  0.000000D+00  0.000000D+00
      5   0.000000D+00  0.000000D+00  0.000000D+00  0.000000D+00  0.000000D+00
      6   0.000000D+00  0.000000D+00  0.000000D+00  0.000000D+00  0.000000D+00
      7   0.000000D+00  0.000000D+00  0.000000D+00  0.000000D+00  0.000000D+00
      8   0.000000D+00  0.000000D+00  0.000000D+00  0.000000D+00  0.000000D+00
      9   0.000000D+00  0.000000D+00  0.000000D+00  0.000000D+00  0.000000D+00
     10   0.000000D+00  0.000000D+00  0.000000D+00  0.000000D+00  0.000000D+00
                 6             7             8             9            10 
      1   0.000000D+00  0.000000D+00  0.000000D+00  0.000000D+00  0.000000D+00
[...]
      6b 0.663243D-01  0.143803D+00 -0.124647D-01 -0.394357D-01 -0.120826D-01
      7a 0.635034D-02 -0.476486D-02 -0.184407D-01 -0.152856D-02 -0.285338D-01
      7b 0.682703D-01  0.148018D+00 -0.125459D-01 -0.310987D-01 -0.121639D-01
      8a-0.523166D-03  0.736267D-03  0.294886D-01  0.334218D-03  0.314082D-01
      8b-0.237564D-01 -0.502888D-01  0.642522D-02  0.383499D-01  0.604818D-02
      9a-0.446609D-03  0.149733D-02  0.267067D-01  0.388341D-03  0.289250D-01
      9b-0.259898D-01 -0.551109D-01  0.691400D-02  0.357154D-01  0.653915D-02
     10a-0.283325D-02 -0.136192D-02 -0.271934D-01  0.162181D-02 -0.245579D-01
     10b-0.327262D-02 -0.502199D-02 -0.123380D-01 -0.599125D-03 -0.111703D-01
                3b            4a            4b            5a            5b
      3b 0.538624D+00
      4a 0.376034D-02  0.594008D+00
      4b-0.211904D+00 -0.579774D-02  0.676611D+00
      5a 0.312727D-02  0.591729D+00 -0.506495D-02  0.589925D+00
      5b-0.222576D+00 -0.763349D-02  0.674582D+00 -0.685875D-02  0.673224D+00
      6a-0.909303D-03 -0.203489D+00  0.249768D-02 -0.190733D+00  0.259886D-02
      6b-0.514034D-01  0.470717D-02 -0.267737D+00  0.489320D-02 -0.251200D+00
      7a-0.142950D-02 -0.216784D+00  0.231562D-02 -0.204227D+00  0.250924D-02
      7b-0.433144D-01  0.486242D-02 -0.282060D+00  0.497527D-02 -0.265721D+00
      8a 0.350470D-03 -0.412129D-01 -0.810018D-03 -0.485113D-01 -0.527882D-03
      8b 0.418443D-01 -0.732700D-02 -0.153623D-01 -0.760814D-02 -0.271274D-01
      9a 0.382190D-03 -0.312090D-01 -0.101909D-02 -0.387337D-01 -0.729554D-03
      9b 0.395608D-01 -0.764174D-02 -0.318469D-02 -0.793239D-02 -0.151665D-01
     10a 0.855303D-03  0.837033D-01 -0.570129D-02  0.821021D-01 -0.420449D-02
     10b-0.625265D-03  0.372391D-01  0.785320D-02  0.365730D-01  0.830345D-02
                6a            6b            7a            7b            8a
      6a 0.580497D+00
      6b-0.498242D-02  0.698794D+00
      7a 0.580511D+00 -0.292483D-02  0.581152D+00
      7b-0.605879D-02  0.700803D+00 -0.394774D-02  0.703348D+00
      8a-0.188668D+00  0.603324D-03 -0.177812D+00  0.170652D-02  0.506187D+00
      8b 0.149018D-01 -0.287240D+00  0.136089D-01 -0.275656D+00 -0.511924D-02
      9a-0.201423D+00  0.157159D-02 -0.190724D+00  0.268394D-02  0.506485D+00
      9b 0.146512D-01 -0.301498D+00  0.133797D-01 -0.290226D+00 -0.367172D-02
     10a-0.168284D+00  0.218741D-01 -0.177221D+00  0.170586D-01  0.633607D-01
     10b-0.771861D-01 -0.542391D-02 -0.816145D-01 -0.806149D-02  0.312506D-01
                8b            9a            9b           10a           10b
      8b 0.712990D+00
      9a-0.733886D-02  0.507166D+00
      9b 0.710424D+00 -0.588539D-02  0.708324D+00
     10a-0.731252D-01  0.635602D-01 -0.745319D-01  0.852182D+00
     10b-0.343936D-01  0.311568D-01 -0.346625D-01  0.424033D+00  0.211525D+00
 jaja lower-tri density matrix (imaginary):
                1a            1b            2a            2b            3a
      1a 0.000000D+00
      1b 0.000000D+00  0.000000D+00
      2a 0.000000D+00  0.000000D+00  0.000000D+00
      2b 0.000000D+00  0.000000D+00  0.000000D+00  0.000000D+00
      3a 0.000000D+00  0.000000D+00  0.000000D+00  0.000000D+00  0.000000D+00
      3b 0.000000D+00  0.000000D+00  0.000000D+00  0.000000D+00  0.000000D+00
      4a 0.000000D+00  0.000000D+00  0.000000D+00  0.000000D+00  0.000000D+00
      4b 0.000000D+00  0.000000D+00  0.000000D+00  0.000000D+00  0.000000D+00
      5a 0.000000D+00  0.000000D+00  0.000000D+00  0.000000D+00  0.000000D+00
      5b 0.000000D+00  0.000000D+00  0.000000D+00  0.000000D+00  0.000000D+00
      6a 0.000000D+00  0.000000D+00  0.000000D+00  0.000000D+00  0.000000D+00
      6b 0.000000D+00  0.000000D+00  0.000000D+00  0.000000D+00  0.000000D+00
      7a 0.000000D+00  0.000000D+00  0.000000D+00  0.000000D+00  0.000000D+00
      7b 0.000000D+00  0.000000D+00  0.000000D+00  0.000000D+00  0.000000D+00
      8a 0.000000D+00  0.000000D+00  0.000000D+00  0.000000D+00  0.000000D+00
      8b 0.000000D+00  0.000000D+00  0.000000D+00  0.000000D+00  0.000000D+00
      9a 0.000000D+00  0.000000D+00  0.000000D+00  0.000000D+00  0.000000D+00
      9b 0.000000D+00  0.000000D+00  0.000000D+00  0.000000D+00  0.000000D+00
     10a 0.000000D+00  0.000000D+00  0.000000D+00  0.000000D+00  0.000000D+00
     10b 0.000000D+00  0.000000D+00  0.000000D+00  0.000000D+00  0.000000D+00
                3b            4a            4b            5a            5b
      3b 0.000000D+00
      4a 0.000000D+00  0.000000D+00
      4b 0.000000D+00  0.000000D+00  0.000000D+00
      5a 0.000000D+00  0.000000D+00  0.000000D+00  0.000000D+00
      5b 0.000000D+00  0.000000D+00  0.000000D+00  0.000000D+00  0.000000D+00
      6a 0.000000D+00  0.000000D+00  0.000000D+00  0.000000D+00  0.000000D+00
      6b 0.000000D+00  0.000000D+00  0.000000D+00  0.000000D+00  0.000000D+00
      7a 0.000000D+00  0.000000D+00  0.000000D+00  0.000000D+00  0.000000D+00
      7b 0.000000D+00  0.000000D+00  0.000000D+00  0.000000D+00  0.000000D+00
      8a 0.000000D+00  0.000000D+00  0.000000D+00  0.000000D+00  0.000000D+00
      8b 0.000000D+00  0.000000D+00  0.000000D+00  0.000000D+00  0.000000D+00
      9a 0.000000D+00  0.000000D+00  0.000000D+00  0.000000D+00  0.000000D+00
      9b 0.000000D+00  0.000000D+00  0.000000D+00  0.000000D+00  0.000000D+00
     10a 0.000000D+00  0.000000D+00  0.000000D+00  0.000000D+00  0.000000D+00
     10b 0.000000D+00  0.000000D+00  0.000000D+00  0.000000D+00  0.000000D+00
                6a            6b            7a            7b            8a
      6a 0.000000D+00
      6b 0.000000D+00  0.000000D+00
      7a 0.000000D+00  0.000000D+00  0.000000D+00
      7b 0.000000D+00  0.000000D+00  0.000000D+00  0.000000D+00
      8a 0.000000D+00  0.000000D+00  0.000000D+00  0.000000D+00  0.000000D+00
      8b 0.000000D+00  0.000000D+00  0.000000D+00  0.000000D+00  0.000000D+00
      9a 0.000000D+00  0.000000D+00  0.000000D+00  0.000000D+00  0.000000D+00
      9b 0.000000D+00  0.000000D+00  0.000000D+00  0.000000D+00  0.000000D+00
     10a 0.000000D+00  0.000000D+00  0.000000D+00  0.000000D+00  0.000000D+00
     10b 0.000000D+00  0.000000D+00  0.000000D+00  0.000000D+00  0.000000D+00
                8b            9a            9b           10a           10b
      8b 0.000000D+00
      9a 0.000000D+00  0.000000D+00
      9b 0.000000D+00  0.000000D+00  0.000000D+00
     10a 0.000000D+00  0.000000D+00  0.000000D+00  0.000000D+00
     10b 0.000000D+00  0.000000D+00  0.000000D+00  0.000000D+00  0.000000D+00
 jaja non-ortho density matrix               [Gau-style] (real):
                 1             2             3             4             5 
      1a  0.179624D+00  0.361600D+00 -0.301476D-01  0.812220D-01 -0.300955D-01
      1b  0.361600D+00  0.729875D+00 -0.634118D-01  0.164389D+00 -0.625513D-01
      2a -0.301476D-01 -0.634118D-01  0.608807D+00 -0.144501D-01  0.611455D+00
      2b  0.812220D-01  0.164389D+00 -0.144501D-01  0.539772D+00 -0.158175D-01
      3a -0.300955D-01 -0.625513D-01  0.611455D+00 -0.158175D-01  0.614509D+00
      3b  0.799396D-01  0.161385D+00 -0.123207D-01  0.538981D+00 -0.136837D-01
      4a -0.668740D-02  0.148719D-01 -0.218476D+00  0.452693D-02 -0.206006D+00
      4b -0.129258D+00 -0.275060D+00  0.217228D-01 -0.226852D+00  0.218925D-01
      5a -0.471451D-02  0.184117D-01 -0.228446D+00  0.389475D-02 -0.216255D+00
      5b -0.125929D+00 -0.268256D+00  0.228515D-01 -0.237294D+00  0.230398D-01
      6a  0.661925D-02 -0.376950D-02 -0.279058D-01 -0.100929D-02 -0.378352D-01
      6b  0.663243D-01  0.143803D+00 -0.124647D-01 -0.394357D-01 -0.120826D-01
      7a  0.635034D-02 -0.476486D-02 -0.184407D-01 -0.152856D-02 -0.285338D-01
      7b  0.682703D-01  0.148018D+00 -0.125459D-01 -0.310987D-01 -0.121639D-01
      8a -0.523166D-03  0.736267D-03  0.294886D-01  0.334218D-03  0.314082D-01
      8b -0.237564D-01 -0.502888D-01  0.642522D-02  0.383499D-01  0.604818D-02
      9a -0.446609D-03  0.149733D-02  0.267067D-01  0.388341D-03  0.289250D-01
      9b -0.259898D-01 -0.551109D-01  0.691400D-02  0.357154D-01  0.653915D-02
     10a -0.283325D-02 -0.136192D-02 -0.271934D-01  0.162181D-02 -0.245579D-01
     10b -0.327262D-02 -0.502199D-02 -0.123380D-01 -0.599125D-03 -0.111703D-01
                 6             7             8             9            10 
      1a  0.799396D-01 -0.668740D-02 -0.129258D+00 -0.471451D-02 -0.125929D+00
      1b  0.161385D+00  0.148719D-01 -0.275060D+00  0.184117D-01 -0.268256D+00
      2a -0.123207D-01 -0.218476D+00  0.217228D-01 -0.228446D+00  0.228515D-01
      2b  0.538981D+00  0.452693D-02 -0.226852D+00  0.389475D-02 -0.237294D+00
      3a -0.136837D-01 -0.206006D+00  0.218925D-01 -0.216255D+00  0.230398D-01
      3b  0.538624D+00  0.376034D-02 -0.211904D+00  0.312727D-02 -0.222576D+00
      4a  0.376034D-02  0.594008D+00 -0.579774D-02  0.591729D+00 -0.763349D-02
      4b -0.211904D+00 -0.579774D-02  0.676611D+00 -0.506495D-02  0.674582D+00
      5a  0.312727D-02  0.591729D+00 -0.506495D-02  0.589925D+00 -0.685875D-02
      5b -0.222576D+00 -0.763349D-02  0.674582D+00 -0.685875D-02  0.673224D+00
      6a -0.909303D-03 -0.203489D+00  0.249768D-02 -0.190733D+00  0.259886D-02
      6b -0.514034D-01  0.470717D-02 -0.267737D+00  0.489320D-02 -0.251200D+00
      7a -0.142950D-02 -0.216784D+00  0.231562D-02 -0.204227D+00  0.250924D-02
      7b -0.433144D-01  0.486242D-02 -0.282060D+00  0.497527D-02 -0.265721D+00
      8a  0.350470D-03 -0.412129D-01 -0.810018D-03 -0.485113D-01 -0.527882D-03
      8b  0.418443D-01 -0.732700D-02 -0.153623D-01 -0.760814D-02 -0.271274D-01
      9a  0.382190D-03 -0.312090D-01 -0.101909D-02 -0.387337D-01 -0.729554D-03
      9b  0.395608D-01 -0.764174D-02 -0.318469D-02 -0.793239D-02 -0.151665D-01
     10a  0.855303D-03  0.837033D-01 -0.570129D-02  0.821021D-01 -0.420449D-02
     10b -0.625265D-03  0.372391D-01  0.785320D-02  0.365730D-01  0.830345D-02
                11            12            13            14            15 
      1a  0.661925D-02  0.663243D-01  0.635034D-02  0.682703D-01 -0.523166D-03
      1b -0.376950D-02  0.143803D+00 -0.476486D-02  0.148018D+00  0.736267D-03
      2a -0.279058D-01 -0.124647D-01 -0.184407D-01 -0.125459D-01  0.294886D-01
      2b -0.100929D-02 -0.394357D-01 -0.152856D-02 -0.310987D-01  0.334218D-03
      3a -0.378352D-01 -0.120826D-01 -0.285338D-01 -0.121639D-01  0.314082D-01
      3b -0.909303D-03 -0.514034D-01 -0.142950D-02 -0.433144D-01  0.350470D-03
      4a -0.203489D+00  0.470717D-02 -0.216784D+00  0.486242D-02 -0.412129D-01
      4b  0.249768D-02 -0.267737D+00  0.231562D-02 -0.282060D+00 -0.810018D-03
      5a -0.190733D+00  0.489320D-02 -0.204227D+00  0.497527D-02 -0.485113D-01
      5b  0.259886D-02 -0.251200D+00  0.250924D-02 -0.265721D+00 -0.527882D-03
      6a  0.580497D+00 -0.498242D-02  0.580511D+00 -0.605879D-02 -0.188668D+00
      6b -0.498242D-02  0.698794D+00 -0.292483D-02  0.700803D+00  0.603324D-03
      7a  0.580511D+00 -0.292483D-02  0.581152D+00 -0.394774D-02 -0.177812D+00
      7b -0.605879D-02  0.700803D+00 -0.394774D-02  0.703348D+00  0.170652D-02
      8a -0.188668D+00  0.603324D-03 -0.177812D+00  0.170652D-02  0.506187D+00
      8b  0.149018D-01 -0.287240D+00  0.136089D-01 -0.275656D+00 -0.511924D-02
      9a -0.201423D+00  0.157159D-02 -0.190724D+00  0.268394D-02  0.506485D+00
      9b  0.146512D-01 -0.301498D+00  0.133797D-01 -0.290226D+00 -0.367172D-02
     10a -0.168284D+00  0.218741D-01 -0.177221D+00  0.170586D-01  0.633607D-01
     10b -0.771861D-01 -0.542391D-02 -0.816145D-01 -0.806149D-02  0.312506D-01
                16            17            18            19            20 
      1a -0.237564D-01 -0.446609D-03 -0.259898D-01 -0.283325D-02 -0.327262D-02
      1b -0.502888D-01  0.149733D-02 -0.551109D-01 -0.136192D-02 -0.502199D-02
      2a  0.642522D-02  0.267067D-01  0.691400D-02 -0.271934D-01 -0.123380D-01
      2b  0.383499D-01  0.388341D-03  0.357154D-01  0.162181D-02 -0.599125D-03
      3a  0.604818D-02  0.289250D-01  0.653915D-02 -0.245579D-01 -0.111703D-01
      3b  0.418443D-01  0.382190D-03  0.395608D-01  0.855303D-03 -0.625265D-03
      4a -0.732700D-02 -0.312090D-01 -0.764174D-02  0.837033D-01  0.372391D-01
      4b -0.153623D-01 -0.101909D-02 -0.318469D-02 -0.570129D-02  0.785320D-02
      5a -0.760814D-02 -0.387337D-01 -0.793239D-02  0.821021D-01  0.365730D-01
      5b -0.271274D-01 -0.729554D-03 -0.151665D-01 -0.420449D-02  0.830345D-02
      6a  0.149018D-01 -0.201423D+00  0.146512D-01 -0.168284D+00 -0.771861D-01
      6b -0.287240D+00  0.157159D-02 -0.301498D+00  0.218741D-01 -0.542391D-02
      7a  0.136089D-01 -0.190724D+00  0.133797D-01 -0.177221D+00 -0.816145D-01
      7b -0.275656D+00  0.268394D-02 -0.290226D+00  0.170586D-01 -0.806149D-02
      8a -0.511924D-02  0.506485D+00 -0.367172D-02  0.633607D-01  0.312506D-01
      8b  0.712990D+00 -0.733886D-02  0.710424D+00 -0.731252D-01 -0.343936D-01
      9a -0.733886D-02  0.507166D+00 -0.588539D-02  0.635602D-01  0.311568D-01
      9b  0.710424D+00 -0.588539D-02  0.708324D+00 -0.745319D-01 -0.346625D-01
     10a -0.731252D-01  0.635602D-01 -0.745319D-01  0.852182D+00  0.424033D+00
     10b -0.343936D-01  0.311568D-01 -0.346625D-01  0.424033D+00  0.211525D+00
 jaja non-ortho density matrix               [Gau-style] (imaginary):
                 1             2             3             4             5 
      1a  0.000000D+00  0.000000D+00  0.000000D+00  0.000000D+00  0.000000D+00
      1b  0.000000D+00  0.000000D+00  0.000000D+00  0.000000D+00  0.000000D+00
      2a  0.000000D+00  0.000000D+00  0.000000D+00  0.000000D+00  0.000000D+00
      2b  0.000000D+00  0.000000D+00  0.000000D+00  0.000000D+00  0.000000D+00
      3a  0.000000D+00  0.000000D+00  0.000000D+00  0.000000D+00  0.000000D+00
      3b  0.000000D+00  0.000000D+00  0.000000D+00  0.000000D+00  0.000000D+00
      4a  0.000000D+00  0.000000D+00  0.000000D+00  0.000000D+00  0.000000D+00
      4b  0.000000D+00  0.000000D+00  0.000000D+00  0.000000D+00  0.000000D+00
      5a  0.000000D+00  0.000000D+00  0.000000D+00  0.000000D+00  0.000000D+00
      5b  0.000000D+00  0.000000D+00  0.000000D+00  0.000000D+00  0.000000D+00
      6a  0.000000D+00  0.000000D+00  0.000000D+00  0.000000D+00  0.000000D+00
      6b  0.000000D+00  0.000000D+00  0.000000D+00  0.000000D+00  0.000000D+00
      7a  0.000000D+00  0.000000D+00  0.000000D+00  0.000000D+00  0.000000D+00
      7b  0.000000D+00  0.000000D+00  0.000000D+00  0.000000D+00  0.000000D+00
      8a  0.000000D+00  0.000000D+00  0.000000D+00  0.000000D+00  0.000000D+00
      8b  0.000000D+00  0.000000D+00  0.000000D+00  0.000000D+00  0.000000D+00
      9a  0.000000D+00  0.000000D+00  0.000000D+00  0.000000D+00  0.000000D+00
      9b  0.000000D+00  0.000000D+00  0.000000D+00  0.000000D+00  0.000000D+00
     10a  0.000000D+00  0.000000D+00  0.000000D+00  0.000000D+00  0.000000D+00
     10b  0.000000D+00  0.000000D+00  0.000000D+00  0.000000D+00  0.000000D+00
                 6             7             8             9            10 
      1a  0.000000D+00  0.000000D+00  0.000000D+00  0.000000D+00  0.000000D+00
      1b  0.000000D+00  0.000000D+00  0.000000D+00  0.000000D+00  0.000000D+00
      2a  0.000000D+00  0.000000D+00  0.000000D+00  0.000000D+00  0.000000D+00
      2b  0.000000D+00  0.000000D+00  0.000000D+00  0.000000D+00  0.000000D+00
      3a  0.000000D+00  0.000000D+00  0.000000D+00  0.000000D+00  0.000000D+00
      3b  0.000000D+00  0.000000D+00  0.000000D+00  0.000000D+00  0.000000D+00
      4a  0.000000D+00  0.000000D+00  0.000000D+00  0.000000D+00  0.000000D+00
      4b  0.000000D+00  0.000000D+00  0.000000D+00  0.000000D+00  0.000000D+00
      5a  0.000000D+00  0.000000D+00  0.000000D+00  0.000000D+00  0.000000D+00
      5b  0.000000D+00  0.000000D+00  0.000000D+00  0.000000D+00  0.000000D+00
      6a  0.000000D+00  0.000000D+00  0.000000D+00  0.000000D+00  0.000000D+00
      6b  0.000000D+00  0.000000D+00  0.000000D+00  0.000000D+00  0.000000D+00
      7a  0.000000D+00  0.000000D+00  0.000000D+00  0.000000D+00  0.000000D+00
      7b  0.000000D+00  0.000000D+00  0.000000D+00  0.000000D+00  0.000000D+00
      8a  0.000000D+00  0.000000D+00  0.000000D+00  0.000000D+00  0.000000D+00
      8b  0.000000D+00  0.000000D+00  0.000000D+00  0.000000D+00  0.000000D+00
      9a  0.000000D+00  0.000000D+00  0.000000D+00  0.000000D+00  0.000000D+00
      9b  0.000000D+00  0.000000D+00  0.000000D+00  0.000000D+00  0.000000D+00
     10a  0.000000D+00  0.000000D+00  0.000000D+00  0.000000D+00  0.000000D+00
     10b  0.000000D+00  0.000000D+00  0.000000D+00  0.000000D+00  0.000000D+00
                11            12            13            14            15 
      1a  0.000000D+00  0.000000D+00  0.000000D+00  0.000000D+00  0.000000D+00
      1b  0.000000D+00  0.000000D+00  0.000000D+00  0.000000D+00  0.000000D+00
      2a  0.000000D+00  0.000000D+00  0.000000D+00  0.000000D+00  0.000000D+00
      2b  0.000000D+00  0.000000D+00  0.000000D+00  0.000000D+00  0.000000D+00
      3a  0.000000D+00  0.000000D+00  0.000000D+00  0.000000D+00  0.000000D+00
      3b  0.000000D+00  0.000000D+00  0.000000D+00  0.000000D+00  0.000000D+00
      4a  0.000000D+00  0.000000D+00  0.000000D+00  0.000000D+00  0.000000D+00
      4b  0.000000D+00  0.000000D+00  0.000000D+00  0.000000D+00  0.000000D+00
      5a  0.000000D+00  0.000000D+00  0.000000D+00  0.000000D+00  0.000000D+00
      5b  0.000000D+00  0.000000D+00  0.000000D+00  0.000000D+00  0.000000D+00
      6a  0.000000D+00  0.000000D+00  0.000000D+00  0.000000D+00  0.000000D+00
      6b  0.000000D+00  0.000000D+00  0.000000D+00  0.000000D+00  0.000000D+00
      7a  0.000000D+00  0.000000D+00  0.000000D+00  0.000000D+00  0.000000D+00
      7b  0.000000D+00  0.000000D+00  0.000000D+00  0.000000D+00  0.000000D+00
      8a  0.000000D+00  0.000000D+00  0.000000D+00  0.000000D+00  0.000000D+00
      8b  0.000000D+00  0.000000D+00  0.000000D+00  0.000000D+00  0.000000D+00
      9a  0.000000D+00  0.000000D+00  0.000000D+00  0.000000D+00  0.000000D+00
      9b  0.000000D+00  0.000000D+00  0.000000D+00  0.000000D+00  0.000000D+00
     10a  0.000000D+00  0.000000D+00  0.000000D+00  0.000000D+00  0.000000D+00
     10b  0.000000D+00  0.000000D+00  0.000000D+00  0.000000D+00  0.000000D+00
                16            17            18            19            20 
      1a  0.000000D+00  0.000000D+00  0.000000D+00  0.000000D+00  0.000000D+00
      1b  0.000000D+00  0.000000D+00  0.000000D+00  0.000000D+00  0.000000D+00
      2a  0.000000D+00  0.000000D+00  0.000000D+00  0.000000D+00  0.000000D+00
      2b  0.000000D+00  0.000000D+00  0.000000D+00  0.000000D+00  0.000000D+00
      3a  0.000000D+00  0.000000D+00  0.000000D+00  0.000000D+00  0.000000D+00
      3b  0.000000D+00  0.000000D+00  0.000000D+00  0.000000D+00  0.000000D+00
      4a  0.000000D+00  0.000000D+00  0.000000D+00  0.000000D+00  0.000000D+00
      4b  0.000000D+00  0.000000D+00  0.000000D+00  0.000000D+00  0.000000D+00
      5a  0.000000D+00  0.000000D+00  0.000000D+00  0.000000D+00  0.000000D+00
      5b  0.000000D+00  0.000000D+00  0.000000D+00  0.000000D+00  0.000000D+00
      6a  0.000000D+00  0.000000D+00  0.000000D+00  0.000000D+00  0.000000D+00
      6b  0.000000D+00  0.000000D+00  0.000000D+00  0.000000D+00  0.000000D+00
      7a  0.000000D+00  0.000000D+00  0.000000D+00  0.000000D+00  0.000000D+00
      7b  0.000000D+00  0.000000D+00  0.000000D+00  0.000000D+00  0.000000D+00
      8a  0.000000D+00  0.000000D+00  0.000000D+00  0.000000D+00  0.000000D+00
      8b  0.000000D+00  0.000000D+00  0.000000D+00  0.000000D+00  0.000000D+00
      9a  0.000000D+00  0.000000D+00  0.000000D+00  0.000000D+00  0.000000D+00
      9b  0.000000D+00  0.000000D+00  0.000000D+00  0.000000D+00  0.000000D+00
     10a  0.000000D+00  0.000000D+00  0.000000D+00  0.000000D+00  0.000000D+00
     10b  0.000000D+00  0.000000D+00  0.000000D+00  0.000000D+00  0.000000D+00
FORTRAN STOP
