 Entering Gaussian System, Link 0=gdv
 AtFile(1): H.gbs
            H     0
            S   10   1.00
               1000.000000000000            0.000068713567
                316.227766000000            0.000169141320
                100.000000000000            0.000823394812
                 31.622776600000            0.003425569236
                 10.000000000000            0.013951996000
                  3.162277660000            0.056909313560
                  1.000000000000            0.198286399900
                  0.316227766000            0.496922426700
                  0.100000000000            0.369846276400
                  0.031622776600            0.003752720039
            ****
 Initial command:
 /users/lcj1/GHF_hess/exe-dir/l1.exe "/users/lcj1/GHF_hess/h10_2rows/mixrmY/Gau-23957.inp" -scrdir="/users/lcj1/GHF_hess/h10_2rows/mixrmY/"
 Entering Link 1 = /users/lcj1/GHF_hess/exe-dir/l1.exe PID=     23958.
  
 Copyright (c) 1988,1990,1992,1993,1995,1998,2003,2009,2012,
            Gaussian, Inc.  All Rights Reserved.
  
 This is the private, development version of
 the Gaussian(R) DV system of programs. It is based on
 the Gaussian(R) 09 system (copyright 2009, Gaussian, Inc.),
 the Gaussian(R) 03 system (copyright 2003, Gaussian, Inc.),
 the Gaussian(R) 98 system (copyright 1998, Gaussian, Inc.),
 the Gaussian(R) 94 system (copyright 1995, Gaussian, Inc.),
 the Gaussian 92(TM) system (copyright 1992, Gaussian, Inc.),
 the Gaussian 90(TM) system (copyright 1990, Gaussian, Inc.),
 the Gaussian 88(TM) system (copyright 1988, Gaussian, Inc.),
 the Gaussian 86(TM) system (copyright 1986, Carnegie Mellon
 University), and the Gaussian 82(TM) system (copyright 1983,
 Carnegie Mellon University). Gaussian is a federally registered
 trademark of Gaussian, Inc.
  
 This software contains proprietary and confidential information,
 including trade secrets, belonging to Gaussian, Inc.
  
 This software is provided under written license and may be
 used, copied, transmitted, or stored only in accord with that
 written license.
  
 The following legend is applicable only to US Government
 contracts under FAR:
  
                    RESTRICTED RIGHTS LEGEND
  
 Use, reproduction and disclosure by the US Government is
 subject to restrictions as set forth in subparagraphs (a)
 and (c) of the Commercial Computer Software - Restricted
 Rights clause in FAR 52.227-19.
  
 Gaussian, Inc.
 340 Quinnipiac St., Bldg. 40, Wallingford CT 06492
  
  
 ---------------------------------------------------------------
 Warning -- This program may not be used in any manner that
 competes with the business of Gaussian, Inc. or will provide
 assistance to any competitor of Gaussian, Inc.  The licensee
 of this program is prohibited from giving any competitor of
 Gaussian, Inc. access to this program.  By using this program,
 the user acknowledges that Gaussian, Inc. is engaged in the
 business of creating and licensing software in the field of
 computational chemistry and represents and warrants to the
 licensee that it is not a competitor of Gaussian, Inc. and that
 it will not use this program in any manner prohibited above.
 ---------------------------------------------------------------
  

 Cite this work as:
 Gaussian Development Version, Revision H.21,
 M. J. Frisch, G. W. Trucks, H. B. Schlegel, G. E. Scuseria, 
 M. A. Robb, J. R. Cheeseman, G. Scalmani, V. Barone, B. Mennucci, 
 G. A. Petersson, H. Nakatsuji, M. Caricato, X. Li, H. P. Hratchian, 
 A. F. Izmaylov, J. Bloino, G. Zheng, J. L. Sonnenberg, W. Liang, 
 M. Hada, M. Ehara, K. Toyota, R. Fukuda, J. Hasegawa, M. Ishida, 
 T. Nakajima, Y. Honda, O. Kitao, H. Nakai, T. Vreven, 
 J. A. Montgomery, Jr., J. E. Peralta, F. Ogliaro, M. Bearpark, 
 J. J. Heyd, E. Brothers, K. N. Kudin, V. N. Staroverov, T. Keith, 
 R. Kobayashi, J. Normand, K. Raghavachari, A. Rendell, J. C. Burant, 
 S. S. Iyengar, J. Tomasi, M. Cossi, N. Rega, J. M. Millam, M. Klene, 
 J. E. Knox, J. B. Cross, V. Bakken, C. Adamo, J. Jaramillo, 
 R. Gomperts, R. E. Stratmann, O. Yazyev, A. J. Austin, R. Cammi, 
 C. Pomelli, J. W. Ochterski, R. L. Martin, K. Morokuma, 
 V. G. Zakrzewski, G. A. Voth, P. Salvador, J. J. Dannenberg, 
 S. Dapprich, P. V. Parandekar, N. J. Mayhall, A. D. Daniels, 
 O. Farkas, J. B. Foresman, J. V. Ortiz, J. Cioslowski, 
 and D. J. Fox, Gaussian, Inc., Wallingford CT, 2010.
 
 ******************************************
 Gaussian DV:  EM64L-GDVRevH.21 13-May-2012
                28-Feb-2017 
 ******************************************
 %chk=h10.chk
 ----------------------------------------------------------------------
 #ghf/gen scf(tight,novaracc,noincfock,fulldiag) stable guess=(read,mix
 ) geom=nocrowd use=l802 use=l902 test
 ----------------------------------------------------------------------
 ********************************************
   THE COMPLEX ERI TRANSFORMATION WITH L802  
        COMPLEX STABILITY WITH L902          
 ********************************************
 1/38=1/1;
 2/12=1,17=6,18=5,40=1/2;
 3/5=7,16=1,25=20,28=1,116=7/1,2,3,20;
 4/5=1,13=-1/1;
 5/5=100001,16=1,32=2,38=6/2;
 8/6=1,10=90,11=11/1,2;
 9/8=4,13=1/1,2;
 6/7=2,8=2,9=2,10=2,28=1/1;
 99/5=1,9=1/99;
 ----------------------------------------------------------------------
 hf stability analysis of h10 triangular lattice, y= 0.3687111964088696
 8 alpha= 13.250000000000000
 ----------------------------------------------------------------------
 Symbolic Z-Matrix:
 Charge =  0 Multiplicity = 1
 H
 H                    1     1.60868 
 H                    1     1.60868  2     153.5 
 H                    2     1.60868  1     26.5     3     0.       0
 H                    3     1.60868  1     180.     2     0.       0
 H                    4     1.60868  2     180.     1     0.       0
 H                    5     1.60868  3     180.     2     0.       0
 H                    6     1.60868  4     180.     1     0.       0
 H                    7     1.60868  5     180.     2     0.       0
 H                    8     1.60868  6     180.     1     0.       0
 
                          Input orientation:                          
 ---------------------------------------------------------------------
 Center     Atomic      Atomic             Coordinates (Angstroms)
 Number     Number       Type             X           Y           Z
 ---------------------------------------------------------------------
      1          1           0        0.000000    0.000000    0.000000
      2          1           0        0.000000    0.000000    1.608685
      3          1           0        0.717792    0.000000   -1.439667
      4          1           0        0.717792    0.000000    0.169017
      5          1           0        1.435583    0.000000   -2.879335
      6          1           0        1.435583    0.000000   -1.270650
      7          1           0        2.153375    0.000000   -4.319002
      8          1           0        2.153375    0.000000   -2.710317
      9          1           0        2.871167    0.000000   -5.758669
     10          1           0        2.871167    0.000000   -4.149984
 ---------------------------------------------------------------------
                    Distance matrix (angstroms):
                    1          2          3          4          5
     1  H    0.000000
     2  H    1.608685   0.000000
     3  H    1.608685   3.131721   0.000000
     4  H    0.737422   1.608685   1.608685   0.000000
     5  H    3.217370   4.712029   1.608685   3.131721   0.000000
     6  H    1.917146   3.217370   0.737422   1.608685   1.608685
     7  H    4.826054   6.306702   3.217370   4.712029   1.608685
     8  H    3.461624   4.826054   1.917146   3.217370   0.737422
     9  H    6.434739   7.907054   4.826054   6.306702   3.217370
    10  H    5.046382   6.434739   3.461624   4.826054   1.917146
                    6          7          8          9         10
     6  H    0.000000
     7  H    3.131721   0.000000
     8  H    1.608685   1.608685   0.000000
     9  H    4.712029   1.608685   3.131721   0.000000
    10  H    3.217370   0.737422   1.608685   1.608685   0.000000
 Stoichiometry    H10
 Framework group  C2H[SGH(H10)]
 Deg. of freedom     9
 Full point group                 C2H     NOp   4
 Largest Abelian subgroup         C2H     NOp   4
 Largest concise Abelian subgroup C2      NOp   2
                         Standard orientation:                         
 ---------------------------------------------------------------------
 Center     Atomic      Atomic             Coordinates (Angstroms)
 Number     Number       Type             X           Y           Z
 ---------------------------------------------------------------------
      1          1           0        1.435583   -2.074992    0.000000
      2          1           0        1.435583   -3.683677    0.000000
      3          1           0        0.717792   -0.635325    0.000000
      4          1           0        0.717792   -2.244010    0.000000
      5          1           0        0.000000    0.804342    0.000000
      6          1           0        0.000000   -0.804342    0.000000
      7          1           0       -0.717792    2.244010    0.000000
      8          1           0       -0.717792    0.635325    0.000000
      9          1           0       -1.435583    3.683677    0.000000
     10          1           0       -1.435583    2.074992    0.000000
 ---------------------------------------------------------------------
 Rotational constants (GHZ):    429.1850207      8.7884207      8.6120713
 General basis read from cards:  (5D, 7F)
 There are     5 symmetry adapted cartesian basis functions of AG  symmetry.
 There are     0 symmetry adapted cartesian basis functions of BG  symmetry.
 There are     0 symmetry adapted cartesian basis functions of AU  symmetry.
 There are     5 symmetry adapted cartesian basis functions of BU  symmetry.
 There are     5 symmetry adapted basis functions of AG  symmetry.
 There are     0 symmetry adapted basis functions of BG  symmetry.
 There are     0 symmetry adapted basis functions of AU  symmetry.
 There are     5 symmetry adapted basis functions of BU  symmetry.
    10 basis functions,   100 primitive gaussians,    10 cartesian basis functions
     5 alpha electrons        5 beta electrons
       nuclear repulsion energy        11.2229092504 Hartrees.
 NAtoms=   10 NActive=   10 NUniq=    5 SFac= 4.00D+00 NAtFMM=   60 NAOKFM=F Big=F
 Integral buffers will be    131072 words long.
 Regular integral format.
 Two-electron integral symmetry is turned off.
 One-electron integrals computed using PRISM.
 NBasis=    10 RedAO= T EigKep=  1.66D-01  NBF=     5     0     0     5
 NBsUse=    10 1.00D-06 EigRej= -1.00D+00 NBFU=     5     0     0     5
 IOp(28)                       1
                        1                       0
                        2                       1
                        3                       1
                        4                      20
                        5                       0
                        6                       0
                        7                      10
                        8                       1
                        9                       4
                       10                       0
                       11              1073741824
                       12                      20
                       13                       2
                       14                  131070
                       15                       1
                       16                       1
                       17                  131073
                       18                       0
                       19                       0
                       20                       0
                       21                       2
                       22                  131070
                       23                       0
                       24                       0
                       25                       0
                       26                       0
                       27                   65535
                       28                       2
                       29                  131072
                       30                       0
 IHMeth                       1
 ib3: ISMode =                        0                       4
 Enter DskPsm, NBasis=  10 NBas6D=  10 NShell=  10 IDoSP=4.
 Out2e will use a cutoff of  1.00D-10
 FoFCou: FMM=F IPFlag=           0 FMFlag=           0 FMFlg1=           0
         NFxFlg=           0 DoJE=F BraDBF=F KetDBF=F FulRan=T
         wScrn=  0.000000 ICntrl=     600 IOpCl=  9 I1Cent=           0 NGrid=           0
         NMat0=    0 NMatS0=      0 NMatT0=    0 NMatD0=    0 NMtDS0=    0 NMtDT0=    0
 Symmetry not used in FoFCou.
 Entering PrmDigJobTyp =                      20
 LenSav and NKeep                       0                       0
 Entered Stor2E with KNTT1,2                       2                  131070
 Leave Stor2X
 Entering PrmDigJobTyp =                      20
 LenSav and NKeep                       0                       0
 Entered Stor2E with KNTT1,2                       2                  131056
 Leave Stor2X
 Entering PrmDigJobTyp =                      20
 LenSav and NKeep                       0                       0
 Entered Stor2E with KNTT1,2                       2                  131042
 Leave Stor2X
 Entering PrmDigJobTyp =                      20
 LenSav and NKeep                       0                       0
 Entered Stor2E with KNTT1,2                       2                  131028
 Leave Stor2X
 Entering PrmDigJobTyp =                      20
 LenSav and NKeep                       0                       0
 Entered Stor2E with KNTT1,2                       2                  131014
 Leave Stor2X
 Entering PrmDigJobTyp =                      20
 LenSav and NKeep                       0                       0
 Entered Stor2E with KNTT1,2                       2                  131000
 Leave Stor2X
 Entering PrmDigJobTyp =                      20
 LenSav and NKeep                       0                       0
 Entered Stor2E with KNTT1,2                       2                  130986
 Leave Stor2X
 Entering PrmDigJobTyp =                      20
 LenSav and NKeep                       0                       0
 Entered Stor2E with KNTT1,2                       2                  130972
 Leave Stor2X
 Entering PrmDigJobTyp =                      20
 LenSav and NKeep                       0                       0
 Entered Stor2E with KNTT1,2                       2                  130960
 Leave Stor2X
 Entering PrmDigJobTyp =                      20
 LenSav and NKeep                       0                       0
 Entered Stor2E with KNTT1,2                       2                  130944
 Leave Stor2X
 Entering PrmDigJobTyp =                      20
 LenSav and NKeep                       0                       0
 Entered Stor2E with KNTT1,2                       2                  130928
 Leave Stor2X
 Entering PrmDigJobTyp =                      20
 LenSav and NKeep                       0                       0
 Entered Stor2E with KNTT1,2                       2                  130912
 Leave Stor2X
 Entering PrmDigJobTyp =                      20
 LenSav and NKeep                       0                       0
 Entered Stor2E with KNTT1,2                       2                  130896
 Leave Stor2X
 Entering PrmDigJobTyp =                      20
 LenSav and NKeep                       0                       0
 Entered Stor2E with KNTT1,2                       2                  130880
 Leave Stor2X
 Entering PrmDigJobTyp =                      20
 LenSav and NKeep                       0                       0
 Entered Stor2E with KNTT1,2                       2                  130864
 Leave Stor2X
 Entering PrmDigJobTyp =                      20
 LenSav and NKeep                       0                       0
 Entered Stor2E with KNTT1,2                       2                  130848
 Leave Stor2X
 Entering PrmDigJobTyp =                      20
 LenSav and NKeep                       0                       0
 Entered Stor2E with KNTT1,2                       2                  130832
 Leave Stor2X
 Entering PrmDigJobTyp =                      20
 LenSav and NKeep                       0                       0
 Entered Stor2E with KNTT1,2                       2                  130816
 Leave Stor2X
 Entering PrmDigJobTyp =                      20
 LenSav and NKeep                       0                       0
 Entered Stor2E with KNTT1,2                       2                  130800
 Leave Stor2X
 Entering PrmDigJobTyp =                      20
 LenSav and NKeep                       0                       0
 Entered Stor2E with KNTT1,2                       2                  130784
 Leave Stor2X
 Entering PrmDigJobTyp =                      20
 LenSav and NKeep                       0                       0
 Entered Stor2E with KNTT1,2                       2                  130768
 Leave Stor2X
 Entering PrmDigJobTyp =                      20
 LenSav and NKeep                       0                       0
 Entered Stor2E with KNTT1,2                       2                  130752
 Leave Stor2X
 Entering PrmDigJobTyp =                      20
 LenSav and NKeep                       0                       0
 Entered Stor2E with KNTT1,2                       2                  130736
 Leave Stor2X
 Entering PrmDigJobTyp =                      20
 LenSav and NKeep                       0                       0
 Entered Stor2E with KNTT1,2                       2                  130720
 Leave Stor2X
 Entering PrmDigJobTyp =                      20
 LenSav and NKeep                       0                       0
 Entered Stor2E with KNTT1,2                       2                  130704
 Leave Stor2X
 Entering PrmDigJobTyp =                      20
 LenSav and NKeep                       0                       0
 Entered Stor2E with KNTT1,2                       2                  130700
 Leave Stor2X
 Entering PrmDigJobTyp =                      20
 LenSav and NKeep                       0                       0
 Entered Stor2E with KNTT1,2                       8                  130682
 Leave Stor2X
 Entering PrmDigJobTyp =                      20
 LenSav and NKeep                       0                       0
 Entered Stor2E with KNTT1,2                      22                  130672
 Leave Stor2X
 Entering PrmDigJobTyp =                      20
 LenSav and NKeep                       0                       0
 Entered Stor2E with KNTT1,2                      34                  130660
 Leave Stor2X
 Entering PrmDigJobTyp =                      20
 LenSav and NKeep                       0                       0
 Entered Stor2E with KNTT1,2                      52                  130654
 Leave Stor2X
 Entering PrmDigJobTyp =                      20
 LenSav and NKeep                       0                       0
 Entered Stor2E with KNTT1,2                      70                  130648
 Leave Stor2X
 Entering PrmDigJobTyp =                      20
 LenSav and NKeep                       0                       0
 Entered Stor2E with KNTT1,2                      88                  130642
 Leave Stor2X
 Entering PrmDigJobTyp =                      20
 LenSav and NKeep                       0                       0
 Entered Stor2E with KNTT1,2                     106                  130636
 Leave Stor2X
 Entering PrmDigJobTyp =                      20
 LenSav and NKeep                       0                       0
 Entered Stor2E with KNTT1,2                     114                  130630
 Leave Stor2X
 Entering PrmDigJobTyp =                      20
 LenSav and NKeep                       0                       0
 Entered Stor2E with KNTT1,2                     114                  130610
 Leave Stor2X
 Entering PrmDigJobTyp =                      20
 LenSav and NKeep                       0                       0
 Entered Stor2E with KNTT1,2                     114                  130590
 Leave Stor2X
 Entering PrmDigJobTyp =                      20
 LenSav and NKeep                       0                       0
 Entered Stor2E with KNTT1,2                     114                  130570
 Leave Stor2X
 Entering PrmDigJobTyp =                      20
 LenSav and NKeep                       0                       0
 Entered Stor2E with KNTT1,2                     114                  130550
 Leave Stor2X
 Entering PrmDigJobTyp =                      20
 LenSav and NKeep                       0                       0
 Entered Stor2E with KNTT1,2                     134                  130538
 Leave Stor2X
 Entering PrmDigJobTyp =                      20
 LenSav and NKeep                       0                       0
 Entered Stor2E with KNTT1,2                     154                  130526
 Leave Stor2X
 Entering PrmDigJobTyp =                      20
 LenSav and NKeep                       0                       0
 Entered Stor2E with KNTT1,2                     174                  130514
 Leave Stor2X
 Entering PrmDigJobTyp =                      20
 LenSav and NKeep                       0                       0
 Entered Stor2E with KNTT1,2                     174                  130506
 Leave Stor2X
 Entering PrmDigJobTyp =                      20
 LenSav and NKeep                       0                       0
 Entered Stor2E with KNTT1,2                     186                  130498
 Leave Stor2X
 Entering PrmDigJobTyp =                      20
 LenSav and NKeep                       0                       0
 Entered Stor2E with KNTT1,2                     186                  130484
 Leave Stor2X
 Entering PrmDigJobTyp =                      20
 LenSav and NKeep                       0                       0
 Entered Stor2E with KNTT1,2                     186                  130470
 Leave Stor2X
 Entering PrmDigJobTyp =                      20
 LenSav and NKeep                       0                       0
 Entered Stor2E with KNTT1,2                     186                  130456
 Leave Stor2X
 Entering PrmDigJobTyp =                      20
 LenSav and NKeep                       0                       0
 Entered Stor2E with KNTT1,2                     186                  130442
 Leave Stor2X
 Entering PrmDigJobTyp =                      20
 LenSav and NKeep                       0                       0
 Entered Stor2E with KNTT1,2                     186                  130428
 Leave Stor2X
 Entering PrmDigJobTyp =                      20
 LenSav and NKeep                       0                       0
 Entered Stor2E with KNTT1,2                     186                  130418
 Leave Stor2X
 Entering PrmDigJobTyp =                      20
 LenSav and NKeep                       0                       0
 Entered Stor2E with KNTT1,2                     196                  130408
 Leave Stor2X
 Entering PrmDigJobTyp =                      20
 LenSav and NKeep                       0                       0
 Entered Stor2E with KNTT1,2                     206                  130398
 Leave Stor2X
 Entering PrmDigJobTyp =                      20
 LenSav and NKeep                       0                       0
 Entered Stor2E with KNTT1,2                     224                  130396
 Leave Stor2X
 Entering PrmDigJobTyp =                      20
 LenSav and NKeep                       0                       0
 Entered Stor2E with KNTT1,2                     232                  130384
 Leave Stor2X
 Entering PrmDigJobTyp =                      20
 LenSav and NKeep                       0                       0
 Entered Stor2E with KNTT1,2                     246                  130378
 Leave Stor2X
 Entering PrmDigJobTyp =                      20
 LenSav and NKeep                       0                       0
 Entered Stor2E with KNTT1,2                     246                  130374
 Leave Stor2X
 Entering PrmDigJobTyp =                      20
 LenSav and NKeep                       0                       0
 Entered Stor2E with KNTT1,2                     262                  130364
 Leave Stor2X
 Entering PrmDigJobTyp =                      20
 LenSav and NKeep                       0                       0
 Entered Stor2E with KNTT1,2                     266                  130362
 Leave Stor2X
 Entering PrmDigJobTyp =                      20
 LenSav and NKeep                       0                       0
 Entered Stor2E with KNTT1,2                     276                  130356
 Leave Stor2X
 Entering PrmDigJobTyp =                      20
 LenSav and NKeep                       0                       0
 Entered Stor2E with KNTT1,2                     278                  130354
 Leave Stor2X
 Entering PrmDigJobTyp =                      20
 LenSav and NKeep                       0                       0
 Entered Stor2E with KNTT1,2                     278                  130332
 Leave Stor2X
 Entering PrmDigJobTyp =                      20
 LenSav and NKeep                       0                       0
 Entered Stor2E with KNTT1,2                     278                  130310
 Leave Stor2X
 Entering PrmDigJobTyp =                      20
 LenSav and NKeep                       0                       0
 Entered Stor2E with KNTT1,2                     278                  130288
 Leave Stor2X
 Entering PrmDigJobTyp =                      20
 LenSav and NKeep                       0                       0
 Entered Stor2E with KNTT1,2                     278                  130266
 Leave Stor2X
 Entering PrmDigJobTyp =                      20
 LenSav and NKeep                       0                       0
 Entered Stor2E with KNTT1,2                     278                  130244
 Leave Stor2X
 Entering PrmDigJobTyp =                      20
 LenSav and NKeep                       0                       0
 Entered Stor2E with KNTT1,2                     278                  130222
 Leave Stor2X
 Entering PrmDigJobTyp =                      20
 LenSav and NKeep                       0                       0
 Entered Stor2E with KNTT1,2                     278                  130200
 Leave Stor2X
 Entering PrmDigJobTyp =                      20
 LenSav and NKeep                       0                       0
 Entered Stor2E with KNTT1,2                     278                  130194
 Leave Stor2X
 Entering PrmDigJobTyp =                      20
 LenSav and NKeep                       0                       0
 Entered Stor2E with KNTT1,2                     296                  130180
 Leave Stor2X
 Entering PrmDigJobTyp =                      20
 LenSav and NKeep                       0                       0
 Entered Stor2E with KNTT1,2                     316                  130168
 Leave Stor2X
 Entering PrmDigJobTyp =                      20
 LenSav and NKeep                       0                       0
 Entered Stor2E with KNTT1,2                     336                  130156
 Leave Stor2X
 Entering PrmDigJobTyp =                      20
 LenSav and NKeep                       0                       0
 Entered Stor2E with KNTT1,2                     352                  130140
 Leave Stor2X
 Entering PrmDigJobTyp =                      20
 LenSav and NKeep                       0                       0
 Entered Stor2E with KNTT1,2                     372                  130128
 Leave Stor2X
 Entering PrmDigJobTyp =                      20
 LenSav and NKeep                       0                       0
 Entered Stor2E with KNTT1,2                     396                  130120
 Leave Stor2X
 Entering PrmDigJobTyp =                      20
 LenSav and NKeep                       0                       0
 Entered Stor2E with KNTT1,2                     402                  130110
 Leave Stor2X
 Entering PrmDigJobTyp =                      20
 LenSav and NKeep                       0                       0
 Entered Stor2E with KNTT1,2                     426                  130094
 Leave Stor2X
 Entering PrmDigJobTyp =                      20
 LenSav and NKeep                       0                       0
 Entered Stor2E with KNTT1,2                     442                  130086
 Leave Stor2X
 Entering PrmDigJobTyp =                      20
 LenSav and NKeep                       0                       0
 Entered Stor2E with KNTT1,2                     456                  130074
 Leave Stor2X
 Entering PrmDigJobTyp =                      20
 LenSav and NKeep                       0                       0
 Entered Stor2E with KNTT1,2                     472                  130064
 Leave Stor2X
 Entering PrmDigJobTyp =                      20
 LenSav and NKeep                       0                       0
 Entered Stor2E with KNTT1,2                     478                  130058
 Leave Stor2X
 Entering PrmDigJobTyp =                      20
 LenSav and NKeep                       0                       0
 Entered Stor2E with KNTT1,2                     502                  130040
 Leave Stor2X
 Entering PrmDigJobTyp =                      20
 LenSav and NKeep                       0                       0
 Entered Stor2E with KNTT1,2                     522                  130030
 Leave Stor2X
 Entering PrmDigJobTyp =                      20
 LenSav and NKeep                       0                       0
 Entered Stor2E with KNTT1,2                     522                  130004
 Leave Stor2X
 Entering PrmDigJobTyp =                      20
 LenSav and NKeep                       0                       0
 Entered Stor2E with KNTT1,2                     522                  129978
 Leave Stor2X
 Entering PrmDigJobTyp =                      20
 LenSav and NKeep                       0                       0
 Entered Stor2E with KNTT1,2                     522                  129970
 Leave Stor2X
 Entering PrmDigJobTyp =                      20
 LenSav and NKeep                       0                       0
 Entered Stor2E with KNTT1,2                     546                  129954
 Leave Stor2X
 Entering PrmDigJobTyp =                      20
 LenSav and NKeep                       0                       0
 Entered Stor2E with KNTT1,2                     568                  129938
 Leave Stor2X
 Entering PrmDigJobTyp =                      20
 LenSav and NKeep                       0                       0
 Entered Stor2E with KNTT1,2                     580                  129926
 Leave Stor2X
 Entering PrmDigJobTyp =                      20
 LenSav and NKeep                       0                       0
 Entered Stor2E with KNTT1,2                     596                  129918
 Leave Stor2X
 Entering PrmDigJobTyp =                      20
 LenSav and NKeep                       0                       0
 Entered Stor2E with KNTT1,2                     628                  129902
 Leave Stor2X
 Entering PrmDigJobTyp =                      20
 LenSav and NKeep                       0                       0
 Entered Stor2E with KNTT1,2                     634                  129896
 Leave Stor2X
 Entering PrmDigJobTyp =                      20
 LenSav and NKeep                       0                       0
 Entered Stor2E with KNTT1,2                     634                  129880
 Leave Stor2X
 Entering PrmDigJobTyp =                      20
 LenSav and NKeep                       0                       0
 Entered Stor2E with KNTT1,2                     634                  129864
 Leave Stor2X
 Entering PrmDigJobTyp =                      20
 LenSav and NKeep                       0                       0
 Entered Stor2E with KNTT1,2                     634                  129848
 Leave Stor2X
 Entering PrmDigJobTyp =                      20
 LenSav and NKeep                       0                       0
 Entered Stor2E with KNTT1,2                     634                  129836
 Leave Stor2X
 Entering PrmDigJobTyp =                      20
 LenSav and NKeep                       0                       0
 Entered Stor2E with KNTT1,2                     650                  129826
 Leave Stor2X
 Entering PrmDigJobTyp =                      20
 LenSav and NKeep                       0                       0
 Entered Stor2E with KNTT1,2                     664                  129814
 Leave Stor2X
 Entering PrmDigJobTyp =                      20
 LenSav and NKeep                       0                       0
 Entered Stor2E with KNTT1,2                     680                  129804
 Leave Stor2X
 Entering PrmDigJobTyp =                      20
 LenSav and NKeep                       0                       0
 Entered Stor2E with KNTT1,2                     696                  129796
 Leave Stor2X
 Entering PrmDigJobTyp =                      20
 LenSav and NKeep                       0                       0
 Entered Stor2E with KNTT1,2                     708                  129788
 Leave Stor2X
 Entering PrmDigJobTyp =                      20
 LenSav and NKeep                       0                       0
 Entered Stor2E with KNTT1,2                     708                  129784
 Leave Stor2X
 Entering PrmDigJobTyp =                      20
 LenSav and NKeep                       0                       0
 Entered Stor2E with KNTT1,2                     724                  129766
 Leave Stor2X
 Entering PrmDigJobTyp =                      20
 LenSav and NKeep                       0                       0
 Entered Stor2E with KNTT1,2                     732                  129760
 Leave Stor2X
 Entering PrmDigJobTyp =                      20
 LenSav and NKeep                       0                       0
 Entered Stor2E with KNTT1,2                     746                  129756
 Leave Stor2X
 Entering PrmDigJobTyp =                      20
 LenSav and NKeep                       0                       0
 Entered Stor2E with KNTT1,2                     752                  129750
 Leave Stor2X
 Entering PrmDigJobTyp =                      20
 LenSav and NKeep                       0                       0
 Entered Stor2E with KNTT1,2                     752                  129722
 Leave Stor2X
 Entering PrmDigJobTyp =                      20
 LenSav and NKeep                       0                       0
 Entered Stor2E with KNTT1,2                     752                  129694
 Leave Stor2X
 Entering PrmDigJobTyp =                      20
 LenSav and NKeep                       0                       0
 Entered Stor2E with KNTT1,2                     752                  129666
 Leave Stor2X
 Entering PrmDigJobTyp =                      20
 LenSav and NKeep                       0                       0
 Entered Stor2E with KNTT1,2                     752                  129650
 Leave Stor2X
 Entering PrmDigJobTyp =                      20
 LenSav and NKeep                       0                       0
 Entered Stor2E with KNTT1,2                     780                  129636
 Leave Stor2X
 Entering PrmDigJobTyp =                      20
 LenSav and NKeep                       0                       0
 Entered Stor2E with KNTT1,2                     802                  129616
 Leave Stor2X
 Entering PrmDigJobTyp =                      20
 LenSav and NKeep                       0                       0
 Entered Stor2E with KNTT1,2                     834                  129606
 Leave Stor2X
 Entering PrmDigJobTyp =                      20
 LenSav and NKeep                       0                       0
 Entered Stor2E with KNTT1,2                     834                  129602
 Leave Stor2X
 Entering PrmDigJobTyp =                      20
 LenSav and NKeep                       0                       0
 Entered Stor2E with KNTT1,2                     862                  129590
 Leave Stor2X
 Entering PrmDigJobTyp =                      20
 LenSav and NKeep                       0                       0
 Entered Stor2E with KNTT1,2                     882                  129576
 Leave Stor2X
 Entering PrmDigJobTyp =                      20
 LenSav and NKeep                       0                       0
 Entered Stor2E with KNTT1,2                     886                  129574
 Leave Stor2X
 Entering PrmDigJobTyp =                      20
 LenSav and NKeep                       0                       0
 Entered Stor2E with KNTT1,2                     920                  129554
 Leave Stor2X
 Entering PrmDigJobTyp =                      20
 LenSav and NKeep                       0                       0
 Entered Stor2E with KNTT1,2                     934                  129542
 Leave Stor2X
 Entering PrmDigJobTyp =                      20
 LenSav and NKeep                       0                       0
 Entered Stor2E with KNTT1,2                     956                  129534
 Leave Stor2X
 Entering PrmDigJobTyp =                      20
 LenSav and NKeep                       0                       0
 Entered Stor2E with KNTT1,2                     974                  129522
 Leave Stor2X
 Entering PrmDigJobTyp =                      20
 LenSav and NKeep                       0                       0
 Entered Stor2E with KNTT1,2                     990                  129508
 Leave Stor2X
 Entering PrmDigJobTyp =                      20
 LenSav and NKeep                       0                       0
 Entered Stor2E with KNTT1,2                     990                  129478
 Leave Stor2X
 Entering PrmDigJobTyp =                      20
 LenSav and NKeep                       0                       0
 Entered Stor2E with KNTT1,2                     990                  129448
 Leave Stor2X
 Entering PrmDigJobTyp =                      20
 LenSav and NKeep                       0                       0
 Entered Stor2E with KNTT1,2                     990                  129428
 Leave Stor2X
 Entering PrmDigJobTyp =                      20
 LenSav and NKeep                       0                       0
 Entered Stor2E with KNTT1,2                    1022                  129414
 Leave Stor2X
 Entering PrmDigJobTyp =                      20
 LenSav and NKeep                       0                       0
 Entered Stor2E with KNTT1,2                    1050                  129396
 Leave Stor2X
 Entering PrmDigJobTyp =                      20
 LenSav and NKeep                       0                       0
 Entered Stor2E with KNTT1,2                    1058                  129392
 Leave Stor2X
 Entering PrmDigJobTyp =                      20
 LenSav and NKeep                       0                       0
 Entered Stor2E with KNTT1,2                    1078                  129380
 Leave Stor2X
 Entering PrmDigJobTyp =                      20
 LenSav and NKeep                       0                       0
 Entered Stor2E with KNTT1,2                    1102                  129372
 Leave Stor2X
 Entering PrmDigJobTyp =                      20
 LenSav and NKeep                       0                       0
 Entered Stor2E with KNTT1,2                    1146                  129356
 Leave Stor2X
 Entering PrmDigJobTyp =                      20
 LenSav and NKeep                       0                       0
 Entered Stor2E with KNTT1,2                    1146                  129352
 Leave Stor2X
 Entering PrmDigJobTyp =                      20
 LenSav and NKeep                       0                       0
 Entered Stor2E with KNTT1,2                    1158                  129340
 Leave Stor2X
 Entering PrmDigJobTyp =                      20
 LenSav and NKeep                       0                       0
 Entered Stor2E with KNTT1,2                    1178                  129336
 Leave Stor2X
 Entering PrmDigJobTyp =                      20
 LenSav and NKeep                       0                       0
 Entered Stor2E with KNTT1,2                    1198                  129316
 Leave Stor2X
 Entering PrmDigJobTyp =                      20
 LenSav and NKeep                       0                       0
 Entered Stor2E with KNTT1,2                    1206                  129304
 Leave Stor2X
 Entering PrmDigJobTyp =                      20
 LenSav and NKeep                       0                       0
 Entered Stor2E with KNTT1,2                    1206                  129284
 Leave Stor2X
 Entering PrmDigJobTyp =                      20
 LenSav and NKeep                       0                       0
 Entered Stor2E with KNTT1,2                    1224                  129276
 Leave Stor2X
 Entering PrmDigJobTyp =                      20
 LenSav and NKeep                       0                       0
 Entered Stor2E with KNTT1,2                    1228                  129272
 Leave Stor2X
 Entering PrmDigJobTyp =                      20
 LenSav and NKeep                       0                       0
 Entered Stor2E with KNTT1,2                    1236                  129272
 Leave Stor2X
 Entering PrmDigJobTyp =                      20
 LenSav and NKeep                       0                       0
 Entered Stor2E with KNTT1,2                    1248                  129268
 Leave Stor2X
 Entering PrmDigJobTyp =                      20
 LenSav and NKeep                       0                       0
 Entered Stor2E with KNTT1,2                    1250                  129264
 Leave Stor2X
 Entering PrmDigJobTyp =                      20
 LenSav and NKeep                       0                       0
 Entered Stor2E with KNTT1,2                    1256                  129264
 Leave Stor2X
 Entering PrmDigJobTyp =                      20
 LenSav and NKeep                       0                       0
 Entered Stor2E with KNTT1,2                    1262                  129260
 Leave Stor2X
 Entering PrmDigJobTyp =                      20
 LenSav and NKeep                       0                       0
 Entered Stor2E with KNTT1,2                    1262                  129252
 Leave Stor2X
 In PrSumR
 Called IWRITE
         1539 integrals produced for a total of         1539.
 Initial guess from the checkpoint file:  "h10.chk"
 B after Tr=     0.000000    0.000000    0.000000
         Rot=    0.587862    0.000000    0.000000    0.808962 Ang= 107.99 deg.
 Mixing orbitals, IMix= 1 IMixAn=  0 NRI=2 NE=   10 Coef=  7.07106781D-01  7.07106781D-01
 Also mixing orbitals    10 and    12 Coef=  7.07106781D-01  7.07106781D-01
 Initial guess <Sx>= 0.0000 <Sy>= 0.0000 <Sz>= 0.0000 <S**2>= 0.5000 S= 0.3660
 Two-electron integrals will be kept in memory, NGetB=      152788.
 Requested convergence on RMS density matrix=1.00D-08 within 128 cycles.
 Requested convergence on MAX density matrix=1.00D-06.
 Requested convergence on             energy=1.00D-06.
 No special actions if energy rises.
 Density File Not Found. Continue as usual
 SCF Done:  E(GHF) =  -5.17206356842     A.U. after   18 cycles
            NFock= 18  Conv=0.12D-08     -V/T= 1.9936
 <Sx>= 0.0000 <Sy>= 0.0000 <Sz>= 0.0000 <S**2>= 1.0000 S= 0.6181
 <L.S>= 0.000000000000E+00
 Range of M.O.s used for correlation:     1    10
 NBasis=    10 NAE=    10 NBE=     0 NFC=     0 NFV=     0
 NROrb=     20 NOA=    10 NOB=     0 NVA=    10 NVB=     0
 jaja DoHack is true or false? T
 jaja in hckghf.F, NBasis=                      10
 jaja in hckGHF/FixOG, LC =                      800
 jaja in hckGHF/FixOG, IRwC=                      548
 bfr conversion (real):
                 1             2             3             4             5 
      1a  0.000000D+00  0.112268D+00 -0.485082D-05 -0.247382D+00  0.351985D+00
      1b  0.188888D+00  0.000000D+00  0.297141D+00 -0.582653D-05  0.000000D+00
      2a  0.000000D+00 -0.294251D-02  0.000000D+00  0.517851D-03  0.156188D-01
      2b  0.570574D-01  0.000000D+00  0.134215D+00 -0.263178D-05  0.000000D+00
      3a  0.000000D+00  0.229154D+00 -0.479868D-05 -0.244723D+00 -0.107802D+00
      3b  0.259318D+00  0.000000D+00  0.109252D+00 -0.214229D-05  0.000000D+00
      4a  0.000000D+00  0.124413D+00 -0.523626D-05 -0.267038D+00  0.360388D+00
      4b  0.199826D+00  0.000000D+00  0.306184D+00 -0.600385D-05  0.000000D+00
      5a  0.000000D+00  0.261831D+00  0.180929D-05  0.922699D-01 -0.325267D+00
      5b  0.229484D+00  0.000000D+00 -0.231609D+00  0.454153D-05  0.000000D+00
      6a  0.000000D+00  0.229484D+00 -0.454153D-05 -0.231609D+00 -0.135661D+00
      6b  0.261831D+00  0.000000D+00  0.922699D-01 -0.180929D-05  0.000000D+00
      7a  0.000000D+00  0.199826D+00  0.600385D-05  0.306184D+00  0.266940D+00
      7b  0.124413D+00  0.000000D+00 -0.267038D+00  0.523626D-05  0.000000D+00
      8a  0.000000D+00  0.259318D+00  0.214229D-05  0.109252D+00 -0.303339D+00
      8b  0.229154D+00  0.000000D+00 -0.244723D+00  0.479868D-05  0.000000D+00
      9a  0.000000D+00  0.570574D-01  0.263178D-05  0.134215D+00  0.275255D+00
      9b -0.294251D-02  0.000000D+00  0.517851D-03  0.000000D+00  0.000000D+00
     10a  0.000000D+00  0.188888D+00  0.582653D-05  0.297141D+00  0.277463D+00
     10b  0.112268D+00  0.000000D+00 -0.247382D+00  0.485082D-05  0.000000D+00
                 6             7             8             9            10 
      1a  0.000000D+00 -0.334720D+00  0.000000D+00  0.000000D+00  0.106327D+00
      1b  0.277463D+00  0.000000D+00  0.350587D-01 -0.439977D+00  0.000000D+00
      2a  0.000000D+00 -0.391913D-01  0.000000D+00  0.000000D+00  0.211009D-01
      2b  0.275255D+00  0.000000D+00  0.485411D+00  0.911194D+00  0.000000D+00
      3a  0.000000D+00  0.463913D+00  0.000000D+00  0.000000D+00 -0.215106D+00
      3b -0.303339D+00  0.000000D+00 -0.346820D+00  0.294423D+00  0.000000D+00
      4a  0.000000D+00 -0.312623D+00  0.000000D+00  0.000000D+00  0.891019D-01
      4b  0.266940D+00  0.000000D+00  0.127544D-01 -0.406367D+00  0.000000D+00
      5a  0.000000D+00 -0.318758D+00  0.000000D+00  0.000000D+00  0.325498D+00
      5b -0.135661D+00  0.000000D+00  0.457512D+00 -0.192695D+00  0.000000D+00
      6a  0.000000D+00  0.457512D+00  0.000000D+00  0.000000D+00 -0.192695D+00
      6b -0.325267D+00  0.000000D+00 -0.318758D+00  0.325498D+00  0.000000D+00
      7a  0.000000D+00  0.127544D-01  0.000000D+00  0.000000D+00 -0.406367D+00
      7b  0.360388D+00  0.000000D+00 -0.312623D+00  0.891019D-01  0.000000D+00
      8a  0.000000D+00 -0.346820D+00  0.000000D+00  0.000000D+00  0.294423D+00
      8b -0.107802D+00  0.000000D+00  0.463913D+00 -0.215106D+00  0.000000D+00
      9a  0.000000D+00  0.485411D+00  0.000000D+00  0.000000D+00  0.911194D+00
      9b  0.156188D-01  0.000000D+00 -0.391913D-01  0.211009D-01  0.000000D+00
     10a  0.000000D+00  0.350587D-01  0.000000D+00  0.000000D+00 -0.439977D+00
     10b  0.351985D+00  0.000000D+00 -0.334720D+00  0.106327D+00  0.000000D+00
                11            12            13            14            15 
      1a  0.000000D+00 -0.308174D+00 -0.400130D+00  0.000000D+00 -0.787798D+00
      1b  0.349680D-01  0.000000D+00  0.000000D+00  0.466499D+00  0.000000D+00
      2a  0.000000D+00  0.106888D+01 -0.121243D+00  0.000000D+00 -0.586978D-01
      2b -0.430917D-02  0.000000D+00  0.000000D+00  0.239277D-01  0.000000D+00
      3a  0.000000D+00 -0.370456D-01 -0.717398D+00  0.000000D+00 -0.549695D+00
      3b  0.450523D-02  0.000000D+00 -0.100151D-05  0.744186D+00  0.000000D+00
      4a  0.000000D+00 -0.177166D+00  0.503450D+00  0.000000D+00  0.869867D+00
      4b -0.198359D-01  0.000000D+00  0.000000D+00 -0.534689D+00  0.000000D+00
      5a  0.000000D+00 -0.619680D-01 -0.735513D+00  0.000000D+00  0.397456D+00
      5b  0.197551D+00  0.000000D+00  0.000000D+00  0.707427D+00  0.000000D+00
      6a  0.000000D+00  0.197551D+00  0.707427D+00  0.000000D+00  0.463692D+00
      6b -0.619680D-01  0.000000D+00  0.000000D+00 -0.735513D+00  0.000000D+00
      7a  0.000000D+00 -0.198359D-01 -0.534689D+00  0.000000D+00  0.880339D+00
      7b -0.177166D+00  0.000000D+00  0.000000D+00  0.503450D+00  0.000000D+00
      8a  0.000000D+00  0.450523D-02  0.744186D+00  0.100151D-05 -0.488216D+00
      8b -0.370456D-01  0.000000D+00  0.000000D+00 -0.717398D+00  0.000000D+00
      9a  0.000000D+00 -0.430917D-02  0.239277D-01  0.000000D+00 -0.216822D-01
      9b  0.106888D+01  0.000000D+00  0.000000D+00 -0.121243D+00  0.000000D+00
     10a  0.000000D+00  0.349680D-01  0.466499D+00  0.000000D+00 -0.812397D+00
     10b -0.308174D+00  0.000000D+00  0.000000D+00 -0.400130D+00  0.000000D+00
                16            17            18            19            20 
      1a  0.000000D+00 -0.925206D+00  0.124278D-04  0.000000D+00 -0.670269D+00
      1b -0.812397D+00  0.122387D-04  0.911125D+00 -0.630283D+00  0.000000D+00
      2a  0.000000D+00  0.352567D-02  0.000000D+00  0.000000D+00  0.403183D-01
      2b -0.216822D-01  0.000000D+00 -0.189215D-02  0.231318D-01  0.000000D+00
      3a  0.000000D+00  0.499782D+00 -0.671332D-05  0.000000D+00  0.109091D+01
      3b -0.488216D+00 -0.757969D-05 -0.564279D+00  0.107462D+01  0.000000D+00
      4a  0.000000D+00  0.925503D+00 -0.124318D-04  0.000000D+00  0.581889D+00
      4b  0.880339D+00 -0.122076D-04 -0.908811D+00  0.549143D+00  0.000000D+00
      5a  0.000000D+00  0.697217D+00 -0.936538D-05  0.000000D+00 -0.103204D+01
      5b  0.463692D+00 -0.857879D-05 -0.638659D+00 -0.105399D+01  0.000000D+00
      6a  0.000000D+00 -0.638659D+00  0.857879D-05  0.000000D+00 -0.105399D+01
      6b  0.397456D+00  0.936538D-05  0.697217D+00 -0.103204D+01  0.000000D+00
      7a  0.000000D+00 -0.908811D+00  0.122076D-04  0.000000D+00  0.549143D+00
      7b  0.869867D+00  0.124318D-04  0.925503D+00  0.581889D+00  0.000000D+00
      8a  0.000000D+00 -0.564279D+00  0.757969D-05  0.000000D+00  0.107462D+01
      8b -0.549695D+00  0.671332D-05  0.499782D+00  0.109091D+01  0.000000D+00
      9a  0.000000D+00 -0.189215D-02  0.000000D+00  0.000000D+00  0.231318D-01
      9b -0.586978D-01  0.000000D+00  0.352567D-02  0.403183D-01  0.000000D+00
     10a  0.000000D+00  0.911125D+00 -0.122387D-04  0.000000D+00 -0.630283D+00
     10b -0.787798D+00 -0.124278D-04 -0.925206D+00 -0.670269D+00  0.000000D+00
 bfr conversion (imaginary):
                 1             2             3             4             5 
      1a  0.000000D+00  0.000000D+00  0.000000D+00  0.000000D+00  0.000000D+00
      1b  0.000000D+00  0.000000D+00  0.000000D+00  0.000000D+00  0.000000D+00
      2a  0.000000D+00  0.000000D+00  0.000000D+00  0.000000D+00  0.000000D+00
      2b  0.000000D+00  0.000000D+00  0.000000D+00  0.000000D+00  0.000000D+00
      3a  0.000000D+00  0.000000D+00  0.000000D+00  0.000000D+00  0.000000D+00
      3b  0.000000D+00  0.000000D+00  0.000000D+00  0.000000D+00  0.000000D+00
      4a  0.000000D+00  0.000000D+00  0.000000D+00  0.000000D+00  0.000000D+00
      4b  0.000000D+00  0.000000D+00  0.000000D+00  0.000000D+00  0.000000D+00
      5a  0.000000D+00  0.000000D+00  0.000000D+00  0.000000D+00  0.000000D+00
      5b  0.000000D+00  0.000000D+00  0.000000D+00  0.000000D+00  0.000000D+00
      6a  0.000000D+00  0.000000D+00  0.000000D+00  0.000000D+00  0.000000D+00
      6b  0.000000D+00  0.000000D+00  0.000000D+00  0.000000D+00  0.000000D+00
      7a  0.000000D+00  0.000000D+00  0.000000D+00  0.000000D+00  0.000000D+00
      7b  0.000000D+00  0.000000D+00  0.000000D+00  0.000000D+00  0.000000D+00
      8a  0.000000D+00  0.000000D+00  0.000000D+00  0.000000D+00  0.000000D+00
      8b  0.000000D+00  0.000000D+00  0.000000D+00  0.000000D+00  0.000000D+00
      9a  0.000000D+00  0.000000D+00  0.000000D+00  0.000000D+00  0.000000D+00
      9b  0.000000D+00  0.000000D+00  0.000000D+00  0.000000D+00  0.000000D+00
     10a  0.000000D+00  0.000000D+00  0.000000D+00  0.000000D+00  0.000000D+00
     10b  0.000000D+00  0.000000D+00  0.000000D+00  0.000000D+00  0.000000D+00
                 6             7             8             9            10 
      1a  0.000000D+00  0.000000D+00  0.000000D+00  0.000000D+00  0.000000D+00
      1b  0.000000D+00  0.000000D+00  0.000000D+00  0.000000D+00  0.000000D+00
      2a  0.000000D+00  0.000000D+00  0.000000D+00  0.000000D+00  0.000000D+00
      2b  0.000000D+00  0.000000D+00  0.000000D+00  0.000000D+00  0.000000D+00
      3a  0.000000D+00  0.000000D+00  0.000000D+00  0.000000D+00  0.000000D+00
      3b  0.000000D+00  0.000000D+00  0.000000D+00  0.000000D+00  0.000000D+00
      4a  0.000000D+00  0.000000D+00  0.000000D+00  0.000000D+00  0.000000D+00
      4b  0.000000D+00  0.000000D+00  0.000000D+00  0.000000D+00  0.000000D+00
      5a  0.000000D+00  0.000000D+00  0.000000D+00  0.000000D+00  0.000000D+00
      5b  0.000000D+00  0.000000D+00  0.000000D+00  0.000000D+00  0.000000D+00
      6a  0.000000D+00  0.000000D+00  0.000000D+00  0.000000D+00  0.000000D+00
      6b  0.000000D+00  0.000000D+00  0.000000D+00  0.000000D+00  0.000000D+00
      7a  0.000000D+00  0.000000D+00  0.000000D+00  0.000000D+00  0.000000D+00
      7b  0.000000D+00  0.000000D+00  0.000000D+00  0.000000D+00  0.000000D+00
      8a  0.000000D+00  0.000000D+00  0.000000D+00  0.000000D+00  0.000000D+00
      8b  0.000000D+00  0.000000D+00  0.000000D+00  0.000000D+00  0.000000D+00
      9a  0.000000D+00  0.000000D+00  0.000000D+00  0.000000D+00  0.000000D+00
      9b  0.000000D+00  0.000000D+00  0.000000D+00  0.000000D+00  0.000000D+00
     10a  0.000000D+00  0.000000D+00  0.000000D+00  0.000000D+00  0.000000D+00
     10b  0.000000D+00  0.000000D+00  0.000000D+00  0.000000D+00  0.000000D+00
                11            12            13            14            15 
      1a  0.000000D+00  0.000000D+00  0.000000D+00  0.000000D+00  0.000000D+00
      1b  0.000000D+00  0.000000D+00  0.000000D+00  0.000000D+00  0.000000D+00
      2a  0.000000D+00  0.000000D+00  0.000000D+00  0.000000D+00  0.000000D+00
      2b  0.000000D+00  0.000000D+00  0.000000D+00  0.000000D+00  0.000000D+00
      3a  0.000000D+00  0.000000D+00  0.000000D+00  0.000000D+00  0.000000D+00
      3b  0.000000D+00  0.000000D+00  0.000000D+00  0.000000D+00  0.000000D+00
      4a  0.000000D+00  0.000000D+00  0.000000D+00  0.000000D+00  0.000000D+00
      4b  0.000000D+00  0.000000D+00  0.000000D+00  0.000000D+00  0.000000D+00
      5a  0.000000D+00  0.000000D+00  0.000000D+00  0.000000D+00  0.000000D+00
      5b  0.000000D+00  0.000000D+00  0.000000D+00  0.000000D+00  0.000000D+00
      6a  0.000000D+00  0.000000D+00  0.000000D+00  0.000000D+00  0.000000D+00
      6b  0.000000D+00  0.000000D+00  0.000000D+00  0.000000D+00  0.000000D+00
      7a  0.000000D+00  0.000000D+00  0.000000D+00  0.000000D+00  0.000000D+00
      7b  0.000000D+00  0.000000D+00  0.000000D+00  0.000000D+00  0.000000D+00
      8a  0.000000D+00  0.000000D+00  0.000000D+00  0.000000D+00  0.000000D+00
      8b  0.000000D+00  0.000000D+00  0.000000D+00  0.000000D+00  0.000000D+00
      9a  0.000000D+00  0.000000D+00  0.000000D+00  0.000000D+00  0.000000D+00
      9b  0.000000D+00  0.000000D+00  0.000000D+00  0.000000D+00  0.000000D+00
     10a  0.000000D+00  0.000000D+00  0.000000D+00  0.000000D+00  0.000000D+00
     10b  0.000000D+00  0.000000D+00  0.000000D+00  0.000000D+00  0.000000D+00
                16            17            18            19            20 
      1a  0.000000D+00  0.000000D+00  0.000000D+00  0.000000D+00  0.000000D+00
      1b  0.000000D+00  0.000000D+00  0.000000D+00  0.000000D+00  0.000000D+00
      2a  0.000000D+00  0.000000D+00  0.000000D+00  0.000000D+00  0.000000D+00
      2b  0.000000D+00  0.000000D+00  0.000000D+00  0.000000D+00  0.000000D+00
      3a  0.000000D+00  0.000000D+00  0.000000D+00  0.000000D+00  0.000000D+00
      3b  0.000000D+00  0.000000D+00  0.000000D+00  0.000000D+00  0.000000D+00
      4a  0.000000D+00  0.000000D+00  0.000000D+00  0.000000D+00  0.000000D+00
      4b  0.000000D+00  0.000000D+00  0.000000D+00  0.000000D+00  0.000000D+00
      5a  0.000000D+00  0.000000D+00  0.000000D+00  0.000000D+00  0.000000D+00
      5b  0.000000D+00  0.000000D+00  0.000000D+00  0.000000D+00  0.000000D+00
      6a  0.000000D+00  0.000000D+00  0.000000D+00  0.000000D+00  0.000000D+00
      6b  0.000000D+00  0.000000D+00  0.000000D+00  0.000000D+00  0.000000D+00
      7a  0.000000D+00  0.000000D+00  0.000000D+00  0.000000D+00  0.000000D+00
      7b  0.000000D+00  0.000000D+00  0.000000D+00  0.000000D+00  0.000000D+00
      8a  0.000000D+00  0.000000D+00  0.000000D+00  0.000000D+00  0.000000D+00
      8b  0.000000D+00  0.000000D+00  0.000000D+00  0.000000D+00  0.000000D+00
      9a  0.000000D+00  0.000000D+00  0.000000D+00  0.000000D+00  0.000000D+00
      9b  0.000000D+00  0.000000D+00  0.000000D+00  0.000000D+00  0.000000D+00
     10a  0.000000D+00  0.000000D+00  0.000000D+00  0.000000D+00  0.000000D+00
     10b  0.000000D+00  0.000000D+00  0.000000D+00  0.000000D+00  0.000000D+00
 afr conversion (alpha, real):
                 1             2             3             4             5 
      1   0.000000D+00  0.112268D+00 -0.485082D-05 -0.247382D+00  0.351985D+00
      2   0.000000D+00 -0.294251D-02  0.000000D+00  0.517851D-03  0.156188D-01
      3   0.000000D+00  0.229154D+00 -0.479868D-05 -0.244723D+00 -0.107802D+00
      4   0.000000D+00  0.124413D+00 -0.523626D-05 -0.267038D+00  0.360388D+00
      5   0.000000D+00  0.261831D+00  0.180929D-05  0.922699D-01 -0.325267D+00
      6   0.000000D+00  0.229484D+00 -0.454153D-05 -0.231609D+00 -0.135661D+00
      7   0.000000D+00  0.199826D+00  0.600385D-05  0.306184D+00  0.266940D+00
      8   0.000000D+00  0.259318D+00  0.214229D-05  0.109252D+00 -0.303339D+00
      9   0.000000D+00  0.570574D-01  0.263178D-05  0.134215D+00  0.275255D+00
     10   0.000000D+00  0.188888D+00  0.582653D-05  0.297141D+00  0.277463D+00
                 6             7             8             9            10 
      1   0.000000D+00 -0.334720D+00  0.000000D+00  0.000000D+00  0.106327D+00
      2   0.000000D+00 -0.391913D-01  0.000000D+00  0.000000D+00  0.211009D-01
      3   0.000000D+00  0.463913D+00  0.000000D+00  0.000000D+00 -0.215106D+00
      4   0.000000D+00 -0.312623D+00  0.000000D+00  0.000000D+00  0.891019D-01
      5   0.000000D+00 -0.318758D+00  0.000000D+00  0.000000D+00  0.325498D+00
      6   0.000000D+00  0.457512D+00  0.000000D+00  0.000000D+00 -0.192695D+00
      7   0.000000D+00  0.127544D-01  0.000000D+00  0.000000D+00 -0.406367D+00
      8   0.000000D+00 -0.346820D+00  0.000000D+00  0.000000D+00  0.294423D+00
      9   0.000000D+00  0.485411D+00  0.000000D+00  0.000000D+00  0.911194D+00
     10   0.000000D+00  0.350587D-01  0.000000D+00  0.000000D+00 -0.439977D+00
                11            12            13            14            15 
      1   0.000000D+00 -0.308174D+00 -0.400130D+00  0.000000D+00 -0.787798D+00
      2   0.000000D+00  0.106888D+01 -0.121243D+00  0.000000D+00 -0.586978D-01
      3   0.000000D+00 -0.370456D-01 -0.717398D+00  0.000000D+00 -0.549695D+00
      4   0.000000D+00 -0.177166D+00  0.503450D+00  0.000000D+00  0.869867D+00
      5   0.000000D+00 -0.619680D-01 -0.735513D+00  0.000000D+00  0.397456D+00
      6   0.000000D+00  0.197551D+00  0.707427D+00  0.000000D+00  0.463692D+00
      7   0.000000D+00 -0.198359D-01 -0.534689D+00  0.000000D+00  0.880339D+00
      8   0.000000D+00  0.450523D-02  0.744186D+00  0.100151D-05 -0.488216D+00
      9   0.000000D+00 -0.430917D-02  0.239277D-01  0.000000D+00 -0.216822D-01
     10   0.000000D+00  0.349680D-01  0.466499D+00  0.000000D+00 -0.812397D+00
                16            17            18            19            20 
      1   0.000000D+00 -0.925206D+00  0.124278D-04  0.000000D+00 -0.670269D+00
      2   0.000000D+00  0.352567D-02  0.000000D+00  0.000000D+00  0.403183D-01
      3   0.000000D+00  0.499782D+00 -0.671332D-05  0.000000D+00  0.109091D+01
      4   0.000000D+00  0.925503D+00 -0.124318D-04  0.000000D+00  0.581889D+00
      5   0.000000D+00  0.697217D+00 -0.936538D-05  0.000000D+00 -0.103204D+01
      6   0.000000D+00 -0.638659D+00  0.857879D-05  0.000000D+00 -0.105399D+01
      7   0.000000D+00 -0.908811D+00  0.122076D-04  0.000000D+00  0.549143D+00
      8   0.000000D+00 -0.564279D+00  0.757969D-05  0.000000D+00  0.107462D+01
      9   0.000000D+00 -0.189215D-02  0.000000D+00  0.000000D+00  0.231318D-01
     10   0.000000D+00  0.911125D+00 -0.122387D-04  0.000000D+00 -0.630283D+00
 afr conversion (alpha, imaginary):
                 1             2             3             4             5 
      1   0.000000D+00  0.000000D+00  0.000000D+00  0.000000D+00  0.000000D+00
      2   0.000000D+00  0.000000D+00  0.000000D+00  0.000000D+00  0.000000D+00
      3   0.000000D+00  0.000000D+00  0.000000D+00  0.000000D+00  0.000000D+00
      4   0.000000D+00  0.000000D+00  0.000000D+00  0.000000D+00  0.000000D+00
      5   0.000000D+00  0.000000D+00  0.000000D+00  0.000000D+00  0.000000D+00
      6   0.000000D+00  0.000000D+00  0.000000D+00  0.000000D+00  0.000000D+00
      7   0.000000D+00  0.000000D+00  0.000000D+00  0.000000D+00  0.000000D+00
      8   0.000000D+00  0.000000D+00  0.000000D+00  0.000000D+00  0.000000D+00
      9   0.000000D+00  0.000000D+00  0.000000D+00  0.000000D+00  0.000000D+00
     10   0.000000D+00  0.000000D+00  0.000000D+00  0.000000D+00  0.000000D+00
                 6             7             8             9            10 
      1   0.000000D+00  0.000000D+00  0.000000D+00  0.000000D+00  0.000000D+00
      2   0.000000D+00  0.000000D+00  0.000000D+00  0.000000D+00  0.000000D+00
      3   0.000000D+00  0.000000D+00  0.000000D+00  0.000000D+00  0.000000D+00
      4   0.000000D+00  0.000000D+00  0.000000D+00  0.000000D+00  0.000000D+00
      5   0.000000D+00  0.000000D+00  0.000000D+00  0.000000D+00  0.000000D+00
      6   0.000000D+00  0.000000D+00  0.000000D+00  0.000000D+00  0.000000D+00
      7   0.000000D+00  0.000000D+00  0.000000D+00  0.000000D+00  0.000000D+00
      8   0.000000D+00  0.000000D+00  0.000000D+00  0.000000D+00  0.000000D+00
      9   0.000000D+00  0.000000D+00  0.000000D+00  0.000000D+00  0.000000D+00
     10   0.000000D+00  0.000000D+00  0.000000D+00  0.000000D+00  0.000000D+00
                11            12            13            14            15 
      1   0.000000D+00  0.000000D+00  0.000000D+00  0.000000D+00  0.000000D+00
      2   0.000000D+00  0.000000D+00  0.000000D+00  0.000000D+00  0.000000D+00
      3   0.000000D+00  0.000000D+00  0.000000D+00  0.000000D+00  0.000000D+00
      4   0.000000D+00  0.000000D+00  0.000000D+00  0.000000D+00  0.000000D+00
      5   0.000000D+00  0.000000D+00  0.000000D+00  0.000000D+00  0.000000D+00
      6   0.000000D+00  0.000000D+00  0.000000D+00  0.000000D+00  0.000000D+00
      7   0.000000D+00  0.000000D+00  0.000000D+00  0.000000D+00  0.000000D+00
      8   0.000000D+00  0.000000D+00  0.000000D+00  0.000000D+00  0.000000D+00
      9   0.000000D+00  0.000000D+00  0.000000D+00  0.000000D+00  0.000000D+00
     10   0.000000D+00  0.000000D+00  0.000000D+00  0.000000D+00  0.000000D+00
                16            17            18            19            20 
      1   0.000000D+00  0.000000D+00  0.000000D+00  0.000000D+00  0.000000D+00
      2   0.000000D+00  0.000000D+00  0.000000D+00  0.000000D+00  0.000000D+00
      3   0.000000D+00  0.000000D+00  0.000000D+00  0.000000D+00  0.000000D+00
      4   0.000000D+00  0.000000D+00  0.000000D+00  0.000000D+00  0.000000D+00
      5   0.000000D+00  0.000000D+00  0.000000D+00  0.000000D+00  0.000000D+00
      6   0.000000D+00  0.000000D+00  0.000000D+00  0.000000D+00  0.000000D+00
      7   0.000000D+00  0.000000D+00  0.000000D+00  0.000000D+00  0.000000D+00
      8   0.000000D+00  0.000000D+00  0.000000D+00  0.000000D+00  0.000000D+00
      9   0.000000D+00  0.000000D+00  0.000000D+00  0.000000D+00  0.000000D+00
     10   0.000000D+00  0.000000D+00  0.000000D+00  0.000000D+00  0.000000D+00
 afr conversion (beta, real):
                 1             2             3             4             5 
      1   0.188888D+00  0.000000D+00  0.297141D+00 -0.582653D-05  0.000000D+00
      2   0.570574D-01  0.000000D+00  0.134215D+00 -0.263178D-05  0.000000D+00
      3   0.259318D+00  0.000000D+00  0.109252D+00 -0.214229D-05  0.000000D+00
      4   0.199826D+00  0.000000D+00  0.306184D+00 -0.600385D-05  0.000000D+00
      5   0.229484D+00  0.000000D+00 -0.231609D+00  0.454153D-05  0.000000D+00
      6   0.261831D+00  0.000000D+00  0.922699D-01 -0.180929D-05  0.000000D+00
      7   0.124413D+00  0.000000D+00 -0.267038D+00  0.523626D-05  0.000000D+00
      8   0.229154D+00  0.000000D+00 -0.244723D+00  0.479868D-05  0.000000D+00
      9  -0.294251D-02  0.000000D+00  0.517851D-03  0.000000D+00  0.000000D+00
     10   0.112268D+00  0.000000D+00 -0.247382D+00  0.485082D-05  0.000000D+00
                 6             7             8             9            10 
      1   0.277463D+00  0.000000D+00  0.350587D-01 -0.439977D+00  0.000000D+00
      2   0.275255D+00  0.000000D+00  0.485411D+00  0.911194D+00  0.000000D+00
      3  -0.303339D+00  0.000000D+00 -0.346820D+00  0.294423D+00  0.000000D+00
      4   0.266940D+00  0.000000D+00  0.127544D-01 -0.406367D+00  0.000000D+00
      5  -0.135661D+00  0.000000D+00  0.457512D+00 -0.192695D+00  0.000000D+00
      6  -0.325267D+00  0.000000D+00 -0.318758D+00  0.325498D+00  0.000000D+00
      7   0.360388D+00  0.000000D+00 -0.312623D+00  0.891019D-01  0.000000D+00
      8  -0.107802D+00  0.000000D+00  0.463913D+00 -0.215106D+00  0.000000D+00
      9   0.156188D-01  0.000000D+00 -0.391913D-01  0.211009D-01  0.000000D+00
     10   0.351985D+00  0.000000D+00 -0.334720D+00  0.106327D+00  0.000000D+00
                11            12            13            14            15 
      1   0.349680D-01  0.000000D+00  0.000000D+00  0.466499D+00  0.000000D+00
      2  -0.430917D-02  0.000000D+00  0.000000D+00  0.239277D-01  0.000000D+00
      3   0.450523D-02  0.000000D+00 -0.100151D-05  0.744186D+00  0.000000D+00
      4  -0.198359D-01  0.000000D+00  0.000000D+00 -0.534689D+00  0.000000D+00
      5   0.197551D+00  0.000000D+00  0.000000D+00  0.707427D+00  0.000000D+00
      6  -0.619680D-01  0.000000D+00  0.000000D+00 -0.735513D+00  0.000000D+00
      7  -0.177166D+00  0.000000D+00  0.000000D+00  0.503450D+00  0.000000D+00
      8  -0.370456D-01  0.000000D+00  0.000000D+00 -0.717398D+00  0.000000D+00
      9   0.106888D+01  0.000000D+00  0.000000D+00 -0.121243D+00  0.000000D+00
     10  -0.308174D+00  0.000000D+00  0.000000D+00 -0.400130D+00  0.000000D+00
                16            17            18            19            20 
      1  -0.812397D+00  0.122387D-04  0.911125D+00 -0.630283D+00  0.000000D+00
      2  -0.216822D-01  0.000000D+00 -0.189215D-02  0.231318D-01  0.000000D+00
      3  -0.488216D+00 -0.757969D-05 -0.564279D+00  0.107462D+01  0.000000D+00
      4   0.880339D+00 -0.122076D-04 -0.908811D+00  0.549143D+00  0.000000D+00
      5   0.463692D+00 -0.857879D-05 -0.638659D+00 -0.105399D+01  0.000000D+00
      6   0.397456D+00  0.936538D-05  0.697217D+00 -0.103204D+01  0.000000D+00
      7   0.869867D+00  0.124318D-04  0.925503D+00  0.581889D+00  0.000000D+00
      8  -0.549695D+00  0.671332D-05  0.499782D+00  0.109091D+01  0.000000D+00
      9  -0.586978D-01  0.000000D+00  0.352567D-02  0.403183D-01  0.000000D+00
     10  -0.787798D+00 -0.124278D-04 -0.925206D+00 -0.670269D+00  0.000000D+00
 afr conversion (beta, imaginary):
                 1             2             3             4             5 
      1   0.000000D+00  0.000000D+00  0.000000D+00  0.000000D+00  0.000000D+00
      2   0.000000D+00  0.000000D+00  0.000000D+00  0.000000D+00  0.000000D+00
      3   0.000000D+00  0.000000D+00  0.000000D+00  0.000000D+00  0.000000D+00
      4   0.000000D+00  0.000000D+00  0.000000D+00  0.000000D+00  0.000000D+00
      5   0.000000D+00  0.000000D+00  0.000000D+00  0.000000D+00  0.000000D+00
      6   0.000000D+00  0.000000D+00  0.000000D+00  0.000000D+00  0.000000D+00
      7   0.000000D+00  0.000000D+00  0.000000D+00  0.000000D+00  0.000000D+00
      8   0.000000D+00  0.000000D+00  0.000000D+00  0.000000D+00  0.000000D+00
      9   0.000000D+00  0.000000D+00  0.000000D+00  0.000000D+00  0.000000D+00
     10   0.000000D+00  0.000000D+00  0.000000D+00  0.000000D+00  0.000000D+00
                 6             7             8             9            10 
      1   0.000000D+00  0.000000D+00  0.000000D+00  0.000000D+00  0.000000D+00
      2   0.000000D+00  0.000000D+00  0.000000D+00  0.000000D+00  0.000000D+00
      3   0.000000D+00  0.000000D+00  0.000000D+00  0.000000D+00  0.000000D+00
      4   0.000000D+00  0.000000D+00  0.000000D+00  0.000000D+00  0.000000D+00
      5   0.000000D+00  0.000000D+00  0.000000D+00  0.000000D+00  0.000000D+00
      6   0.000000D+00  0.000000D+00  0.000000D+00  0.000000D+00  0.000000D+00
      7   0.000000D+00  0.000000D+00  0.000000D+00  0.000000D+00  0.000000D+00
      8   0.000000D+00  0.000000D+00  0.000000D+00  0.000000D+00  0.000000D+00
      9   0.000000D+00  0.000000D+00  0.000000D+00  0.000000D+00  0.000000D+00
     10   0.000000D+00  0.000000D+00  0.000000D+00  0.000000D+00  0.000000D+00
                11            12            13            14            15 
      1   0.000000D+00  0.000000D+00  0.000000D+00  0.000000D+00  0.000000D+00
      2   0.000000D+00  0.000000D+00  0.000000D+00  0.000000D+00  0.000000D+00
      3   0.000000D+00  0.000000D+00  0.000000D+00  0.000000D+00  0.000000D+00
      4   0.000000D+00  0.000000D+00  0.000000D+00  0.000000D+00  0.000000D+00
      5   0.000000D+00  0.000000D+00  0.000000D+00  0.000000D+00  0.000000D+00
      6   0.000000D+00  0.000000D+00  0.000000D+00  0.000000D+00  0.000000D+00
      7   0.000000D+00  0.000000D+00  0.000000D+00  0.000000D+00  0.000000D+00
      8   0.000000D+00  0.000000D+00  0.000000D+00  0.000000D+00  0.000000D+00
      9   0.000000D+00  0.000000D+00  0.000000D+00  0.000000D+00  0.000000D+00
     10   0.000000D+00  0.000000D+00  0.000000D+00  0.000000D+00  0.000000D+00
                16            17            18            19            20 
      1   0.000000D+00  0.000000D+00  0.000000D+00  0.000000D+00  0.000000D+00
      2   0.000000D+00  0.000000D+00  0.000000D+00  0.000000D+00  0.000000D+00
      3   0.000000D+00  0.000000D+00  0.000000D+00  0.000000D+00  0.000000D+00
      4   0.000000D+00  0.000000D+00  0.000000D+00  0.000000D+00  0.000000D+00
      5   0.000000D+00  0.000000D+00  0.000000D+00  0.000000D+00  0.000000D+00
      6   0.000000D+00  0.000000D+00  0.000000D+00  0.000000D+00  0.000000D+00
      7   0.000000D+00  0.000000D+00  0.000000D+00  0.000000D+00  0.000000D+00
      8   0.000000D+00  0.000000D+00  0.000000D+00  0.000000D+00  0.000000D+00
      9   0.000000D+00  0.000000D+00  0.000000D+00  0.000000D+00  0.000000D+00
     10   0.000000D+00  0.000000D+00  0.000000D+00  0.000000D+00  0.000000D+00
 jaja in hckghf.F, ISPECT =                     548
Spin block MO for GHF transformation
NOA =   10   NOB =   10
NVA =   10   NVB =   10
 NOAvA in Hack                     100
 jaja in tranN3.F, ISPECT =                     548
 in l802/tranN3.F, LSPECT =                      800
 NMat, NBtSiz,MDV                    8372                   16000
                133954722
 TranN3:  NGot= 134217728 NBasic=    263006 NTTT=       550 NMat=      8372.
 Defined bucket =                      51                   10000
 Defined bucket =                      52                   10000
 Defined bucket =                      53                   10000
 Defined bucket =                      55                   10000
 Defined bucket =                      57                   10000
 Defined bucket =                      58                   10000
 Defined bucket =                      60                   10000
 Defined bucket =                      72                   10000
 Defined bucket =                      73                   10000
 Defined bucket =                      74                   10000
 Defined bucket =                      75                   10000
 Defined bucket =                      76                   10000
 (IK/LS) integrals will be saved in memory.
 TrCghf made   2 passes through the AO integrals.
 jaja DoHack is true or false? F
 jaja in hckghf.F, NBasis=                      10
 jaja in hckGHF/FixOG, LC =                      800
 jaja in hckGHF/FixOG, IRwC=                      548
 bfr conversion (alpha, real):
                 1             2             3             4             5 
      1   0.000000D+00  0.112268D+00 -0.485082D-05 -0.247382D+00  0.351985D+00
      2   0.000000D+00 -0.294251D-02  0.000000D+00  0.517851D-03  0.156188D-01
      3   0.000000D+00  0.229154D+00 -0.479868D-05 -0.244723D+00 -0.107802D+00
      4   0.000000D+00  0.124413D+00 -0.523626D-05 -0.267038D+00  0.360388D+00
      5   0.000000D+00  0.261831D+00  0.180929D-05  0.922699D-01 -0.325267D+00
      6   0.000000D+00  0.229484D+00 -0.454153D-05 -0.231609D+00 -0.135661D+00
      7   0.000000D+00  0.199826D+00  0.600385D-05  0.306184D+00  0.266940D+00
      8   0.000000D+00  0.259318D+00  0.214229D-05  0.109252D+00 -0.303339D+00
      9   0.000000D+00  0.570574D-01  0.263178D-05  0.134215D+00  0.275255D+00
     10   0.000000D+00  0.188888D+00  0.582653D-05  0.297141D+00  0.277463D+00
                 6             7             8             9            10 
      1   0.000000D+00 -0.334720D+00  0.000000D+00  0.000000D+00  0.106327D+00
      2   0.000000D+00 -0.391913D-01  0.000000D+00  0.000000D+00  0.211009D-01
      3   0.000000D+00  0.463913D+00  0.000000D+00  0.000000D+00 -0.215106D+00
      4   0.000000D+00 -0.312623D+00  0.000000D+00  0.000000D+00  0.891019D-01
      5   0.000000D+00 -0.318758D+00  0.000000D+00  0.000000D+00  0.325498D+00
      6   0.000000D+00  0.457512D+00  0.000000D+00  0.000000D+00 -0.192695D+00
      7   0.000000D+00  0.127544D-01  0.000000D+00  0.000000D+00 -0.406367D+00
      8   0.000000D+00 -0.346820D+00  0.000000D+00  0.000000D+00  0.294423D+00
      9   0.000000D+00  0.485411D+00  0.000000D+00  0.000000D+00  0.911194D+00
     10   0.000000D+00  0.350587D-01  0.000000D+00  0.000000D+00 -0.439977D+00
                11            12            13            14            15 
      1   0.000000D+00 -0.308174D+00 -0.400130D+00  0.000000D+00 -0.787798D+00
      2   0.000000D+00  0.106888D+01 -0.121243D+00  0.000000D+00 -0.586978D-01
      3   0.000000D+00 -0.370456D-01 -0.717398D+00  0.000000D+00 -0.549695D+00
      4   0.000000D+00 -0.177166D+00  0.503450D+00  0.000000D+00  0.869867D+00
      5   0.000000D+00 -0.619680D-01 -0.735513D+00  0.000000D+00  0.397456D+00
      6   0.000000D+00  0.197551D+00  0.707427D+00  0.000000D+00  0.463692D+00
      7   0.000000D+00 -0.198359D-01 -0.534689D+00  0.000000D+00  0.880339D+00
      8   0.000000D+00  0.450523D-02  0.744186D+00  0.100151D-05 -0.488216D+00
      9   0.000000D+00 -0.430917D-02  0.239277D-01  0.000000D+00 -0.216822D-01
     10   0.000000D+00  0.349680D-01  0.466499D+00  0.000000D+00 -0.812397D+00
                16            17            18            19            20 
      1   0.000000D+00 -0.925206D+00  0.124278D-04  0.000000D+00 -0.670269D+00
      2   0.000000D+00  0.352567D-02  0.000000D+00  0.000000D+00  0.403183D-01
      3   0.000000D+00  0.499782D+00 -0.671332D-05  0.000000D+00  0.109091D+01
      4   0.000000D+00  0.925503D+00 -0.124318D-04  0.000000D+00  0.581889D+00
      5   0.000000D+00  0.697217D+00 -0.936538D-05  0.000000D+00 -0.103204D+01
      6   0.000000D+00 -0.638659D+00  0.857879D-05  0.000000D+00 -0.105399D+01
      7   0.000000D+00 -0.908811D+00  0.122076D-04  0.000000D+00  0.549143D+00
      8   0.000000D+00 -0.564279D+00  0.757969D-05  0.000000D+00  0.107462D+01
      9   0.000000D+00 -0.189215D-02  0.000000D+00  0.000000D+00  0.231318D-01
     10   0.000000D+00  0.911125D+00 -0.122387D-04  0.000000D+00 -0.630283D+00
 bfr conversion (alpha, imaginary):
                 1             2             3             4             5 
      1   0.000000D+00  0.000000D+00  0.000000D+00  0.000000D+00  0.000000D+00
      2   0.000000D+00  0.000000D+00  0.000000D+00  0.000000D+00  0.000000D+00
      3   0.000000D+00  0.000000D+00  0.000000D+00  0.000000D+00  0.000000D+00
      4   0.000000D+00  0.000000D+00  0.000000D+00  0.000000D+00  0.000000D+00
      5   0.000000D+00  0.000000D+00  0.000000D+00  0.000000D+00  0.000000D+00
      6   0.000000D+00  0.000000D+00  0.000000D+00  0.000000D+00  0.000000D+00
      7   0.000000D+00  0.000000D+00  0.000000D+00  0.000000D+00  0.000000D+00
      8   0.000000D+00  0.000000D+00  0.000000D+00  0.000000D+00  0.000000D+00
      9   0.000000D+00  0.000000D+00  0.000000D+00  0.000000D+00  0.000000D+00
     10   0.000000D+00  0.000000D+00  0.000000D+00  0.000000D+00  0.000000D+00
                 6             7             8             9            10 
      1   0.000000D+00  0.000000D+00  0.000000D+00  0.000000D+00  0.000000D+00
      2   0.000000D+00  0.000000D+00  0.000000D+00  0.000000D+00  0.000000D+00
      3   0.000000D+00  0.000000D+00  0.000000D+00  0.000000D+00  0.000000D+00
      4   0.000000D+00  0.000000D+00  0.000000D+00  0.000000D+00  0.000000D+00
      5   0.000000D+00  0.000000D+00  0.000000D+00  0.000000D+00  0.000000D+00
      6   0.000000D+00  0.000000D+00  0.000000D+00  0.000000D+00  0.000000D+00
      7   0.000000D+00  0.000000D+00  0.000000D+00  0.000000D+00  0.000000D+00
      8   0.000000D+00  0.000000D+00  0.000000D+00  0.000000D+00  0.000000D+00
      9   0.000000D+00  0.000000D+00  0.000000D+00  0.000000D+00  0.000000D+00
     10   0.000000D+00  0.000000D+00  0.000000D+00  0.000000D+00  0.000000D+00
                11            12            13            14            15 
      1   0.000000D+00  0.000000D+00  0.000000D+00  0.000000D+00  0.000000D+00
      2   0.000000D+00  0.000000D+00  0.000000D+00  0.000000D+00  0.000000D+00
      3   0.000000D+00  0.000000D+00  0.000000D+00  0.000000D+00  0.000000D+00
      4   0.000000D+00  0.000000D+00  0.000000D+00  0.000000D+00  0.000000D+00
      5   0.000000D+00  0.000000D+00  0.000000D+00  0.000000D+00  0.000000D+00
      6   0.000000D+00  0.000000D+00  0.000000D+00  0.000000D+00  0.000000D+00
      7   0.000000D+00  0.000000D+00  0.000000D+00  0.000000D+00  0.000000D+00
      8   0.000000D+00  0.000000D+00  0.000000D+00  0.000000D+00  0.000000D+00
      9   0.000000D+00  0.000000D+00  0.000000D+00  0.000000D+00  0.000000D+00
     10   0.000000D+00  0.000000D+00  0.000000D+00  0.000000D+00  0.000000D+00
                16            17            18            19            20 
      1   0.000000D+00  0.000000D+00  0.000000D+00  0.000000D+00  0.000000D+00
      2   0.000000D+00  0.000000D+00  0.000000D+00  0.000000D+00  0.000000D+00
      3   0.000000D+00  0.000000D+00  0.000000D+00  0.000000D+00  0.000000D+00
      4   0.000000D+00  0.000000D+00  0.000000D+00  0.000000D+00  0.000000D+00
      5   0.000000D+00  0.000000D+00  0.000000D+00  0.000000D+00  0.000000D+00
      6   0.000000D+00  0.000000D+00  0.000000D+00  0.000000D+00  0.000000D+00
      7   0.000000D+00  0.000000D+00  0.000000D+00  0.000000D+00  0.000000D+00
      8   0.000000D+00  0.000000D+00  0.000000D+00  0.000000D+00  0.000000D+00
      9   0.000000D+00  0.000000D+00  0.000000D+00  0.000000D+00  0.000000D+00
     10   0.000000D+00  0.000000D+00  0.000000D+00  0.000000D+00  0.000000D+00
 bfr conversion (beta, real):
                 1             2             3             4             5 
      1   0.188888D+00  0.000000D+00  0.297141D+00 -0.582653D-05  0.000000D+00
      2   0.570574D-01  0.000000D+00  0.134215D+00 -0.263178D-05  0.000000D+00
      3   0.259318D+00  0.000000D+00  0.109252D+00 -0.214229D-05  0.000000D+00
      4   0.199826D+00  0.000000D+00  0.306184D+00 -0.600385D-05  0.000000D+00
[...]
      6b 0.563520D-01 -0.306505D+00 -0.224361D+00  0.409884D+00 -0.123742D-01
      7a-0.677695D-01  0.456619D-02  0.739599D-02 -0.763829D-02 -0.192290D+00
      7b 0.165752D-01 -0.187521D+00 -0.416088D-01  0.791695D-01 -0.102714D-02
      8a-0.112859D+00 -0.928945D-02 -0.138066D-01  0.373489D-01 -0.101519D+00
      8b-0.454706D-01 -0.418749D-01  0.189854D+00 -0.367648D+00  0.105820D-01
      9a-0.425058D-01  0.245530D-02 -0.625547D-02  0.419036D-02 -0.161447D-02
      9b-0.176985D-01 -0.124233D-01 -0.177531D-01  0.303945D-01 -0.307909D-02
     10a-0.642077D-01  0.326297D-02  0.904839D-02 -0.123961D-01 -0.179083D+00
     10b 0.194087D-01 -0.190289D+00 -0.566776D-01  0.108055D+00 -0.404305D-02
                3b            4a            4b            5a            5b
      3b 0.638037D+00
      4a 0.415160D-01  0.617013D+00
      4b-0.203056D+00 -0.506911D-01  0.927305D+00
      5a 0.448896D-02 -0.135735D+00 -0.659130D-02  0.459003D+00
      5b-0.214143D+00 -0.413253D-01 -0.890412D-01 -0.172272D-02  0.624171D+00
      6a-0.185296D-01  0.192491D-01  0.276662D-01 -0.479295D-01  0.159689D-01
      6b 0.654332D+00  0.498324D-01 -0.260848D+00  0.461001D-02 -0.192554D+00
      7a-0.391835D-02 -0.772506D-01  0.285429D-02 -0.217764D-01  0.632262D-02
      7b-0.920909D-01  0.134442D-01 -0.187675D+00  0.124674D-01  0.122867D-01
      8a 0.864431D-02 -0.128407D+00 -0.934361D-02  0.455301D+00 -0.114320D-01
      8b-0.252106D+00 -0.436687D-01 -0.709720D-01 -0.635994D-02  0.641249D+00
      9a-0.887075D-02 -0.415529D-01  0.967839D-04 -0.136483D+00  0.274812D-01
      9b 0.130820D-01 -0.178957D-01 -0.115222D-01 -0.559372D-01 -0.187525D-01
     10a-0.560542D-02 -0.725062D-01  0.147952D-02 -0.455909D-01  0.705537D-02
     10b-0.651319D-01  0.159564D-01 -0.188027D+00  0.128455D-01 -0.256204D-01
                6a            6b            7a            7b            8a
      6a 0.507632D+00
      6b-0.275277D-01  0.675681D+00
      7a-0.195003D+00 -0.144826D-02  0.562607D+00
      7b-0.170262D-02 -0.914299D-01 -0.252075D-01  0.665875D+00
      8a-0.778563D-01  0.917519D-02  0.907803D-02  0.160201D-01  0.454690D+00
      8b 0.176668D-01 -0.232147D+00  0.725118D-02  0.384553D-01 -0.161232D-01
      9a-0.555628D-02 -0.554248D-02  0.170838D+00 -0.760778D-01 -0.140036D+00
      9b-0.503242D-02  0.143022D-01  0.733334D-01 -0.112295D-01 -0.575081D-01
     10a-0.183030D+00 -0.338812D-02  0.559481D+00 -0.164302D-01 -0.150127D-01
     10b-0.545118D-02 -0.649153D-01 -0.184546D-01  0.647948D+00  0.173696D-01
                8b            9a            9b           10a           10b
      8b 0.661705D+00
      9a 0.214294D-01  0.691213D+00
      9b-0.223419D-01  0.334352D+00  0.165077D+00
     10a 0.869031D-02  0.170615D+00  0.729300D-01  0.557982D+00
     10b-0.183001D-02 -0.774798D-01 -0.105348D-01 -0.100019D-01  0.633150D+00
 jaja lower-tri density matrix (imaginary):
                1a            1b            2a            2b            3a
      1a 0.000000D+00
      1b 0.000000D+00  0.000000D+00
      2a 0.000000D+00  0.000000D+00  0.000000D+00
      2b 0.000000D+00  0.000000D+00  0.000000D+00  0.000000D+00
      3a 0.000000D+00  0.000000D+00  0.000000D+00  0.000000D+00  0.000000D+00
      3b 0.000000D+00  0.000000D+00  0.000000D+00  0.000000D+00  0.000000D+00
      4a 0.000000D+00  0.000000D+00  0.000000D+00  0.000000D+00  0.000000D+00
      4b 0.000000D+00  0.000000D+00  0.000000D+00  0.000000D+00  0.000000D+00
      5a 0.000000D+00  0.000000D+00  0.000000D+00  0.000000D+00  0.000000D+00
      5b 0.000000D+00  0.000000D+00  0.000000D+00  0.000000D+00  0.000000D+00
      6a 0.000000D+00  0.000000D+00  0.000000D+00  0.000000D+00  0.000000D+00
      6b 0.000000D+00  0.000000D+00  0.000000D+00  0.000000D+00  0.000000D+00
      7a 0.000000D+00  0.000000D+00  0.000000D+00  0.000000D+00  0.000000D+00
      7b 0.000000D+00  0.000000D+00  0.000000D+00  0.000000D+00  0.000000D+00
      8a 0.000000D+00  0.000000D+00  0.000000D+00  0.000000D+00  0.000000D+00
      8b 0.000000D+00  0.000000D+00  0.000000D+00  0.000000D+00  0.000000D+00
      9a 0.000000D+00  0.000000D+00  0.000000D+00  0.000000D+00  0.000000D+00
      9b 0.000000D+00  0.000000D+00  0.000000D+00  0.000000D+00  0.000000D+00
     10a 0.000000D+00  0.000000D+00  0.000000D+00  0.000000D+00  0.000000D+00
     10b 0.000000D+00  0.000000D+00  0.000000D+00  0.000000D+00  0.000000D+00
                3b            4a            4b            5a            5b
      3b 0.000000D+00
      4a 0.000000D+00  0.000000D+00
      4b 0.000000D+00  0.000000D+00  0.000000D+00
      5a 0.000000D+00  0.000000D+00  0.000000D+00  0.000000D+00
      5b 0.000000D+00  0.000000D+00  0.000000D+00  0.000000D+00  0.000000D+00
      6a 0.000000D+00  0.000000D+00  0.000000D+00  0.000000D+00  0.000000D+00
      6b 0.000000D+00  0.000000D+00  0.000000D+00  0.000000D+00  0.000000D+00
      7a 0.000000D+00  0.000000D+00  0.000000D+00  0.000000D+00  0.000000D+00
      7b 0.000000D+00  0.000000D+00  0.000000D+00  0.000000D+00  0.000000D+00
      8a 0.000000D+00  0.000000D+00  0.000000D+00  0.000000D+00  0.000000D+00
      8b 0.000000D+00  0.000000D+00  0.000000D+00  0.000000D+00  0.000000D+00
      9a 0.000000D+00  0.000000D+00  0.000000D+00  0.000000D+00  0.000000D+00
      9b 0.000000D+00  0.000000D+00  0.000000D+00  0.000000D+00  0.000000D+00
     10a 0.000000D+00  0.000000D+00  0.000000D+00  0.000000D+00  0.000000D+00
     10b 0.000000D+00  0.000000D+00  0.000000D+00  0.000000D+00  0.000000D+00
                6a            6b            7a            7b            8a
      6a 0.000000D+00
      6b 0.000000D+00  0.000000D+00
      7a 0.000000D+00  0.000000D+00  0.000000D+00
      7b 0.000000D+00  0.000000D+00  0.000000D+00  0.000000D+00
      8a 0.000000D+00  0.000000D+00  0.000000D+00  0.000000D+00  0.000000D+00
      8b 0.000000D+00  0.000000D+00  0.000000D+00  0.000000D+00  0.000000D+00
      9a 0.000000D+00  0.000000D+00  0.000000D+00  0.000000D+00  0.000000D+00
      9b 0.000000D+00  0.000000D+00  0.000000D+00  0.000000D+00  0.000000D+00
     10a 0.000000D+00  0.000000D+00  0.000000D+00  0.000000D+00  0.000000D+00
     10b 0.000000D+00  0.000000D+00  0.000000D+00  0.000000D+00  0.000000D+00
                8b            9a            9b           10a           10b
      8b 0.000000D+00
      9a 0.000000D+00  0.000000D+00
      9b 0.000000D+00  0.000000D+00  0.000000D+00
     10a 0.000000D+00  0.000000D+00  0.000000D+00  0.000000D+00
     10b 0.000000D+00  0.000000D+00  0.000000D+00  0.000000D+00  0.000000D+00
 jaja non-ortho density matrix               [Gau-style] (real):
                 1             2             3             4             5 
      1a  0.586681D+00 -0.816181D-01 -0.117529D+00  0.275979D+00  0.202264D-01
      1b -0.816181D-01  0.973743D+00  0.301910D+00 -0.559018D+00  0.143612D-01
      2a -0.117529D+00  0.301910D+00  0.582726D+00 -0.115329D+01  0.120992D-01
      2b  0.275979D+00 -0.559018D+00 -0.115329D+01  0.229384D+01 -0.691795D-01
      3a  0.202264D-01  0.143612D-01  0.120992D-01 -0.691795D-01  0.521756D+00
      3b  0.466536D-01 -0.247145D+00 -0.195156D+00  0.352993D+00 -0.468920D-02
      4a  0.600572D+00 -0.652419D-01 -0.107718D+00  0.255513D+00  0.504826D-01
      4b -0.666429D-01  0.948605D+00  0.272202D+00 -0.501619D+00  0.135113D-01
      5a -0.121555D+00 -0.582037D-02 -0.697866D-02  0.210538D-01 -0.722827D-01
      5b -0.425322D-01 -0.627270D-01  0.171205D+00 -0.332636D+00  0.964060D-02
      6a -0.989260D-02  0.302735D-01  0.303975D-01 -0.105627D+00  0.513248D+00
      6b  0.563520D-01 -0.306505D+00 -0.224361D+00  0.409884D+00 -0.123742D-01
      7a -0.677695D-01  0.456619D-02  0.739599D-02 -0.763829D-02 -0.192290D+00
      7b  0.165752D-01 -0.187521D+00 -0.416088D-01  0.791695D-01 -0.102714D-02
      8a -0.112859D+00 -0.928945D-02 -0.138066D-01  0.373489D-01 -0.101519D+00
      8b -0.454706D-01 -0.418749D-01  0.189854D+00 -0.367648D+00  0.105820D-01
      9a -0.425058D-01  0.245530D-02 -0.625547D-02  0.419036D-02 -0.161447D-02
      9b -0.176985D-01 -0.124233D-01 -0.177531D-01  0.303945D-01 -0.307909D-02
     10a -0.642077D-01  0.326297D-02  0.904839D-02 -0.123961D-01 -0.179083D+00
     10b  0.194087D-01 -0.190289D+00 -0.566776D-01  0.108055D+00 -0.404305D-02
                 6             7             8             9            10 
      1a  0.466536D-01  0.600572D+00 -0.666429D-01 -0.121555D+00 -0.425322D-01
      1b -0.247145D+00 -0.652419D-01  0.948605D+00 -0.582037D-02 -0.627270D-01
      2a -0.195156D+00 -0.107718D+00  0.272202D+00 -0.697866D-02  0.171205D+00
      2b  0.352993D+00  0.255513D+00 -0.501619D+00  0.210538D-01 -0.332636D+00
      3a -0.468920D-02  0.504826D-01  0.135113D-01 -0.722827D-01  0.964060D-02
      3b  0.638037D+00  0.415160D-01 -0.203056D+00  0.448896D-02 -0.214143D+00
      4a  0.415160D-01  0.617013D+00 -0.506911D-01 -0.135735D+00 -0.413253D-01
      4b -0.203056D+00 -0.506911D-01  0.927305D+00 -0.659130D-02 -0.890412D-01
      5a  0.448896D-02 -0.135735D+00 -0.659130D-02  0.459003D+00 -0.172272D-02
      5b -0.214143D+00 -0.413253D-01 -0.890412D-01 -0.172272D-02  0.624171D+00
      6a -0.185296D-01  0.192491D-01  0.276662D-01 -0.479295D-01  0.159689D-01
      6b  0.654332D+00  0.498324D-01 -0.260848D+00  0.461001D-02 -0.192554D+00
      7a -0.391835D-02 -0.772506D-01  0.285429D-02 -0.217764D-01  0.632262D-02
      7b -0.920909D-01  0.134442D-01 -0.187675D+00  0.124674D-01  0.122867D-01
      8a  0.864431D-02 -0.128407D+00 -0.934361D-02  0.455301D+00 -0.114320D-01
      8b -0.252106D+00 -0.436687D-01 -0.709720D-01 -0.635994D-02  0.641249D+00
      9a -0.887075D-02 -0.415529D-01  0.967839D-04 -0.136483D+00  0.274812D-01
      9b  0.130820D-01 -0.178957D-01 -0.115222D-01 -0.559372D-01 -0.187525D-01
     10a -0.560542D-02 -0.725062D-01  0.147952D-02 -0.455909D-01  0.705537D-02
     10b -0.651319D-01  0.159564D-01 -0.188027D+00  0.128455D-01 -0.256204D-01
                11            12            13            14            15 
      1a -0.989260D-02  0.563520D-01 -0.677695D-01  0.165752D-01 -0.112859D+00
      1b  0.302735D-01 -0.306505D+00  0.456619D-02 -0.187521D+00 -0.928945D-02
      2a  0.303975D-01 -0.224361D+00  0.739599D-02 -0.416088D-01 -0.138066D-01
      2b -0.105627D+00  0.409884D+00 -0.763829D-02  0.791695D-01  0.373489D-01
      3a  0.513248D+00 -0.123742D-01 -0.192290D+00 -0.102714D-02 -0.101519D+00
      3b -0.185296D-01  0.654332D+00 -0.391835D-02 -0.920909D-01  0.864431D-02
      4a  0.192491D-01  0.498324D-01 -0.772506D-01  0.134442D-01 -0.128407D+00
      4b  0.276662D-01 -0.260848D+00  0.285429D-02 -0.187675D+00 -0.934361D-02
      5a -0.479295D-01  0.461001D-02 -0.217764D-01  0.124674D-01  0.455301D+00
      5b  0.159689D-01 -0.192554D+00  0.632262D-02  0.122867D-01 -0.114320D-01
      6a  0.507632D+00 -0.275277D-01 -0.195003D+00 -0.170262D-02 -0.778563D-01
      6b -0.275277D-01  0.675681D+00 -0.144826D-02 -0.914299D-01  0.917519D-02
      7a -0.195003D+00 -0.144826D-02  0.562607D+00 -0.252075D-01  0.907803D-02
      7b -0.170262D-02 -0.914299D-01 -0.252075D-01  0.665875D+00  0.160201D-01
      8a -0.778563D-01  0.917519D-02  0.907803D-02  0.160201D-01  0.454690D+00
      8b  0.176668D-01 -0.232147D+00  0.725118D-02  0.384553D-01 -0.161232D-01
      9a -0.555628D-02 -0.554248D-02  0.170838D+00 -0.760778D-01 -0.140036D+00
      9b -0.503242D-02  0.143022D-01  0.733334D-01 -0.112295D-01 -0.575081D-01
     10a -0.183030D+00 -0.338812D-02  0.559481D+00 -0.164302D-01 -0.150127D-01
     10b -0.545118D-02 -0.649153D-01 -0.184546D-01  0.647948D+00  0.173696D-01
                16            17            18            19            20 
      1a -0.454706D-01 -0.425058D-01 -0.176985D-01 -0.642077D-01  0.194087D-01
      1b -0.418749D-01  0.245530D-02 -0.124233D-01  0.326297D-02 -0.190289D+00
      2a  0.189854D+00 -0.625547D-02 -0.177531D-01  0.904839D-02 -0.566776D-01
      2b -0.367648D+00  0.419036D-02  0.303945D-01 -0.123961D-01  0.108055D+00
      3a  0.105820D-01 -0.161447D-02 -0.307909D-02 -0.179083D+00 -0.404305D-02
      3b -0.252106D+00 -0.887075D-02  0.130820D-01 -0.560542D-02 -0.651319D-01
      4a -0.436687D-01 -0.415529D-01 -0.178957D-01 -0.725062D-01  0.159564D-01
      4b -0.709720D-01  0.967839D-04 -0.115222D-01  0.147952D-02 -0.188027D+00
      5a -0.635994D-02 -0.136483D+00 -0.559372D-01 -0.455909D-01  0.128455D-01
      5b  0.641249D+00  0.274812D-01 -0.187525D-01  0.705537D-02 -0.256204D-01
      6a  0.176668D-01 -0.555628D-02 -0.503242D-02 -0.183030D+00 -0.545118D-02
      6b -0.232147D+00 -0.554248D-02  0.143022D-01 -0.338812D-02 -0.649153D-01
      7a  0.725118D-02  0.170838D+00  0.733334D-01  0.559481D+00 -0.184546D-01
      7b  0.384553D-01 -0.760778D-01 -0.112295D-01 -0.164302D-01  0.647948D+00
      8a -0.161232D-01 -0.140036D+00 -0.575081D-01 -0.150127D-01  0.173696D-01
      8b  0.661705D+00  0.214294D-01 -0.223419D-01  0.869031D-02 -0.183001D-02
      9a  0.214294D-01  0.691213D+00  0.334352D+00  0.170615D+00 -0.774798D-01
      9b -0.223419D-01  0.334352D+00  0.165077D+00  0.729300D-01 -0.105348D-01
     10a  0.869031D-02  0.170615D+00  0.729300D-01  0.557982D+00 -0.100019D-01
     10b -0.183001D-02 -0.774798D-01 -0.105348D-01 -0.100019D-01  0.633150D+00
 jaja non-ortho density matrix               [Gau-style] (imaginary):
                 1             2             3             4             5 
      1a  0.000000D+00  0.000000D+00  0.000000D+00  0.000000D+00  0.000000D+00
      1b  0.000000D+00  0.000000D+00  0.000000D+00  0.000000D+00  0.000000D+00
      2a  0.000000D+00  0.000000D+00  0.000000D+00  0.000000D+00  0.000000D+00
      2b  0.000000D+00  0.000000D+00  0.000000D+00  0.000000D+00  0.000000D+00
      3a  0.000000D+00  0.000000D+00  0.000000D+00  0.000000D+00  0.000000D+00
      3b  0.000000D+00  0.000000D+00  0.000000D+00  0.000000D+00  0.000000D+00
      4a  0.000000D+00  0.000000D+00  0.000000D+00  0.000000D+00  0.000000D+00
      4b  0.000000D+00  0.000000D+00  0.000000D+00  0.000000D+00  0.000000D+00
      5a  0.000000D+00  0.000000D+00  0.000000D+00  0.000000D+00  0.000000D+00
      5b  0.000000D+00  0.000000D+00  0.000000D+00  0.000000D+00  0.000000D+00
      6a  0.000000D+00  0.000000D+00  0.000000D+00  0.000000D+00  0.000000D+00
      6b  0.000000D+00  0.000000D+00  0.000000D+00  0.000000D+00  0.000000D+00
      7a  0.000000D+00  0.000000D+00  0.000000D+00  0.000000D+00  0.000000D+00
      7b  0.000000D+00  0.000000D+00  0.000000D+00  0.000000D+00  0.000000D+00
      8a  0.000000D+00  0.000000D+00  0.000000D+00  0.000000D+00  0.000000D+00
      8b  0.000000D+00  0.000000D+00  0.000000D+00  0.000000D+00  0.000000D+00
      9a  0.000000D+00  0.000000D+00  0.000000D+00  0.000000D+00  0.000000D+00
      9b  0.000000D+00  0.000000D+00  0.000000D+00  0.000000D+00  0.000000D+00
     10a  0.000000D+00  0.000000D+00  0.000000D+00  0.000000D+00  0.000000D+00
     10b  0.000000D+00  0.000000D+00  0.000000D+00  0.000000D+00  0.000000D+00
                 6             7             8             9            10 
      1a  0.000000D+00  0.000000D+00  0.000000D+00  0.000000D+00  0.000000D+00
      1b  0.000000D+00  0.000000D+00  0.000000D+00  0.000000D+00  0.000000D+00
      2a  0.000000D+00  0.000000D+00  0.000000D+00  0.000000D+00  0.000000D+00
      2b  0.000000D+00  0.000000D+00  0.000000D+00  0.000000D+00  0.000000D+00
      3a  0.000000D+00  0.000000D+00  0.000000D+00  0.000000D+00  0.000000D+00
      3b  0.000000D+00  0.000000D+00  0.000000D+00  0.000000D+00  0.000000D+00
      4a  0.000000D+00  0.000000D+00  0.000000D+00  0.000000D+00  0.000000D+00
      4b  0.000000D+00  0.000000D+00  0.000000D+00  0.000000D+00  0.000000D+00
      5a  0.000000D+00  0.000000D+00  0.000000D+00  0.000000D+00  0.000000D+00
      5b  0.000000D+00  0.000000D+00  0.000000D+00  0.000000D+00  0.000000D+00
      6a  0.000000D+00  0.000000D+00  0.000000D+00  0.000000D+00  0.000000D+00
      6b  0.000000D+00  0.000000D+00  0.000000D+00  0.000000D+00  0.000000D+00
      7a  0.000000D+00  0.000000D+00  0.000000D+00  0.000000D+00  0.000000D+00
      7b  0.000000D+00  0.000000D+00  0.000000D+00  0.000000D+00  0.000000D+00
      8a  0.000000D+00  0.000000D+00  0.000000D+00  0.000000D+00  0.000000D+00
      8b  0.000000D+00  0.000000D+00  0.000000D+00  0.000000D+00  0.000000D+00
      9a  0.000000D+00  0.000000D+00  0.000000D+00  0.000000D+00  0.000000D+00
      9b  0.000000D+00  0.000000D+00  0.000000D+00  0.000000D+00  0.000000D+00
     10a  0.000000D+00  0.000000D+00  0.000000D+00  0.000000D+00  0.000000D+00
     10b  0.000000D+00  0.000000D+00  0.000000D+00  0.000000D+00  0.000000D+00
                11            12            13            14            15 
      1a  0.000000D+00  0.000000D+00  0.000000D+00  0.000000D+00  0.000000D+00
      1b  0.000000D+00  0.000000D+00  0.000000D+00  0.000000D+00  0.000000D+00
      2a  0.000000D+00  0.000000D+00  0.000000D+00  0.000000D+00  0.000000D+00
      2b  0.000000D+00  0.000000D+00  0.000000D+00  0.000000D+00  0.000000D+00
      3a  0.000000D+00  0.000000D+00  0.000000D+00  0.000000D+00  0.000000D+00
      3b  0.000000D+00  0.000000D+00  0.000000D+00  0.000000D+00  0.000000D+00
      4a  0.000000D+00  0.000000D+00  0.000000D+00  0.000000D+00  0.000000D+00
      4b  0.000000D+00  0.000000D+00  0.000000D+00  0.000000D+00  0.000000D+00
      5a  0.000000D+00  0.000000D+00  0.000000D+00  0.000000D+00  0.000000D+00
      5b  0.000000D+00  0.000000D+00  0.000000D+00  0.000000D+00  0.000000D+00
      6a  0.000000D+00  0.000000D+00  0.000000D+00  0.000000D+00  0.000000D+00
      6b  0.000000D+00  0.000000D+00  0.000000D+00  0.000000D+00  0.000000D+00
      7a  0.000000D+00  0.000000D+00  0.000000D+00  0.000000D+00  0.000000D+00
      7b  0.000000D+00  0.000000D+00  0.000000D+00  0.000000D+00  0.000000D+00
      8a  0.000000D+00  0.000000D+00  0.000000D+00  0.000000D+00  0.000000D+00
      8b  0.000000D+00  0.000000D+00  0.000000D+00  0.000000D+00  0.000000D+00
      9a  0.000000D+00  0.000000D+00  0.000000D+00  0.000000D+00  0.000000D+00
      9b  0.000000D+00  0.000000D+00  0.000000D+00  0.000000D+00  0.000000D+00
     10a  0.000000D+00  0.000000D+00  0.000000D+00  0.000000D+00  0.000000D+00
     10b  0.000000D+00  0.000000D+00  0.000000D+00  0.000000D+00  0.000000D+00
                16            17            18            19            20 
      1a  0.000000D+00  0.000000D+00  0.000000D+00  0.000000D+00  0.000000D+00
      1b  0.000000D+00  0.000000D+00  0.000000D+00  0.000000D+00  0.000000D+00
      2a  0.000000D+00  0.000000D+00  0.000000D+00  0.000000D+00  0.000000D+00
      2b  0.000000D+00  0.000000D+00  0.000000D+00  0.000000D+00  0.000000D+00
      3a  0.000000D+00  0.000000D+00  0.000000D+00  0.000000D+00  0.000000D+00
      3b  0.000000D+00  0.000000D+00  0.000000D+00  0.000000D+00  0.000000D+00
      4a  0.000000D+00  0.000000D+00  0.000000D+00  0.000000D+00  0.000000D+00
      4b  0.000000D+00  0.000000D+00  0.000000D+00  0.000000D+00  0.000000D+00
      5a  0.000000D+00  0.000000D+00  0.000000D+00  0.000000D+00  0.000000D+00
      5b  0.000000D+00  0.000000D+00  0.000000D+00  0.000000D+00  0.000000D+00
      6a  0.000000D+00  0.000000D+00  0.000000D+00  0.000000D+00  0.000000D+00
      6b  0.000000D+00  0.000000D+00  0.000000D+00  0.000000D+00  0.000000D+00
      7a  0.000000D+00  0.000000D+00  0.000000D+00  0.000000D+00  0.000000D+00
      7b  0.000000D+00  0.000000D+00  0.000000D+00  0.000000D+00  0.000000D+00
      8a  0.000000D+00  0.000000D+00  0.000000D+00  0.000000D+00  0.000000D+00
      8b  0.000000D+00  0.000000D+00  0.000000D+00  0.000000D+00  0.000000D+00
      9a  0.000000D+00  0.000000D+00  0.000000D+00  0.000000D+00  0.000000D+00
      9b  0.000000D+00  0.000000D+00  0.000000D+00  0.000000D+00  0.000000D+00
     10a  0.000000D+00  0.000000D+00  0.000000D+00  0.000000D+00  0.000000D+00
     10b  0.000000D+00  0.000000D+00  0.000000D+00  0.000000D+00  0.000000D+00
FORTRAN STOP
