 Entering Gaussian System, Link 0=gdv
 AtFile(1): H.gbs
            H     0
            S   10   1.00
               1000.000000000000            0.000068713567
                316.227766000000            0.000169141320
                100.000000000000            0.000823394812
                 31.622776600000            0.003425569236
                 10.000000000000            0.013951996000
                  3.162277660000            0.056909313560
                  1.000000000000            0.198286399900
                  0.316227766000            0.496922426700
                  0.100000000000            0.369846276400
                  0.031622776600            0.003752720039
            ****
 Initial command:
 /users/lcj1/GHF_hess/exe-dir/l1.exe "/users/lcj1/GHF_hess/h10_2rows/readmixrmY/Gau-5652.inp" -scrdir="/users/lcj1/GHF_hess/h10_2rows/readmixrmY/"
 Entering Link 1 = /users/lcj1/GHF_hess/exe-dir/l1.exe PID=      5653.
  
 Copyright (c) 1988,1990,1992,1993,1995,1998,2003,2009,2012,
            Gaussian, Inc.  All Rights Reserved.
  
 This is the private, development version of
 the Gaussian(R) DV system of programs. It is based on
 the Gaussian(R) 09 system (copyright 2009, Gaussian, Inc.),
 the Gaussian(R) 03 system (copyright 2003, Gaussian, Inc.),
 the Gaussian(R) 98 system (copyright 1998, Gaussian, Inc.),
 the Gaussian(R) 94 system (copyright 1995, Gaussian, Inc.),
 the Gaussian 92(TM) system (copyright 1992, Gaussian, Inc.),
 the Gaussian 90(TM) system (copyright 1990, Gaussian, Inc.),
 the Gaussian 88(TM) system (copyright 1988, Gaussian, Inc.),
 the Gaussian 86(TM) system (copyright 1986, Carnegie Mellon
 University), and the Gaussian 82(TM) system (copyright 1983,
 Carnegie Mellon University). Gaussian is a federally registered
 trademark of Gaussian, Inc.
  
 This software contains proprietary and confidential information,
 including trade secrets, belonging to Gaussian, Inc.
  
 This software is provided under written license and may be
 used, copied, transmitted, or stored only in accord with that
 written license.
  
 The following legend is applicable only to US Government
 contracts under FAR:
  
                    RESTRICTED RIGHTS LEGEND
  
 Use, reproduction and disclosure by the US Government is
 subject to restrictions as set forth in subparagraphs (a)
 and (c) of the Commercial Computer Software - Restricted
 Rights clause in FAR 52.227-19.
  
 Gaussian, Inc.
 340 Quinnipiac St., Bldg. 40, Wallingford CT 06492
  
  
 ---------------------------------------------------------------
 Warning -- This program may not be used in any manner that
 competes with the business of Gaussian, Inc. or will provide
 assistance to any competitor of Gaussian, Inc.  The licensee
 of this program is prohibited from giving any competitor of
 Gaussian, Inc. access to this program.  By using this program,
 the user acknowledges that Gaussian, Inc. is engaged in the
 business of creating and licensing software in the field of
 computational chemistry and represents and warrants to the
 licensee that it is not a competitor of Gaussian, Inc. and that
 it will not use this program in any manner prohibited above.
 ---------------------------------------------------------------
  

 Cite this work as:
 Gaussian Development Version, Revision H.21,
 M. J. Frisch, G. W. Trucks, H. B. Schlegel, G. E. Scuseria, 
 M. A. Robb, J. R. Cheeseman, G. Scalmani, V. Barone, B. Mennucci, 
 G. A. Petersson, H. Nakatsuji, M. Caricato, X. Li, H. P. Hratchian, 
 A. F. Izmaylov, J. Bloino, G. Zheng, J. L. Sonnenberg, W. Liang, 
 M. Hada, M. Ehara, K. Toyota, R. Fukuda, J. Hasegawa, M. Ishida, 
 T. Nakajima, Y. Honda, O. Kitao, H. Nakai, T. Vreven, 
 J. A. Montgomery, Jr., J. E. Peralta, F. Ogliaro, M. Bearpark, 
 J. J. Heyd, E. Brothers, K. N. Kudin, V. N. Staroverov, T. Keith, 
 R. Kobayashi, J. Normand, K. Raghavachari, A. Rendell, J. C. Burant, 
 S. S. Iyengar, J. Tomasi, M. Cossi, N. Rega, J. M. Millam, M. Klene, 
 J. E. Knox, J. B. Cross, V. Bakken, C. Adamo, J. Jaramillo, 
 R. Gomperts, R. E. Stratmann, O. Yazyev, A. J. Austin, R. Cammi, 
 C. Pomelli, J. W. Ochterski, R. L. Martin, K. Morokuma, 
 V. G. Zakrzewski, G. A. Voth, P. Salvador, J. J. Dannenberg, 
 S. Dapprich, P. V. Parandekar, N. J. Mayhall, A. D. Daniels, 
 O. Farkas, J. B. Foresman, J. V. Ortiz, J. Cioslowski, 
 and D. J. Fox, Gaussian, Inc., Wallingford CT, 2010.
 
 ******************************************
 Gaussian DV:  EM64L-GDVRevH.21 13-May-2012
                28-Feb-2017 
 ******************************************
 %chk=h10.chk
 ----------------------------------------------------------------------
 #ghf/gen scf(tight,novaracc,noincfock,fulldiag) stable guess=(read,mix
 ) geom=nocrowd use=l802 use=l902 test
 ----------------------------------------------------------------------
 ********************************************
   THE COMPLEX ERI TRANSFORMATION WITH L802  
        COMPLEX STABILITY WITH L902          
 ********************************************
 1/38=1/1;
 2/12=1,17=6,18=5,40=1/2;
 3/5=7,16=1,25=20,28=1,116=7/1,2,3,20;
 4/5=1,13=-1/1;
 5/5=100001,16=1,32=2,38=6/2;
 8/6=1,10=90,11=11/1,2;
 9/8=4,13=1/1,2;
 6/7=2,8=2,9=2,10=2,28=1/1;
 99/5=1,9=1/99;
 ----------------------------------------------------------------------
 hf stability analysis of h10 triangular lattice, y= 2.0941375407372735
  alpha= 82.500000000000000
 ----------------------------------------------------------------------
 Symbolic Z-Matrix:
 Charge =  0 Multiplicity = 1
 H
 H                    1     2.11221 
 H                    1     2.11221  2     15. 
 H                    2     2.11221  1     165.     3     0.       0
 H                    3     2.11221  1     180.     2     0.       0
 H                    4     2.11221  2     180.     1     0.       0
 H                    5     2.11221  3     180.     2     0.       0
 H                    6     2.11221  4     180.     1     0.       0
 H                    7     2.11221  5     180.     2     0.       0
 H                    8     2.11221  6     180.     1     0.       0
 
                          Input orientation:                          
 ---------------------------------------------------------------------
 Center     Atomic      Atomic             Coordinates (Angstroms)
 Number     Number       Type             X           Y           Z
 ---------------------------------------------------------------------
      1          1           0        0.000000    0.000000    0.000000
      2          1           0        0.000000    0.000000    2.112208
      3          1           0        0.546680    0.000000    2.040236
      4          1           0        0.546680    0.000000    4.152444
      5          1           0        1.093359    0.000000    4.080472
      6          1           0        1.093359    0.000000    6.192680
      7          1           0        1.640039    0.000000    6.120708
      8          1           0        1.640039    0.000000    8.232916
      9          1           0        2.186718    0.000000    8.160944
     10          1           0        2.186718    0.000000   10.273152
 ---------------------------------------------------------------------
                    Distance matrix (angstroms):
                    1          2          3          4          5
     1  H    0.000000
     2  H    2.112208   0.000000
     3  H    2.112208   0.551397   0.000000
     4  H    4.188275   2.112208   2.112208   0.000000
     5  H    4.224416   2.251555   2.112208   0.551397   0.000000
     6  H    6.288459   4.224416   4.188275   2.112208   2.112208
     7  H    6.336623   4.331028   4.224416   2.251555   2.112208
     8  H    8.394679   6.336623   6.288459   4.224416   4.188275
     9  H    8.448831   6.431870   6.336623   4.331028   4.224416
    10  H   10.503304   8.448831   8.394679   6.336623   6.288459
                    6          7          8          9         10
     6  H    0.000000
     7  H    0.551397   0.000000
     8  H    2.112208   2.112208   0.000000
     9  H    2.251555   2.112208   0.551397   0.000000
    10  H    4.224416   4.188275   2.112208   2.112208   0.000000
 Stoichiometry    H10
 Framework group  C2H[SGH(H10)]
 Deg. of freedom     9
 Full point group                 C2H     NOp   4
 Largest Abelian subgroup         C2H     NOp   4
 Largest concise Abelian subgroup C2      NOp   2
                         Standard orientation:                         
 ---------------------------------------------------------------------
 Center     Atomic      Atomic             Coordinates (Angstroms)
 Number     Number       Type             X           Y           Z
 ---------------------------------------------------------------------
      1          1           0        1.093359    5.136576    0.000000
      2          1           0        1.093359    3.024368    0.000000
      3          1           0        0.546680    3.096340    0.000000
      4          1           0        0.546680    0.984132    0.000000
      5          1           0        0.000000    1.056104    0.000000
      6          1           0        0.000000   -1.056104    0.000000
      7          1           0       -0.546680   -0.984132    0.000000
      8          1           0       -0.546680   -3.096340    0.000000
      9          1           0       -1.093359   -3.024368    0.000000
     10          1           0       -1.093359   -5.136576    0.000000
 ---------------------------------------------------------------------
 Rotational constants (GHZ):    750.0264772      5.0289639      4.9954690
 General basis read from cards:  (5D, 7F)
 There are     5 symmetry adapted cartesian basis functions of AG  symmetry.
 There are     0 symmetry adapted cartesian basis functions of BG  symmetry.
 There are     0 symmetry adapted cartesian basis functions of AU  symmetry.
 There are     5 symmetry adapted cartesian basis functions of BU  symmetry.
 There are     5 symmetry adapted basis functions of AG  symmetry.
 There are     0 symmetry adapted basis functions of BG  symmetry.
 There are     0 symmetry adapted basis functions of AU  symmetry.
 There are     5 symmetry adapted basis functions of BU  symmetry.
    10 basis functions,   100 primitive gaussians,    10 cartesian basis functions
     5 alpha electrons        5 beta electrons
       nuclear repulsion energy        10.2726653222 Hartrees.
 NAtoms=   10 NActive=   10 NUniq=    5 SFac= 4.00D+00 NAtFMM=   60 NAOKFM=F Big=F
 Integral buffers will be    131072 words long.
 Regular integral format.
 Two-electron integral symmetry is turned off.
 One-electron integrals computed using PRISM.
 NBasis=    10 RedAO= T EigKep=  1.28D-01  NBF=     5     0     0     5
 NBsUse=    10 1.00D-06 EigRej= -1.00D+00 NBFU=     5     0     0     5
 IOp(28)                       1
                        1                       0
                        2                       1
                        3                       1
                        4                      20
                        5                       0
                        6                       0
                        7                      10
                        8                       1
                        9                       4
                       10                       0
                       11              1073741824
                       12                      20
                       13                       2
                       14                  131070
                       15                       1
                       16                       1
                       17                  131073
                       18                       0
                       19                       0
                       20                       0
                       21                       2
                       22                  131070
                       23                       0
                       24                       0
                       25                       0
                       26                       0
                       27                   65535
                       28                       2
                       29                  131072
                       30                       0
 IHMeth                       1
 ib3: ISMode =                        0                       4
 Enter DskPsm, NBasis=  10 NBas6D=  10 NShell=  10 IDoSP=4.
 Out2e will use a cutoff of  1.00D-10
 FoFCou: FMM=F IPFlag=           0 FMFlag=           0 FMFlg1=           0
         NFxFlg=           0 DoJE=F BraDBF=F KetDBF=F FulRan=T
         wScrn=  0.000000 ICntrl=     600 IOpCl=  9 I1Cent=           0 NGrid=           0
         NMat0=    0 NMatS0=      0 NMatT0=    0 NMatD0=    0 NMtDS0=    0 NMtDT0=    0
 Symmetry not used in FoFCou.
 Entering PrmDigJobTyp =                      20
 LenSav and NKeep                       0                       0
 Entered Stor2E with KNTT1,2                       2                  131070
 Leave Stor2X
 Entering PrmDigJobTyp =                      20
 LenSav and NKeep                       0                       0
 Entered Stor2E with KNTT1,2                       2                  131056
 Leave Stor2X
 Entering PrmDigJobTyp =                      20
 LenSav and NKeep                       0                       0
 Entered Stor2E with KNTT1,2                       2                  131042
 Leave Stor2X
 Entering PrmDigJobTyp =                      20
 LenSav and NKeep                       0                       0
 Entered Stor2E with KNTT1,2                       2                  131028
 Leave Stor2X
 Entering PrmDigJobTyp =                      20
 LenSav and NKeep                       0                       0
 Entered Stor2E with KNTT1,2                       2                  131014
 Leave Stor2X
 Entering PrmDigJobTyp =                      20
 LenSav and NKeep                       0                       0
 Entered Stor2E with KNTT1,2                       2                  131000
 Leave Stor2X
 Entering PrmDigJobTyp =                      20
 LenSav and NKeep                       0                       0
 Entered Stor2E with KNTT1,2                       2                  130986
 Leave Stor2X
 Entering PrmDigJobTyp =                      20
 LenSav and NKeep                       0                       0
 Entered Stor2E with KNTT1,2                       2                  130972
 Leave Stor2X
 Entering PrmDigJobTyp =                      20
 LenSav and NKeep                       0                       0
 Entered Stor2E with KNTT1,2                       2                  130960
 Leave Stor2X
 Entering PrmDigJobTyp =                      20
 LenSav and NKeep                       0                       0
 Entered Stor2E with KNTT1,2                       2                  130944
 Leave Stor2X
 Entering PrmDigJobTyp =                      20
 LenSav and NKeep                       0                       0
 Entered Stor2E with KNTT1,2                       2                  130928
 Leave Stor2X
 Entering PrmDigJobTyp =                      20
 LenSav and NKeep                       0                       0
 Entered Stor2E with KNTT1,2                       2                  130912
 Leave Stor2X
 Entering PrmDigJobTyp =                      20
 LenSav and NKeep                       0                       0
 Entered Stor2E with KNTT1,2                       2                  130896
 Leave Stor2X
 Entering PrmDigJobTyp =                      20
 LenSav and NKeep                       0                       0
 Entered Stor2E with KNTT1,2                       2                  130880
 Leave Stor2X
 Entering PrmDigJobTyp =                      20
 LenSav and NKeep                       0                       0
 Entered Stor2E with KNTT1,2                       2                  130864
 Leave Stor2X
 Entering PrmDigJobTyp =                      20
 LenSav and NKeep                       0                       0
 Entered Stor2E with KNTT1,2                       2                  130848
 Leave Stor2X
 Entering PrmDigJobTyp =                      20
 LenSav and NKeep                       0                       0
 Entered Stor2E with KNTT1,2                       2                  130832
 Leave Stor2X
 Entering PrmDigJobTyp =                      20
 LenSav and NKeep                       0                       0
 Entered Stor2E with KNTT1,2                       2                  130816
 Leave Stor2X
 Entering PrmDigJobTyp =                      20
 LenSav and NKeep                       0                       0
 Entered Stor2E with KNTT1,2                       2                  130800
 Leave Stor2X
 Entering PrmDigJobTyp =                      20
 LenSav and NKeep                       0                       0
 Entered Stor2E with KNTT1,2                       2                  130784
 Leave Stor2X
 Entering PrmDigJobTyp =                      20
 LenSav and NKeep                       0                       0
 Entered Stor2E with KNTT1,2                       2                  130768
 Leave Stor2X
 Entering PrmDigJobTyp =                      20
 LenSav and NKeep                       0                       0
 Entered Stor2E with KNTT1,2                       2                  130752
 Leave Stor2X
 Entering PrmDigJobTyp =                      20
 LenSav and NKeep                       0                       0
 Entered Stor2E with KNTT1,2                       2                  130736
 Leave Stor2X
 Entering PrmDigJobTyp =                      20
 LenSav and NKeep                       0                       0
 Entered Stor2E with KNTT1,2                       2                  130720
 Leave Stor2X
 Entering PrmDigJobTyp =                      20
 LenSav and NKeep                       0                       0
 Entered Stor2E with KNTT1,2                       2                  130704
 Leave Stor2X
 Entering PrmDigJobTyp =                      20
 LenSav and NKeep                       0                       0
 Entered Stor2E with KNTT1,2                       2                  130700
 Leave Stor2X
 Entering PrmDigJobTyp =                      20
 LenSav and NKeep                       0                       0
 Entered Stor2E with KNTT1,2                      10                  130682
 Leave Stor2X
 Entering PrmDigJobTyp =                      20
 LenSav and NKeep                       0                       0
 Entered Stor2E with KNTT1,2                      24                  130670
 Leave Stor2X
 Entering PrmDigJobTyp =                      20
 LenSav and NKeep                       0                       0
 Entered Stor2E with KNTT1,2                      40                  130660
 Leave Stor2X
 Entering PrmDigJobTyp =                      20
 LenSav and NKeep                       0                       0
 Entered Stor2E with KNTT1,2                      60                  130654
 Leave Stor2X
 Entering PrmDigJobTyp =                      20
 LenSav and NKeep                       0                       0
 Entered Stor2E with KNTT1,2                      76                  130644
 Leave Stor2X
 Entering PrmDigJobTyp =                      20
 LenSav and NKeep                       0                       0
 Entered Stor2E with KNTT1,2                      94                  130636
 Leave Stor2X
 Entering PrmDigJobTyp =                      20
 LenSav and NKeep                       0                       0
 Entered Stor2E with KNTT1,2                     114                  130630
 Leave Stor2X
 Entering PrmDigJobTyp =                      20
 LenSav and NKeep                       0                       0
 Entered Stor2E with KNTT1,2                     114                  130616
 Leave Stor2X
 Entering PrmDigJobTyp =                      20
 LenSav and NKeep                       0                       0
 Entered Stor2E with KNTT1,2                     114                  130602
 Leave Stor2X
 Entering PrmDigJobTyp =                      20
 LenSav and NKeep                       0                       0
 Entered Stor2E with KNTT1,2                     114                  130588
 Leave Stor2X
 Entering PrmDigJobTyp =                      20
 LenSav and NKeep                       0                       0
 Entered Stor2E with KNTT1,2                     114                  130574
 Leave Stor2X
 Entering PrmDigJobTyp =                      20
 LenSav and NKeep                       0                       0
 Entered Stor2E with KNTT1,2                     114                  130560
 Leave Stor2X
 Entering PrmDigJobTyp =                      20
 LenSav and NKeep                       0                       0
 Entered Stor2E with KNTT1,2                     114                  130550
 Leave Stor2X
 Entering PrmDigJobTyp =                      20
 LenSav and NKeep                       0                       0
 Entered Stor2E with KNTT1,2                     124                  130540
 Leave Stor2X
 Entering PrmDigJobTyp =                      20
 LenSav and NKeep                       0                       0
 Entered Stor2E with KNTT1,2                     134                  130530
 Leave Stor2X
 Entering PrmDigJobTyp =                      20
 LenSav and NKeep                       0                       0
 Entered Stor2E with KNTT1,2                     152                  130528
 Leave Stor2X
 Entering PrmDigJobTyp =                      20
 LenSav and NKeep                       0                       0
 Entered Stor2E with KNTT1,2                     160                  130516
 Leave Stor2X
 Entering PrmDigJobTyp =                      20
 LenSav and NKeep                       0                       0
 Entered Stor2E with KNTT1,2                     174                  130510
 Leave Stor2X
 Entering PrmDigJobTyp =                      20
 LenSav and NKeep                       0                       0
 Entered Stor2E with KNTT1,2                     174                  130506
 Leave Stor2X
 Entering PrmDigJobTyp =                      20
 LenSav and NKeep                       0                       0
 Entered Stor2E with KNTT1,2                     184                  130500
 Leave Stor2X
 Entering PrmDigJobTyp =                      20
 LenSav and NKeep                       0                       0
 Entered Stor2E with KNTT1,2                     186                  130498
 Leave Stor2X
 Entering PrmDigJobTyp =                      20
 LenSav and NKeep                       0                       0
 Entered Stor2E with KNTT1,2                     186                  130476
 Leave Stor2X
 Entering PrmDigJobTyp =                      20
 LenSav and NKeep                       0                       0
 Entered Stor2E with KNTT1,2                     186                  130454
 Leave Stor2X
 Entering PrmDigJobTyp =                      20
 LenSav and NKeep                       0                       0
 Entered Stor2E with KNTT1,2                     186                  130432
 Leave Stor2X
 Entering PrmDigJobTyp =                      20
 LenSav and NKeep                       0                       0
 Entered Stor2E with KNTT1,2                     186                  130418
 Leave Stor2X
 Entering PrmDigJobTyp =                      20
 LenSav and NKeep                       0                       0
 Entered Stor2E with KNTT1,2                     206                  130402
 Leave Stor2X
 Entering PrmDigJobTyp =                      20
 LenSav and NKeep                       0                       0
 Entered Stor2E with KNTT1,2                     226                  130386
 Leave Stor2X
 Entering PrmDigJobTyp =                      20
 LenSav and NKeep                       0                       0
 Entered Stor2E with KNTT1,2                     246                  130374
 Leave Stor2X
 Entering PrmDigJobTyp =                      20
 LenSav and NKeep                       0                       0
 Entered Stor2E with KNTT1,2                     262                  130364
 Leave Stor2X
 Entering PrmDigJobTyp =                      20
 LenSav and NKeep                       0                       0
 Entered Stor2E with KNTT1,2                     266                  130362
 Leave Stor2X
 Entering PrmDigJobTyp =                      20
 LenSav and NKeep                       0                       0
 Entered Stor2E with KNTT1,2                     278                  130354
 Leave Stor2X
 Entering PrmDigJobTyp =                      20
 LenSav and NKeep                       0                       0
 Entered Stor2E with KNTT1,2                     278                  130330
 Leave Stor2X
 Entering PrmDigJobTyp =                      20
 LenSav and NKeep                       0                       0
 Entered Stor2E with KNTT1,2                     278                  130306
 Leave Stor2X
 Entering PrmDigJobTyp =                      20
 LenSav and NKeep                       0                       0
 Entered Stor2E with KNTT1,2                     278                  130282
 Leave Stor2X
 Entering PrmDigJobTyp =                      20
 LenSav and NKeep                       0                       0
 Entered Stor2E with KNTT1,2                     278                  130258
 Leave Stor2X
 Entering PrmDigJobTyp =                      20
 LenSav and NKeep                       0                       0
 Entered Stor2E with KNTT1,2                     278                  130234
 Leave Stor2X
 Entering PrmDigJobTyp =                      20
 LenSav and NKeep                       0                       0
 Entered Stor2E with KNTT1,2                     278                  130210
 Leave Stor2X
 Entering PrmDigJobTyp =                      20
 LenSav and NKeep                       0                       0
 Entered Stor2E with KNTT1,2                     278                  130194
 Leave Stor2X
 Entering PrmDigJobTyp =                      20
 LenSav and NKeep                       0                       0
 Entered Stor2E with KNTT1,2                     300                  130178
 Leave Stor2X
 Entering PrmDigJobTyp =                      20
 LenSav and NKeep                       0                       0
 Entered Stor2E with KNTT1,2                     324                  130164
 Leave Stor2X
 Entering PrmDigJobTyp =                      20
 LenSav and NKeep                       0                       0
 Entered Stor2E with KNTT1,2                     346                  130148
 Leave Stor2X
 Entering PrmDigJobTyp =                      20
 LenSav and NKeep                       0                       0
 Entered Stor2E with KNTT1,2                     368                  130132
 Leave Stor2X
 Entering PrmDigJobTyp =                      20
 LenSav and NKeep                       0                       0
 Entered Stor2E with KNTT1,2                     394                  130120
 Leave Stor2X
 Entering PrmDigJobTyp =                      20
 LenSav and NKeep                       0                       0
 Entered Stor2E with KNTT1,2                     402                  130110
 Leave Stor2X
 Entering PrmDigJobTyp =                      20
 LenSav and NKeep                       0                       0
 Entered Stor2E with KNTT1,2                     418                  130098
 Leave Stor2X
 Entering PrmDigJobTyp =                      20
 LenSav and NKeep                       0                       0
 Entered Stor2E with KNTT1,2                     432                  130084
 Leave Stor2X
 Entering PrmDigJobTyp =                      20
 LenSav and NKeep                       0                       0
 Entered Stor2E with KNTT1,2                     438                  130082
 Leave Stor2X
 Entering PrmDigJobTyp =                      20
 LenSav and NKeep                       0                       0
 Entered Stor2E with KNTT1,2                     470                  130064
 Leave Stor2X
 Entering PrmDigJobTyp =                      20
 LenSav and NKeep                       0                       0
 Entered Stor2E with KNTT1,2                     478                  130058
 Leave Stor2X
 Entering PrmDigJobTyp =                      20
 LenSav and NKeep                       0                       0
 Entered Stor2E with KNTT1,2                     510                  130038
 Leave Stor2X
 Entering PrmDigJobTyp =                      20
 LenSav and NKeep                       0                       0
 Entered Stor2E with KNTT1,2                     522                  130030
 Leave Stor2X
 Entering PrmDigJobTyp =                      20
 LenSav and NKeep                       0                       0
 Entered Stor2E with KNTT1,2                     522                  130012
 Leave Stor2X
 Entering PrmDigJobTyp =                      20
 LenSav and NKeep                       0                       0
 Entered Stor2E with KNTT1,2                     522                  129994
 Leave Stor2X
 Entering PrmDigJobTyp =                      20
 LenSav and NKeep                       0                       0
 Entered Stor2E with KNTT1,2                     522                  129976
 Leave Stor2X
 Entering PrmDigJobTyp =                      20
 LenSav and NKeep                       0                       0
 Entered Stor2E with KNTT1,2                     522                  129970
 Leave Stor2X
 Entering PrmDigJobTyp =                      20
 LenSav and NKeep                       0                       0
 Entered Stor2E with KNTT1,2                     538                  129960
 Leave Stor2X
 Entering PrmDigJobTyp =                      20
 LenSav and NKeep                       0                       0
 Entered Stor2E with KNTT1,2                     552                  129948
 Leave Stor2X
 Entering PrmDigJobTyp =                      20
 LenSav and NKeep                       0                       0
 Entered Stor2E with KNTT1,2                     568                  129938
 Leave Stor2X
 Entering PrmDigJobTyp =                      20
 LenSav and NKeep                       0                       0
 Entered Stor2E with KNTT1,2                     580                  129930
 Leave Stor2X
 Entering PrmDigJobTyp =                      20
 LenSav and NKeep                       0                       0
 Entered Stor2E with KNTT1,2                     580                  129926
 Leave Stor2X
 Entering PrmDigJobTyp =                      20
 LenSav and NKeep                       0                       0
 Entered Stor2E with KNTT1,2                     596                  129918
 Leave Stor2X
 Entering PrmDigJobTyp =                      20
 LenSav and NKeep                       0                       0
 Entered Stor2E with KNTT1,2                     616                  129900
 Leave Stor2X
 Entering PrmDigJobTyp =                      20
 LenSav and NKeep                       0                       0
 Entered Stor2E with KNTT1,2                     620                  129894
 Leave Stor2X
 Entering PrmDigJobTyp =                      20
 LenSav and NKeep                       0                       0
 Entered Stor2E with KNTT1,2                     626                  129888
 Leave Stor2X
 Entering PrmDigJobTyp =                      20
 LenSav and NKeep                       0                       0
 Entered Stor2E with KNTT1,2                     626                  129858
 Leave Stor2X
 Entering PrmDigJobTyp =                      20
 LenSav and NKeep                       0                       0
 Entered Stor2E with KNTT1,2                     626                  129828
 Leave Stor2X
 Entering PrmDigJobTyp =                      20
 LenSav and NKeep                       0                       0
 Entered Stor2E with KNTT1,2                     626                  129798
 Leave Stor2X
 Entering PrmDigJobTyp =                      20
 LenSav and NKeep                       0                       0
 Entered Stor2E with KNTT1,2                     626                  129768
 Leave Stor2X
 Entering PrmDigJobTyp =                      20
 LenSav and NKeep                       0                       0
 Entered Stor2E with KNTT1,2                     626                  129738
 Leave Stor2X
 Entering PrmDigJobTyp =                      20
 LenSav and NKeep                       0                       0
 Entered Stor2E with KNTT1,2                     626                  129728
 Leave Stor2X
 Entering PrmDigJobTyp =                      20
 LenSav and NKeep                       0                       0
 Entered Stor2E with KNTT1,2                     654                  129708
 Leave Stor2X
 Entering PrmDigJobTyp =                      20
 LenSav and NKeep                       0                       0
 Entered Stor2E with KNTT1,2                     684                  129690
 Leave Stor2X
 Entering PrmDigJobTyp =                      20
 LenSav and NKeep                       0                       0
 Entered Stor2E with KNTT1,2                     714                  129672
 Leave Stor2X
 Entering PrmDigJobTyp =                      20
 LenSav and NKeep                       0                       0
 Entered Stor2E with KNTT1,2                     746                  129656
 Leave Stor2X
 Entering PrmDigJobTyp =                      20
 LenSav and NKeep                       0                       0
 Entered Stor2E with KNTT1,2                     754                  129648
 Leave Stor2X
 Entering PrmDigJobTyp =                      20
 LenSav and NKeep                       0                       0
 Entered Stor2E with KNTT1,2                     776                  129634
 Leave Stor2X
 Entering PrmDigJobTyp =                      20
 LenSav and NKeep                       0                       0
 Entered Stor2E with KNTT1,2                     794                  129624
 Leave Stor2X
 Entering PrmDigJobTyp =                      20
 LenSav and NKeep                       0                       0
 Entered Stor2E with KNTT1,2                     834                  129600
 Leave Stor2X
 Entering PrmDigJobTyp =                      20
 LenSav and NKeep                       0                       0
 Entered Stor2E with KNTT1,2                     878                  129578
 Leave Stor2X
 Entering PrmDigJobTyp =                      20
 LenSav and NKeep                       0                       0
 Entered Stor2E with KNTT1,2                     914                  129552
 Leave Stor2X
 Entering PrmDigJobTyp =                      20
 LenSav and NKeep                       0                       0
 Entered Stor2E with KNTT1,2                     946                  129536
 Leave Stor2X
 Entering PrmDigJobTyp =                      20
 LenSav and NKeep                       0                       0
 Entered Stor2E with KNTT1,2                     990                  129508
 Leave Stor2X
 Entering PrmDigJobTyp =                      20
 LenSav and NKeep                       0                       0
 Entered Stor2E with KNTT1,2                     990                  129464
 Leave Stor2X
 Entering PrmDigJobTyp =                      20
 LenSav and NKeep                       0                       0
 Entered Stor2E with KNTT1,2                     990                  129428
 Leave Stor2X
 Entering PrmDigJobTyp =                      20
 LenSav and NKeep                       0                       0
 Entered Stor2E with KNTT1,2                    1036                  129406
 Leave Stor2X
 Entering PrmDigJobTyp =                      20
 LenSav and NKeep                       0                       0
 Entered Stor2E with KNTT1,2                    1058                  129392
 Leave Stor2X
 Entering PrmDigJobTyp =                      20
 LenSav and NKeep                       0                       0
 Entered Stor2E with KNTT1,2                    1082                  129384
 Leave Stor2X
 Entering PrmDigJobTyp =                      20
 LenSav and NKeep                       0                       0
 Entered Stor2E with KNTT1,2                    1102                  129372
 Leave Stor2X
 Entering PrmDigJobTyp =                      20
 LenSav and NKeep                       0                       0
 Entered Stor2E with KNTT1,2                    1146                  129352
 Leave Stor2X
 Entering PrmDigJobTyp =                      20
 LenSav and NKeep                       0                       0
 Entered Stor2E with KNTT1,2                    1166                  129348
 Leave Stor2X
 Entering PrmDigJobTyp =                      20
 LenSav and NKeep                       0                       0
 Entered Stor2E with KNTT1,2                    1172                  129340
 Leave Stor2X
 Entering PrmDigJobTyp =                      20
 LenSav and NKeep                       0                       0
 Entered Stor2E with KNTT1,2                    1178                  129332
 Leave Stor2X
 Entering PrmDigJobTyp =                      20
 LenSav and NKeep                       0                       0
 Entered Stor2E with KNTT1,2                    1188                  129328
 Leave Stor2X
 Entering PrmDigJobTyp =                      20
 LenSav and NKeep                       0                       0
 Entered Stor2E with KNTT1,2                    1196                  129322
 Leave Stor2X
 Entering PrmDigJobTyp =                      20
 LenSav and NKeep                       0                       0
 Entered Stor2E with KNTT1,2                    1198                  129316
 Leave Stor2X
 Entering PrmDigJobTyp =                      20
 LenSav and NKeep                       0                       0
 Entered Stor2E with KNTT1,2                    1198                  129316
 Leave Stor2X
 Entering PrmDigJobTyp =                      20
 LenSav and NKeep                       0                       0
 Entered Stor2E with KNTT1,2                    1198                  129296
 Leave Stor2X
 Entering PrmDigJobTyp =                      20
 LenSav and NKeep                       0                       0
 Entered Stor2E with KNTT1,2                    1216                  129288
 Leave Stor2X
 Entering PrmDigJobTyp =                      20
 LenSav and NKeep                       0                       0
 Entered Stor2E with KNTT1,2                    1224                  129288
 Leave Stor2X
 Entering PrmDigJobTyp =                      20
 LenSav and NKeep                       0                       0
 Entered Stor2E with KNTT1,2                    1228                  129284
 Leave Stor2X
 Entering PrmDigJobTyp =                      20
 LenSav and NKeep                       0                       0
 Entered Stor2E with KNTT1,2                    1240                  129280
 Leave Stor2X
 Entering PrmDigJobTyp =                      20
 LenSav and NKeep                       0                       0
 Entered Stor2E with KNTT1,2                    1246                  129280
 Leave Stor2X
 In PrSumR
 Called IWRITE
         1517 integrals produced for a total of         1517.
 Initial guess from the checkpoint file:  "h10.chk"
 B after Tr=     0.000000    0.000000    0.000000
         Rot=    0.983090    0.000000    0.000000   -0.183121 Ang= -21.10 deg.
 Mixing orbitals, IMix= 1 IMixAn=  0 NRI=2 NE=   10 Coef=  7.07106781D-01  7.07106781D-01
 Also mixing orbitals    10 and    12 Coef=  7.07106781D-01  7.07106781D-01
 Initial guess <Sx>= 0.0000 <Sy>= 0.0000 <Sz>= 0.0000 <S**2>= 0.5000 S= 0.3660
 Two-electron integrals will be kept in memory, NGetB=      152788.
 Requested convergence on RMS density matrix=1.00D-08 within 128 cycles.
 Requested convergence on MAX density matrix=1.00D-06.
 Requested convergence on             energy=1.00D-06.
 No special actions if energy rises.
 Density File Not Found. Continue as usual
 SCF Done:  E(GHF) =  -5.01913498963     A.U. after   12 cycles
            NFock= 12  Conv=0.20D-08     -V/T= 2.0525
 <Sx>= 0.0000 <Sy>= 0.0000 <Sz>= 0.0000 <S**2>= 1.0000 S= 0.6180
 <L.S>= 0.000000000000E+00
 Range of M.O.s used for correlation:     1    10
 NBasis=    10 NAE=    10 NBE=     0 NFC=     0 NFV=     0
 NROrb=     20 NOA=    10 NOB=     0 NVA=    10 NVB=     0
 jaja DoHack is true or false? T
 jaja in hckghf.F, NBasis=                      10
 jaja in hckGHF/FixOG, LC =                      800
 jaja in hckGHF/FixOG, IRwC=                      548
 bfr conversion (real):
                 1             2             3             4             5 
      1a  0.000000D+00 -0.770497D-02  0.140565D-01  0.000000D+00  0.000000D+00
      1b  0.230054D-01  0.000000D+00  0.000000D+00  0.451926D-01  0.633933D-01
      2a  0.000000D+00  0.145389D+00 -0.278492D+00  0.107730D-05  0.000000D+00
      2b  0.195721D+00  0.000000D+00  0.119584D-05  0.309135D+00  0.310263D+00
      3a  0.000000D+00  0.144761D+00 -0.278902D+00  0.107889D-05  0.000000D+00
      3b  0.195218D+00  0.000000D+00  0.119942D-05  0.310060D+00  0.312901D+00
      4a  0.000000D+00  0.258812D+00 -0.218952D+00  0.000000D+00  0.000000D+00
      4b  0.277504D+00  0.000000D+00  0.000000D+00  0.135299D+00 -0.254920D+00
      5a  0.000000D+00  0.257882D+00 -0.221023D+00  0.000000D+00  0.000000D+00
      5b  0.277019D+00  0.000000D+00  0.000000D+00  0.138040D+00 -0.252860D+00
      6a  0.000000D+00  0.277019D+00  0.138040D+00  0.000000D+00  0.000000D+00
      6b  0.257882D+00  0.000000D+00  0.000000D+00 -0.221023D+00 -0.160813D+00
      7a  0.000000D+00  0.277504D+00  0.135299D+00  0.000000D+00  0.000000D+00
      7b  0.258812D+00  0.000000D+00  0.000000D+00 -0.218952D+00 -0.163436D+00
      8a  0.000000D+00  0.195218D+00  0.310060D+00 -0.119942D-05  0.000000D+00
      8b  0.144761D+00  0.000000D+00 -0.107889D-05 -0.278902D+00  0.345800D+00
      9a  0.000000D+00  0.195721D+00  0.309135D+00 -0.119584D-05  0.000000D+00
      9b  0.145389D+00  0.000000D+00 -0.107730D-05 -0.278492D+00  0.343276D+00
     10a  0.000000D+00  0.230054D-01  0.451926D-01  0.000000D+00  0.000000D+00
     10b -0.770497D-02  0.000000D+00  0.000000D+00  0.140565D-01 -0.158004D-01
                 6             7             8             9            10 
      1a -0.158004D-01  0.000000D+00  0.104619D-01  0.871846D-05  0.000000D+00
      1b  0.000000D+00  0.566704D-01  0.000000D+00  0.000000D+00  0.101617D+01
      2a  0.343276D+00  0.000000D+00 -0.258144D+00  0.250377D-02  0.000000D+00
      2b  0.000000D+00  0.193442D+00  0.000000D+00  0.000000D+00 -0.158143D+00
      3a  0.345800D+00  0.000000D+00 -0.260543D+00  0.240481D-02  0.000000D+00
      3b  0.000000D+00  0.195371D+00  0.000000D+00  0.000000D+00 -0.158287D+00
      4a -0.163436D+00  0.000000D+00  0.390437D+00 -0.105592D-01  0.000000D+00
      4b  0.000000D+00 -0.363859D+00  0.000000D+00  0.000000D+00  0.398225D-01
      5a -0.160813D+00  0.000000D+00  0.390575D+00 -0.101100D-01  0.000000D+00
      5b  0.000000D+00 -0.364330D+00  0.000000D+00  0.000000D+00  0.422487D-01
      6a -0.252860D+00  0.000000D+00 -0.364330D+00  0.422487D-01  0.000000D+00
      6b  0.000000D+00  0.390575D+00  0.000000D+00  0.000000D+00 -0.101100D-01
      7a -0.254920D+00  0.000000D+00 -0.363859D+00  0.398225D-01  0.000000D+00
      7b  0.000000D+00  0.390437D+00  0.000000D+00  0.000000D+00 -0.105592D-01
      8a  0.312901D+00  0.000000D+00  0.195371D+00 -0.158287D+00  0.000000D+00
      8b  0.000000D+00 -0.260543D+00  0.000000D+00  0.000000D+00  0.240481D-02
      9a  0.310263D+00  0.000000D+00  0.193442D+00 -0.158143D+00  0.000000D+00
      9b  0.000000D+00 -0.258144D+00  0.000000D+00  0.000000D+00  0.250377D-02
     10a  0.633933D-01  0.000000D+00  0.566704D-01  0.101617D+01  0.000000D+00
     10b  0.000000D+00  0.104619D-01  0.000000D+00  0.000000D+00  0.871838D-05
                11            12            13            14            15 
      1a  0.000000D+00  0.102064D+01  0.626029D-02  0.000000D+00 -0.504064D-02
      1b -0.168358D-03  0.000000D+00  0.000000D+00 -0.318335D-02  0.000000D+00
      2a  0.000000D+00 -0.981857D-01  0.622730D+00  0.000000D+00 -0.105876D+01
      2b  0.664198D-03  0.000000D+00  0.000000D+00 -0.639956D+00  0.000000D+00
      3a  0.000000D+00 -0.943429D-01 -0.639723D+00  0.000000D+00  0.107439D+01
      3b  0.221463D-03  0.000000D+00  0.000000D+00  0.656603D+00  0.000000D+00
      4a  0.000000D+00  0.668760D-02  0.997708D+00  0.000000D+00 -0.666157D+00
      4b -0.311194D-02  0.000000D+00  0.000000D+00 -0.100459D+01  0.000000D+00
      5a  0.000000D+00  0.245550D-01 -0.100192D+01  0.000000D+00  0.640263D+00
      5b -0.217461D-02  0.000000D+00  0.000000D+00  0.100848D+01  0.000000D+00
      6a  0.000000D+00 -0.217460D-02  0.100848D+01  0.000000D+00  0.614116D+00
      6b  0.245550D-01  0.000000D+00  0.000000D+00 -0.100192D+01  0.000000D+00
      7a  0.000000D+00 -0.311194D-02 -0.100459D+01  0.000000D+00 -0.640558D+00
      7b  0.668760D-02  0.000000D+00  0.000000D+00  0.997708D+00  0.000000D+00
      8a  0.000000D+00  0.221463D-03  0.656603D+00  0.000000D+00  0.108262D+01
      8b -0.943429D-01  0.000000D+00  0.000000D+00 -0.639723D+00  0.000000D+00
      9a  0.000000D+00  0.664198D-03 -0.639956D+00  0.000000D+00 -0.106770D+01
      9b -0.981857D-01  0.000000D+00  0.000000D+00  0.622730D+00  0.000000D+00
     10a  0.000000D+00 -0.168358D-03 -0.318335D-02  0.000000D+00 -0.272815D-02
     10b  0.102064D+01  0.000000D+00  0.000000D+00  0.626029D-02  0.000000D+00
                16            17            18            19            20 
      1a  0.000000D+00 -0.204341D-02  0.000000D+00  0.588198D-02  0.000000D+00
      1b -0.272815D-02  0.000000D+00  0.127683D-02  0.000000D+00  0.373345D-02
      2a  0.000000D+00  0.112697D+01  0.000000D+00 -0.735902D+00  0.000000D+00
      2b -0.106770D+01  0.000000D+00 -0.111805D+01  0.000000D+00 -0.721850D+00
      3a  0.000000D+00 -0.112076D+01  0.000000D+00  0.714680D+00  0.000000D+00
      3b  0.108262D+01  0.000000D+00  0.111154D+01  0.000000D+00  0.701043D+00
      4a  0.000000D+00 -0.683475D+00  0.000000D+00  0.120624D+01  0.000000D+00
      4b -0.640558D+00  0.000000D+00  0.707299D+00  0.000000D+00  0.120062D+01
      5a  0.000000D+00  0.717234D+00  0.000000D+00 -0.119707D+01  0.000000D+00
      5b  0.614116D+00  0.000000D+00 -0.740547D+00  0.000000D+00 -0.119114D+01
      6a  0.000000D+00 -0.740547D+00  0.000000D+00 -0.119114D+01  0.000000D+00
      6b  0.640263D+00  0.000000D+00  0.717234D+00  0.000000D+00 -0.119707D+01
      7a  0.000000D+00  0.707300D+00  0.000000D+00  0.120062D+01  0.000000D+00
      7b -0.666157D+00  0.000000D+00 -0.683475D+00  0.000000D+00  0.120624D+01
      8a  0.000000D+00  0.111154D+01  0.000000D+00  0.701043D+00  0.000000D+00
      8b  0.107439D+01  0.000000D+00 -0.112076D+01  0.000000D+00  0.714680D+00
      9a  0.000000D+00 -0.111805D+01  0.000000D+00 -0.721850D+00  0.000000D+00
      9b -0.105876D+01  0.000000D+00  0.112697D+01  0.000000D+00 -0.735902D+00
     10a  0.000000D+00  0.127683D-02  0.000000D+00  0.373345D-02  0.000000D+00
     10b -0.504064D-02  0.000000D+00 -0.204341D-02  0.000000D+00  0.588198D-02
 bfr conversion (imaginary):
                 1             2             3             4             5 
      1a  0.000000D+00  0.000000D+00  0.000000D+00  0.000000D+00  0.000000D+00
      1b  0.000000D+00  0.000000D+00  0.000000D+00  0.000000D+00  0.000000D+00
      2a  0.000000D+00  0.000000D+00  0.000000D+00  0.000000D+00  0.000000D+00
      2b  0.000000D+00  0.000000D+00  0.000000D+00  0.000000D+00  0.000000D+00
      3a  0.000000D+00  0.000000D+00  0.000000D+00  0.000000D+00  0.000000D+00
      3b  0.000000D+00  0.000000D+00  0.000000D+00  0.000000D+00  0.000000D+00
      4a  0.000000D+00  0.000000D+00  0.000000D+00  0.000000D+00  0.000000D+00
      4b  0.000000D+00  0.000000D+00  0.000000D+00  0.000000D+00  0.000000D+00
      5a  0.000000D+00  0.000000D+00  0.000000D+00  0.000000D+00  0.000000D+00
      5b  0.000000D+00  0.000000D+00  0.000000D+00  0.000000D+00  0.000000D+00
      6a  0.000000D+00  0.000000D+00  0.000000D+00  0.000000D+00  0.000000D+00
      6b  0.000000D+00  0.000000D+00  0.000000D+00  0.000000D+00  0.000000D+00
      7a  0.000000D+00  0.000000D+00  0.000000D+00  0.000000D+00  0.000000D+00
      7b  0.000000D+00  0.000000D+00  0.000000D+00  0.000000D+00  0.000000D+00
      8a  0.000000D+00  0.000000D+00  0.000000D+00  0.000000D+00  0.000000D+00
      8b  0.000000D+00  0.000000D+00  0.000000D+00  0.000000D+00  0.000000D+00
      9a  0.000000D+00  0.000000D+00  0.000000D+00  0.000000D+00  0.000000D+00
      9b  0.000000D+00  0.000000D+00  0.000000D+00  0.000000D+00  0.000000D+00
     10a  0.000000D+00  0.000000D+00  0.000000D+00  0.000000D+00  0.000000D+00
     10b  0.000000D+00  0.000000D+00  0.000000D+00  0.000000D+00  0.000000D+00
                 6             7             8             9            10 
      1a  0.000000D+00  0.000000D+00  0.000000D+00  0.000000D+00  0.000000D+00
      1b  0.000000D+00  0.000000D+00  0.000000D+00  0.000000D+00  0.000000D+00
      2a  0.000000D+00  0.000000D+00  0.000000D+00  0.000000D+00  0.000000D+00
      2b  0.000000D+00  0.000000D+00  0.000000D+00  0.000000D+00  0.000000D+00
      3a  0.000000D+00  0.000000D+00  0.000000D+00  0.000000D+00  0.000000D+00
      3b  0.000000D+00  0.000000D+00  0.000000D+00  0.000000D+00  0.000000D+00
      4a  0.000000D+00  0.000000D+00  0.000000D+00  0.000000D+00  0.000000D+00
      4b  0.000000D+00  0.000000D+00  0.000000D+00  0.000000D+00  0.000000D+00
      5a  0.000000D+00  0.000000D+00  0.000000D+00  0.000000D+00  0.000000D+00
      5b  0.000000D+00  0.000000D+00  0.000000D+00  0.000000D+00  0.000000D+00
      6a  0.000000D+00  0.000000D+00  0.000000D+00  0.000000D+00  0.000000D+00
      6b  0.000000D+00  0.000000D+00  0.000000D+00  0.000000D+00  0.000000D+00
      7a  0.000000D+00  0.000000D+00  0.000000D+00  0.000000D+00  0.000000D+00
      7b  0.000000D+00  0.000000D+00  0.000000D+00  0.000000D+00  0.000000D+00
      8a  0.000000D+00  0.000000D+00  0.000000D+00  0.000000D+00  0.000000D+00
      8b  0.000000D+00  0.000000D+00  0.000000D+00  0.000000D+00  0.000000D+00
      9a  0.000000D+00  0.000000D+00  0.000000D+00  0.000000D+00  0.000000D+00
      9b  0.000000D+00  0.000000D+00  0.000000D+00  0.000000D+00  0.000000D+00
     10a  0.000000D+00  0.000000D+00  0.000000D+00  0.000000D+00  0.000000D+00
     10b  0.000000D+00  0.000000D+00  0.000000D+00  0.000000D+00  0.000000D+00
                11            12            13            14            15 
      1a  0.000000D+00  0.000000D+00  0.000000D+00  0.000000D+00  0.000000D+00
      1b  0.000000D+00  0.000000D+00  0.000000D+00  0.000000D+00  0.000000D+00
      2a  0.000000D+00  0.000000D+00  0.000000D+00  0.000000D+00  0.000000D+00
      2b  0.000000D+00  0.000000D+00  0.000000D+00  0.000000D+00  0.000000D+00
      3a  0.000000D+00  0.000000D+00  0.000000D+00  0.000000D+00  0.000000D+00
      3b  0.000000D+00  0.000000D+00  0.000000D+00  0.000000D+00  0.000000D+00
      4a  0.000000D+00  0.000000D+00  0.000000D+00  0.000000D+00  0.000000D+00
      4b  0.000000D+00  0.000000D+00  0.000000D+00  0.000000D+00  0.000000D+00
      5a  0.000000D+00  0.000000D+00  0.000000D+00  0.000000D+00  0.000000D+00
      5b  0.000000D+00  0.000000D+00  0.000000D+00  0.000000D+00  0.000000D+00
      6a  0.000000D+00  0.000000D+00  0.000000D+00  0.000000D+00  0.000000D+00
      6b  0.000000D+00  0.000000D+00  0.000000D+00  0.000000D+00  0.000000D+00
      7a  0.000000D+00  0.000000D+00  0.000000D+00  0.000000D+00  0.000000D+00
      7b  0.000000D+00  0.000000D+00  0.000000D+00  0.000000D+00  0.000000D+00
      8a  0.000000D+00  0.000000D+00  0.000000D+00  0.000000D+00  0.000000D+00
      8b  0.000000D+00  0.000000D+00  0.000000D+00  0.000000D+00  0.000000D+00
      9a  0.000000D+00  0.000000D+00  0.000000D+00  0.000000D+00  0.000000D+00
      9b  0.000000D+00  0.000000D+00  0.000000D+00  0.000000D+00  0.000000D+00
     10a  0.000000D+00  0.000000D+00  0.000000D+00  0.000000D+00  0.000000D+00
     10b  0.000000D+00  0.000000D+00  0.000000D+00  0.000000D+00  0.000000D+00
                16            17            18            19            20 
      1a  0.000000D+00  0.000000D+00  0.000000D+00  0.000000D+00  0.000000D+00
      1b  0.000000D+00  0.000000D+00  0.000000D+00  0.000000D+00  0.000000D+00
      2a  0.000000D+00  0.000000D+00  0.000000D+00  0.000000D+00  0.000000D+00
      2b  0.000000D+00  0.000000D+00  0.000000D+00  0.000000D+00  0.000000D+00
      3a  0.000000D+00  0.000000D+00  0.000000D+00  0.000000D+00  0.000000D+00
      3b  0.000000D+00  0.000000D+00  0.000000D+00  0.000000D+00  0.000000D+00
      4a  0.000000D+00  0.000000D+00  0.000000D+00  0.000000D+00  0.000000D+00
      4b  0.000000D+00  0.000000D+00  0.000000D+00  0.000000D+00  0.000000D+00
      5a  0.000000D+00  0.000000D+00  0.000000D+00  0.000000D+00  0.000000D+00
      5b  0.000000D+00  0.000000D+00  0.000000D+00  0.000000D+00  0.000000D+00
      6a  0.000000D+00  0.000000D+00  0.000000D+00  0.000000D+00  0.000000D+00
      6b  0.000000D+00  0.000000D+00  0.000000D+00  0.000000D+00  0.000000D+00
      7a  0.000000D+00  0.000000D+00  0.000000D+00  0.000000D+00  0.000000D+00
      7b  0.000000D+00  0.000000D+00  0.000000D+00  0.000000D+00  0.000000D+00
      8a  0.000000D+00  0.000000D+00  0.000000D+00  0.000000D+00  0.000000D+00
      8b  0.000000D+00  0.000000D+00  0.000000D+00  0.000000D+00  0.000000D+00
      9a  0.000000D+00  0.000000D+00  0.000000D+00  0.000000D+00  0.000000D+00
      9b  0.000000D+00  0.000000D+00  0.000000D+00  0.000000D+00  0.000000D+00
     10a  0.000000D+00  0.000000D+00  0.000000D+00  0.000000D+00  0.000000D+00
     10b  0.000000D+00  0.000000D+00  0.000000D+00  0.000000D+00  0.000000D+00
 afr conversion (alpha, real):
                 1             2             3             4             5 
      1   0.000000D+00 -0.770497D-02  0.140565D-01  0.000000D+00  0.000000D+00
      2   0.000000D+00  0.145389D+00 -0.278492D+00  0.107730D-05  0.000000D+00
      3   0.000000D+00  0.144761D+00 -0.278902D+00  0.107889D-05  0.000000D+00
      4   0.000000D+00  0.258812D+00 -0.218952D+00  0.000000D+00  0.000000D+00
      5   0.000000D+00  0.257882D+00 -0.221023D+00  0.000000D+00  0.000000D+00
      6   0.000000D+00  0.277019D+00  0.138040D+00  0.000000D+00  0.000000D+00
      7   0.000000D+00  0.277504D+00  0.135299D+00  0.000000D+00  0.000000D+00
      8   0.000000D+00  0.195218D+00  0.310060D+00 -0.119942D-05  0.000000D+00
      9   0.000000D+00  0.195721D+00  0.309135D+00 -0.119584D-05  0.000000D+00
     10   0.000000D+00  0.230054D-01  0.451926D-01  0.000000D+00  0.000000D+00
                 6             7             8             9            10 
      1  -0.158004D-01  0.000000D+00  0.104619D-01  0.871846D-05  0.000000D+00
      2   0.343276D+00  0.000000D+00 -0.258144D+00  0.250377D-02  0.000000D+00
      3   0.345800D+00  0.000000D+00 -0.260543D+00  0.240481D-02  0.000000D+00
      4  -0.163436D+00  0.000000D+00  0.390437D+00 -0.105592D-01  0.000000D+00
      5  -0.160813D+00  0.000000D+00  0.390575D+00 -0.101100D-01  0.000000D+00
      6  -0.252860D+00  0.000000D+00 -0.364330D+00  0.422487D-01  0.000000D+00
      7  -0.254920D+00  0.000000D+00 -0.363859D+00  0.398225D-01  0.000000D+00
      8   0.312901D+00  0.000000D+00  0.195371D+00 -0.158287D+00  0.000000D+00
      9   0.310263D+00  0.000000D+00  0.193442D+00 -0.158143D+00  0.000000D+00
     10   0.633933D-01  0.000000D+00  0.566704D-01  0.101617D+01  0.000000D+00
                11            12            13            14            15 
      1   0.000000D+00  0.102064D+01  0.626029D-02  0.000000D+00 -0.504064D-02
      2   0.000000D+00 -0.981857D-01  0.622730D+00  0.000000D+00 -0.105876D+01
      3   0.000000D+00 -0.943429D-01 -0.639723D+00  0.000000D+00  0.107439D+01
      4   0.000000D+00  0.668760D-02  0.997708D+00  0.000000D+00 -0.666157D+00
      5   0.000000D+00  0.245550D-01 -0.100192D+01  0.000000D+00  0.640263D+00
      6   0.000000D+00 -0.217460D-02  0.100848D+01  0.000000D+00  0.614116D+00
      7   0.000000D+00 -0.311194D-02 -0.100459D+01  0.000000D+00 -0.640558D+00
      8   0.000000D+00  0.221463D-03  0.656603D+00  0.000000D+00  0.108262D+01
      9   0.000000D+00  0.664198D-03 -0.639956D+00  0.000000D+00 -0.106770D+01
     10   0.000000D+00 -0.168358D-03 -0.318335D-02  0.000000D+00 -0.272815D-02
                16            17            18            19            20 
      1   0.000000D+00 -0.204341D-02  0.000000D+00  0.588198D-02  0.000000D+00
      2   0.000000D+00  0.112697D+01  0.000000D+00 -0.735902D+00  0.000000D+00
      3   0.000000D+00 -0.112076D+01  0.000000D+00  0.714680D+00  0.000000D+00
      4   0.000000D+00 -0.683475D+00  0.000000D+00  0.120624D+01  0.000000D+00
      5   0.000000D+00  0.717234D+00  0.000000D+00 -0.119707D+01  0.000000D+00
      6   0.000000D+00 -0.740547D+00  0.000000D+00 -0.119114D+01  0.000000D+00
      7   0.000000D+00  0.707300D+00  0.000000D+00  0.120062D+01  0.000000D+00
      8   0.000000D+00  0.111154D+01  0.000000D+00  0.701043D+00  0.000000D+00
      9   0.000000D+00 -0.111805D+01  0.000000D+00 -0.721850D+00  0.000000D+00
     10   0.000000D+00  0.127683D-02  0.000000D+00  0.373345D-02  0.000000D+00
 afr conversion (alpha, imaginary):
                 1             2             3             4             5 
      1   0.000000D+00  0.000000D+00  0.000000D+00  0.000000D+00  0.000000D+00
      2   0.000000D+00  0.000000D+00  0.000000D+00  0.000000D+00  0.000000D+00
      3   0.000000D+00  0.000000D+00  0.000000D+00  0.000000D+00  0.000000D+00
      4   0.000000D+00  0.000000D+00  0.000000D+00  0.000000D+00  0.000000D+00
      5   0.000000D+00  0.000000D+00  0.000000D+00  0.000000D+00  0.000000D+00
      6   0.000000D+00  0.000000D+00  0.000000D+00  0.000000D+00  0.000000D+00
      7   0.000000D+00  0.000000D+00  0.000000D+00  0.000000D+00  0.000000D+00
      8   0.000000D+00  0.000000D+00  0.000000D+00  0.000000D+00  0.000000D+00
      9   0.000000D+00  0.000000D+00  0.000000D+00  0.000000D+00  0.000000D+00
     10   0.000000D+00  0.000000D+00  0.000000D+00  0.000000D+00  0.000000D+00
                 6             7             8             9            10 
      1   0.000000D+00  0.000000D+00  0.000000D+00  0.000000D+00  0.000000D+00
      2   0.000000D+00  0.000000D+00  0.000000D+00  0.000000D+00  0.000000D+00
      3   0.000000D+00  0.000000D+00  0.000000D+00  0.000000D+00  0.000000D+00
      4   0.000000D+00  0.000000D+00  0.000000D+00  0.000000D+00  0.000000D+00
      5   0.000000D+00  0.000000D+00  0.000000D+00  0.000000D+00  0.000000D+00
      6   0.000000D+00  0.000000D+00  0.000000D+00  0.000000D+00  0.000000D+00
      7   0.000000D+00  0.000000D+00  0.000000D+00  0.000000D+00  0.000000D+00
      8   0.000000D+00  0.000000D+00  0.000000D+00  0.000000D+00  0.000000D+00
      9   0.000000D+00  0.000000D+00  0.000000D+00  0.000000D+00  0.000000D+00
     10   0.000000D+00  0.000000D+00  0.000000D+00  0.000000D+00  0.000000D+00
                11            12            13            14            15 
      1   0.000000D+00  0.000000D+00  0.000000D+00  0.000000D+00  0.000000D+00
      2   0.000000D+00  0.000000D+00  0.000000D+00  0.000000D+00  0.000000D+00
      3   0.000000D+00  0.000000D+00  0.000000D+00  0.000000D+00  0.000000D+00
      4   0.000000D+00  0.000000D+00  0.000000D+00  0.000000D+00  0.000000D+00
      5   0.000000D+00  0.000000D+00  0.000000D+00  0.000000D+00  0.000000D+00
      6   0.000000D+00  0.000000D+00  0.000000D+00  0.000000D+00  0.000000D+00
      7   0.000000D+00  0.000000D+00  0.000000D+00  0.000000D+00  0.000000D+00
      8   0.000000D+00  0.000000D+00  0.000000D+00  0.000000D+00  0.000000D+00
      9   0.000000D+00  0.000000D+00  0.000000D+00  0.000000D+00  0.000000D+00
     10   0.000000D+00  0.000000D+00  0.000000D+00  0.000000D+00  0.000000D+00
                16            17            18            19            20 
      1   0.000000D+00  0.000000D+00  0.000000D+00  0.000000D+00  0.000000D+00
      2   0.000000D+00  0.000000D+00  0.000000D+00  0.000000D+00  0.000000D+00
      3   0.000000D+00  0.000000D+00  0.000000D+00  0.000000D+00  0.000000D+00
      4   0.000000D+00  0.000000D+00  0.000000D+00  0.000000D+00  0.000000D+00
      5   0.000000D+00  0.000000D+00  0.000000D+00  0.000000D+00  0.000000D+00
      6   0.000000D+00  0.000000D+00  0.000000D+00  0.000000D+00  0.000000D+00
      7   0.000000D+00  0.000000D+00  0.000000D+00  0.000000D+00  0.000000D+00
      8   0.000000D+00  0.000000D+00  0.000000D+00  0.000000D+00  0.000000D+00
      9   0.000000D+00  0.000000D+00  0.000000D+00  0.000000D+00  0.000000D+00
     10   0.000000D+00  0.000000D+00  0.000000D+00  0.000000D+00  0.000000D+00
 afr conversion (beta, real):
                 1             2             3             4             5 
      1   0.230054D-01  0.000000D+00  0.000000D+00  0.451926D-01  0.633933D-01
      2   0.195721D+00  0.000000D+00  0.119584D-05  0.309135D+00  0.310263D+00
      3   0.195218D+00  0.000000D+00  0.119942D-05  0.310060D+00  0.312901D+00
      4   0.277504D+00  0.000000D+00  0.000000D+00  0.135299D+00 -0.254920D+00
      5   0.277019D+00  0.000000D+00  0.000000D+00  0.138040D+00 -0.252860D+00
      6   0.257882D+00  0.000000D+00  0.000000D+00 -0.221023D+00 -0.160813D+00
      7   0.258812D+00  0.000000D+00  0.000000D+00 -0.218952D+00 -0.163436D+00
      8   0.144761D+00  0.000000D+00 -0.107889D-05 -0.278902D+00  0.345800D+00
      9   0.145389D+00  0.000000D+00 -0.107730D-05 -0.278492D+00  0.343276D+00
     10  -0.770497D-02  0.000000D+00  0.000000D+00  0.140565D-01 -0.158004D-01
                 6             7             8             9            10 
      1   0.000000D+00  0.566704D-01  0.000000D+00  0.000000D+00  0.101617D+01
      2   0.000000D+00  0.193442D+00  0.000000D+00  0.000000D+00 -0.158143D+00
      3   0.000000D+00  0.195371D+00  0.000000D+00  0.000000D+00 -0.158287D+00
      4   0.000000D+00 -0.363859D+00  0.000000D+00  0.000000D+00  0.398225D-01
      5   0.000000D+00 -0.364330D+00  0.000000D+00  0.000000D+00  0.422487D-01
      6   0.000000D+00  0.390575D+00  0.000000D+00  0.000000D+00 -0.101100D-01
      7   0.000000D+00  0.390437D+00  0.000000D+00  0.000000D+00 -0.105592D-01
      8   0.000000D+00 -0.260543D+00  0.000000D+00  0.000000D+00  0.240481D-02
      9   0.000000D+00 -0.258144D+00  0.000000D+00  0.000000D+00  0.250377D-02
     10   0.000000D+00  0.104619D-01  0.000000D+00  0.000000D+00  0.871838D-05
                11            12            13            14            15 
      1  -0.168358D-03  0.000000D+00  0.000000D+00 -0.318335D-02  0.000000D+00
      2   0.664198D-03  0.000000D+00  0.000000D+00 -0.639956D+00  0.000000D+00
      3   0.221463D-03  0.000000D+00  0.000000D+00  0.656603D+00  0.000000D+00
      4  -0.311194D-02  0.000000D+00  0.000000D+00 -0.100459D+01  0.000000D+00
      5  -0.217461D-02  0.000000D+00  0.000000D+00  0.100848D+01  0.000000D+00
      6   0.245550D-01  0.000000D+00  0.000000D+00 -0.100192D+01  0.000000D+00
      7   0.668760D-02  0.000000D+00  0.000000D+00  0.997708D+00  0.000000D+00
      8  -0.943429D-01  0.000000D+00  0.000000D+00 -0.639723D+00  0.000000D+00
      9  -0.981857D-01  0.000000D+00  0.000000D+00  0.622730D+00  0.000000D+00
     10   0.102064D+01  0.000000D+00  0.000000D+00  0.626029D-02  0.000000D+00
                16            17            18            19            20 
      1  -0.272815D-02  0.000000D+00  0.127683D-02  0.000000D+00  0.373345D-02
      2  -0.106770D+01  0.000000D+00 -0.111805D+01  0.000000D+00 -0.721850D+00
      3   0.108262D+01  0.000000D+00  0.111154D+01  0.000000D+00  0.701043D+00
      4  -0.640558D+00  0.000000D+00  0.707299D+00  0.000000D+00  0.120062D+01
      5   0.614116D+00  0.000000D+00 -0.740547D+00  0.000000D+00 -0.119114D+01
      6   0.640263D+00  0.000000D+00  0.717234D+00  0.000000D+00 -0.119707D+01
      7  -0.666157D+00  0.000000D+00 -0.683475D+00  0.000000D+00  0.120624D+01
      8   0.107439D+01  0.000000D+00 -0.112076D+01  0.000000D+00  0.714680D+00
      9  -0.105876D+01  0.000000D+00  0.112697D+01  0.000000D+00 -0.735902D+00
     10  -0.504064D-02  0.000000D+00 -0.204341D-02  0.000000D+00  0.588198D-02
 afr conversion (beta, imaginary):
                 1             2             3             4             5 
      1   0.000000D+00  0.000000D+00  0.000000D+00  0.000000D+00  0.000000D+00
      2   0.000000D+00  0.000000D+00  0.000000D+00  0.000000D+00  0.000000D+00
      3   0.000000D+00  0.000000D+00  0.000000D+00  0.000000D+00  0.000000D+00
      4   0.000000D+00  0.000000D+00  0.000000D+00  0.000000D+00  0.000000D+00
      5   0.000000D+00  0.000000D+00  0.000000D+00  0.000000D+00  0.000000D+00
      6   0.000000D+00  0.000000D+00  0.000000D+00  0.000000D+00  0.000000D+00
      7   0.000000D+00  0.000000D+00  0.000000D+00  0.000000D+00  0.000000D+00
      8   0.000000D+00  0.000000D+00  0.000000D+00  0.000000D+00  0.000000D+00
      9   0.000000D+00  0.000000D+00  0.000000D+00  0.000000D+00  0.000000D+00
     10   0.000000D+00  0.000000D+00  0.000000D+00  0.000000D+00  0.000000D+00
                 6             7             8             9            10 
      1   0.000000D+00  0.000000D+00  0.000000D+00  0.000000D+00  0.000000D+00
      2   0.000000D+00  0.000000D+00  0.000000D+00  0.000000D+00  0.000000D+00
      3   0.000000D+00  0.000000D+00  0.000000D+00  0.000000D+00  0.000000D+00
      4   0.000000D+00  0.000000D+00  0.000000D+00  0.000000D+00  0.000000D+00
      5   0.000000D+00  0.000000D+00  0.000000D+00  0.000000D+00  0.000000D+00
      6   0.000000D+00  0.000000D+00  0.000000D+00  0.000000D+00  0.000000D+00
      7   0.000000D+00  0.000000D+00  0.000000D+00  0.000000D+00  0.000000D+00
      8   0.000000D+00  0.000000D+00  0.000000D+00  0.000000D+00  0.000000D+00
      9   0.000000D+00  0.000000D+00  0.000000D+00  0.000000D+00  0.000000D+00
     10   0.000000D+00  0.000000D+00  0.000000D+00  0.000000D+00  0.000000D+00
                11            12            13            14            15 
      1   0.000000D+00  0.000000D+00  0.000000D+00  0.000000D+00  0.000000D+00
      2   0.000000D+00  0.000000D+00  0.000000D+00  0.000000D+00  0.000000D+00
      3   0.000000D+00  0.000000D+00  0.000000D+00  0.000000D+00  0.000000D+00
      4   0.000000D+00  0.000000D+00  0.000000D+00  0.000000D+00  0.000000D+00
      5   0.000000D+00  0.000000D+00  0.000000D+00  0.000000D+00  0.000000D+00
      6   0.000000D+00  0.000000D+00  0.000000D+00  0.000000D+00  0.000000D+00
      7   0.000000D+00  0.000000D+00  0.000000D+00  0.000000D+00  0.000000D+00
      8   0.000000D+00  0.000000D+00  0.000000D+00  0.000000D+00  0.000000D+00
      9   0.000000D+00  0.000000D+00  0.000000D+00  0.000000D+00  0.000000D+00
     10   0.000000D+00  0.000000D+00  0.000000D+00  0.000000D+00  0.000000D+00
                16            17            18            19            20 
      1   0.000000D+00  0.000000D+00  0.000000D+00  0.000000D+00  0.000000D+00
      2   0.000000D+00  0.000000D+00  0.000000D+00  0.000000D+00  0.000000D+00
      3   0.000000D+00  0.000000D+00  0.000000D+00  0.000000D+00  0.000000D+00
      4   0.000000D+00  0.000000D+00  0.000000D+00  0.000000D+00  0.000000D+00
      5   0.000000D+00  0.000000D+00  0.000000D+00  0.000000D+00  0.000000D+00
      6   0.000000D+00  0.000000D+00  0.000000D+00  0.000000D+00  0.000000D+00
      7   0.000000D+00  0.000000D+00  0.000000D+00  0.000000D+00  0.000000D+00
      8   0.000000D+00  0.000000D+00  0.000000D+00  0.000000D+00  0.000000D+00
      9   0.000000D+00  0.000000D+00  0.000000D+00  0.000000D+00  0.000000D+00
     10   0.000000D+00  0.000000D+00  0.000000D+00  0.000000D+00  0.000000D+00
 jaja in hckghf.F, ISPECT =                     548
Spin block MO for GHF transformation
NOA =   10   NOB =   10
NVA =   10   NVB =   10
 NOAvA in Hack                     100
 jaja in tranN3.F, ISPECT =                     548
 in l802/tranN3.F, LSPECT =                      800
 NMat, NBtSiz,MDV                    8372                   16000
                133954722
 TranN3:  NGot= 134217728 NBasic=    263006 NTTT=       550 NMat=      8372.
 Defined bucket =                      51                   10000
 Defined bucket =                      52                   10000
 Defined bucket =                      53                   10000
 Defined bucket =                      55                   10000
 Defined bucket =                      57                   10000
 Defined bucket =                      58                   10000
 Defined bucket =                      60                   10000
 Defined bucket =                      72                   10000
 Defined bucket =                      73                   10000
 Defined bucket =                      74                   10000
 Defined bucket =                      75                   10000
 Defined bucket =                      76                   10000
 (IK/LS) integrals will be saved in memory.
 TrCghf made   2 passes through the AO integrals.
 jaja DoHack is true or false? F
 jaja in hckghf.F, NBasis=                      10
 jaja in hckGHF/FixOG, LC =                      800
 jaja in hckGHF/FixOG, IRwC=                      548
 bfr conversion (alpha, real):
                 1             2             3             4             5 
      1   0.000000D+00 -0.770497D-02  0.140565D-01  0.000000D+00  0.000000D+00
      2   0.000000D+00  0.145389D+00 -0.278492D+00  0.107730D-05  0.000000D+00
      3   0.000000D+00  0.144761D+00 -0.278902D+00  0.107889D-05  0.000000D+00
      4   0.000000D+00  0.258812D+00 -0.218952D+00  0.000000D+00  0.000000D+00
      5   0.000000D+00  0.257882D+00 -0.221023D+00  0.000000D+00  0.000000D+00
      6   0.000000D+00  0.277019D+00  0.138040D+00  0.000000D+00  0.000000D+00
      7   0.000000D+00  0.277504D+00  0.135299D+00  0.000000D+00  0.000000D+00
      8   0.000000D+00  0.195218D+00  0.310060D+00 -0.119942D-05  0.000000D+00
      9   0.000000D+00  0.195721D+00  0.309135D+00 -0.119584D-05  0.000000D+00
     10   0.000000D+00  0.230054D-01  0.451926D-01  0.000000D+00  0.000000D+00
                 6             7             8             9            10 
      1  -0.158004D-01  0.000000D+00  0.104619D-01  0.871846D-05  0.000000D+00
      2   0.343276D+00  0.000000D+00 -0.258144D+00  0.250377D-02  0.000000D+00
      3   0.345800D+00  0.000000D+00 -0.260543D+00  0.240481D-02  0.000000D+00
      4  -0.163436D+00  0.000000D+00  0.390437D+00 -0.105592D-01  0.000000D+00
      5  -0.160813D+00  0.000000D+00  0.390575D+00 -0.101100D-01  0.000000D+00
      6  -0.252860D+00  0.000000D+00 -0.364330D+00  0.422487D-01  0.000000D+00
      7  -0.254920D+00  0.000000D+00 -0.363859D+00  0.398225D-01  0.000000D+00
      8   0.312901D+00  0.000000D+00  0.195371D+00 -0.158287D+00  0.000000D+00
      9   0.310263D+00  0.000000D+00  0.193442D+00 -0.158143D+00  0.000000D+00
     10   0.633933D-01  0.000000D+00  0.566704D-01  0.101617D+01  0.000000D+00
                11            12            13            14            15 
      1   0.000000D+00  0.102064D+01  0.626029D-02  0.000000D+00 -0.504064D-02
      2   0.000000D+00 -0.981857D-01  0.622730D+00  0.000000D+00 -0.105876D+01
      3   0.000000D+00 -0.943429D-01 -0.639723D+00  0.000000D+00  0.107439D+01
      4   0.000000D+00  0.668760D-02  0.997708D+00  0.000000D+00 -0.666157D+00
      5   0.000000D+00  0.245550D-01 -0.100192D+01  0.000000D+00  0.640263D+00
      6   0.000000D+00 -0.217460D-02  0.100848D+01  0.000000D+00  0.614116D+00
      7   0.000000D+00 -0.311194D-02 -0.100459D+01  0.000000D+00 -0.640558D+00
      8   0.000000D+00  0.221463D-03  0.656603D+00  0.000000D+00  0.108262D+01
      9   0.000000D+00  0.664198D-03 -0.639956D+00  0.000000D+00 -0.106770D+01
     10   0.000000D+00 -0.168358D-03 -0.318335D-02  0.000000D+00 -0.272815D-02
                16            17            18            19            20 
      1   0.000000D+00 -0.204341D-02  0.000000D+00  0.588198D-02  0.000000D+00
      2   0.000000D+00  0.112697D+01  0.000000D+00 -0.735902D+00  0.000000D+00
      3   0.000000D+00 -0.112076D+01  0.000000D+00  0.714680D+00  0.000000D+00
      4   0.000000D+00 -0.683475D+00  0.000000D+00  0.120624D+01  0.000000D+00
      5   0.000000D+00  0.717234D+00  0.000000D+00 -0.119707D+01  0.000000D+00
      6   0.000000D+00 -0.740547D+00  0.000000D+00 -0.119114D+01  0.000000D+00
      7   0.000000D+00  0.707300D+00  0.000000D+00  0.120062D+01  0.000000D+00
      8   0.000000D+00  0.111154D+01  0.000000D+00  0.701043D+00  0.000000D+00
      9   0.000000D+00 -0.111805D+01  0.000000D+00 -0.721850D+00  0.000000D+00
     10   0.000000D+00  0.127683D-02  0.000000D+00  0.373345D-02  0.000000D+00
 bfr conversion (alpha, imaginary):
                 1             2             3             4             5 
      1   0.000000D+00  0.000000D+00  0.000000D+00  0.000000D+00  0.000000D+00
      2   0.000000D+00  0.000000D+00  0.000000D+00  0.000000D+00  0.000000D+00
      3   0.000000D+00  0.000000D+00  0.000000D+00  0.000000D+00  0.000000D+00
      4   0.000000D+00  0.000000D+00  0.000000D+00  0.000000D+00  0.000000D+00
      5   0.000000D+00  0.000000D+00  0.000000D+00  0.000000D+00  0.000000D+00
      6   0.000000D+00  0.000000D+00  0.000000D+00  0.000000D+00  0.000000D+00
      7   0.000000D+00  0.000000D+00  0.000000D+00  0.000000D+00  0.000000D+00
      8   0.000000D+00  0.000000D+00  0.000000D+00  0.000000D+00  0.000000D+00
      9   0.000000D+00  0.000000D+00  0.000000D+00  0.000000D+00  0.000000D+00
     10   0.000000D+00  0.000000D+00  0.000000D+00  0.000000D+00  0.000000D+00
                 6             7             8             9            10 
      1   0.000000D+00  0.000000D+00  0.000000D+00  0.000000D+00  0.000000D+00
      2   0.000000D+00  0.000000D+00  0.000000D+00  0.000000D+00  0.000000D+00
      3   0.000000D+00  0.000000D+00  0.000000D+00  0.000000D+00  0.000000D+00
      4   0.000000D+00  0.000000D+00  0.000000D+00  0.000000D+00  0.000000D+00
      5   0.000000D+00  0.000000D+00  0.000000D+00  0.000000D+00  0.000000D+00
      6   0.000000D+00  0.000000D+00  0.000000D+00  0.000000D+00  0.000000D+00
      7   0.000000D+00  0.000000D+00  0.000000D+00  0.000000D+00  0.000000D+00
      8   0.000000D+00  0.000000D+00  0.000000D+00  0.000000D+00  0.000000D+00
      9   0.000000D+00  0.000000D+00  0.000000D+00  0.000000D+00  0.000000D+00
     10   0.000000D+00  0.000000D+00  0.000000D+00  0.000000D+00  0.000000D+00
                11            12            13            14            15 
      1   0.000000D+00  0.000000D+00  0.000000D+00  0.000000D+00  0.000000D+00
      2   0.000000D+00  0.000000D+00  0.000000D+00  0.000000D+00  0.000000D+00
      3   0.000000D+00  0.000000D+00  0.000000D+00  0.000000D+00  0.000000D+00
      4   0.000000D+00  0.000000D+00  0.000000D+00  0.000000D+00  0.000000D+00
      5   0.000000D+00  0.000000D+00  0.000000D+00  0.000000D+00  0.000000D+00
      6   0.000000D+00  0.000000D+00  0.000000D+00  0.000000D+00  0.000000D+00
      7   0.000000D+00  0.000000D+00  0.000000D+00  0.000000D+00  0.000000D+00
      8   0.000000D+00  0.000000D+00  0.000000D+00  0.000000D+00  0.000000D+00
      9   0.000000D+00  0.000000D+00  0.000000D+00  0.000000D+00  0.000000D+00
     10   0.000000D+00  0.000000D+00  0.000000D+00  0.000000D+00  0.000000D+00
                16            17            18            19            20 
      1   0.000000D+00  0.000000D+00  0.000000D+00  0.000000D+00  0.000000D+00
      2   0.000000D+00  0.000000D+00  0.000000D+00  0.000000D+00  0.000000D+00
      3   0.000000D+00  0.000000D+00  0.000000D+00  0.000000D+00  0.000000D+00
      4   0.000000D+00  0.000000D+00  0.000000D+00  0.000000D+00  0.000000D+00
      5   0.000000D+00  0.000000D+00  0.000000D+00  0.000000D+00  0.000000D+00
      6   0.000000D+00  0.000000D+00  0.000000D+00  0.000000D+00  0.000000D+00
      7   0.000000D+00  0.000000D+00  0.000000D+00  0.000000D+00  0.000000D+00
      8   0.000000D+00  0.000000D+00  0.000000D+00  0.000000D+00  0.000000D+00
      9   0.000000D+00  0.000000D+00  0.000000D+00  0.000000D+00  0.000000D+00
     10   0.000000D+00  0.000000D+00  0.000000D+00  0.000000D+00  0.000000D+00
 bfr conversion (beta, real):
                 1             2             3             4             5 
      1   0.230054D-01  0.000000D+00  0.000000D+00  0.451926D-01  0.633933D-01
      2   0.195721D+00  0.000000D+00  0.119584D-05  0.309135D+00  0.310263D+00
      3   0.195218D+00  0.000000D+00  0.119942D-05  0.310060D+00  0.312901D+00
      4   0.277504D+00  0.000000D+00  0.000000D+00  0.135299D+00 -0.254920D+00
      5   0.277019D+00  0.000000D+00  0.000000D+00  0.138040D+00 -0.252860D+00
      6   0.257882D+00  0.000000D+00  0.000000D+00 -0.221023D+00 -0.160813D+00
      7   0.258812D+00  0.000000D+00  0.000000D+00 -0.218952D+00 -0.163436D+00
      8   0.144761D+00  0.000000D+00 -0.107889D-05 -0.278902D+00  0.345800D+00
      9   0.145389D+00  0.000000D+00 -0.107730D-05 -0.278492D+00  0.343276D+00
     10  -0.770497D-02  0.000000D+00  0.000000D+00  0.140565D-01 -0.158004D-01
                 6             7             8             9            10 
      1   0.000000D+00  0.566704D-01  0.000000D+00  0.000000D+00  0.101617D+01
      2   0.000000D+00  0.193442D+00  0.000000D+00  0.000000D+00 -0.158143D+00
      3   0.000000D+00  0.195371D+00  0.000000D+00  0.000000D+00 -0.158287D+00
      4   0.000000D+00 -0.363859D+00  0.000000D+00  0.000000D+00  0.398225D-01
      5   0.000000D+00 -0.364330D+00  0.000000D+00  0.000000D+00  0.422487D-01
      6   0.000000D+00  0.390575D+00  0.000000D+00  0.000000D+00 -0.101100D-01
      7   0.000000D+00  0.390437D+00  0.000000D+00  0.000000D+00 -0.105592D-01
      8   0.000000D+00 -0.260543D+00  0.000000D+00  0.000000D+00  0.240481D-02
      9   0.000000D+00 -0.258144D+00  0.000000D+00  0.000000D+00  0.250377D-02
     10   0.000000D+00  0.104619D-01  0.000000D+00  0.000000D+00  0.871838D-05
                11            12            13            14            15 
      1  -0.168358D-03  0.000000D+00  0.000000D+00 -0.318335D-02  0.000000D+00
      2   0.664198D-03  0.000000D+00  0.000000D+00 -0.639956D+00  0.000000D+00
      3   0.221463D-03  0.000000D+00  0.000000D+00  0.656603D+00  0.000000D+00
      4  -0.311194D-02  0.000000D+00  0.000000D+00 -0.100459D+01  0.000000D+00
      5  -0.217461D-02  0.000000D+00  0.000000D+00  0.100848D+01  0.000000D+00
      6   0.245550D-01  0.000000D+00  0.000000D+00 -0.100192D+01  0.000000D+00
      7   0.668760D-02  0.000000D+00  0.000000D+00  0.997708D+00  0.000000D+00
      8  -0.943429D-01  0.000000D+00  0.000000D+00 -0.639723D+00  0.000000D+00
      9  -0.981857D-01  0.000000D+00  0.000000D+00  0.622730D+00  0.000000D+00
     10   0.102064D+01  0.000000D+00  0.000000D+00  0.626029D-02  0.000000D+00
                16            17            18            19            20 
      1  -0.272815D-02  0.000000D+00  0.127683D-02  0.000000D+00  0.373345D-02
      2  -0.106770D+01  0.000000D+00 -0.111805D+01  0.000000D+00 -0.721850D+00
      3   0.108262D+01  0.000000D+00  0.111154D+01  0.000000D+00  0.701043D+00
      4  -0.640558D+00  0.000000D+00  0.707299D+00  0.000000D+00  0.120062D+01
      5   0.614116D+00  0.000000D+00 -0.740547D+00  0.000000D+00 -0.119114D+01
      6   0.640263D+00  0.000000D+00  0.717234D+00  0.000000D+00 -0.119707D+01
      7  -0.666157D+00  0.000000D+00 -0.683475D+00  0.000000D+00  0.120624D+01
      8   0.107439D+01  0.000000D+00 -0.112076D+01  0.000000D+00  0.714680D+00
      9  -0.105876D+01  0.000000D+00  0.112697D+01  0.000000D+00 -0.735902D+00
     10  -0.504064D-02  0.000000D+00 -0.204341D-02  0.000000D+00  0.588198D-02
[...]
      6b 0.189057D-01  0.473021D-01 -0.192857D-02  0.109264D+00 -0.194469D-02
      7a-0.299349D-02 -0.579559D-03  0.998812D-01 -0.113654D-03  0.101105D+00
      7b 0.186882D-01  0.467611D-01 -0.190769D-02  0.108294D+00 -0.192366D-02
      8a 0.954704D-03  0.711568D-04 -0.322810D-01  0.330374D-04 -0.323535D-01
      8b-0.721883D-02 -0.182376D-01  0.160671D-02 -0.351663D-01  0.162212D-02
      9a 0.968079D-03  0.955147D-04 -0.322142D-01  0.420642D-04 -0.322864D-01
      9b-0.713694D-02 -0.180161D-01  0.159181D-02 -0.350634D-01  0.160717D-02
     10a 0.533375D-03 -0.842301D-04 -0.153386D-01  0.142454D-03 -0.155237D-01
     10b 0.589088D-03  0.602065D-03 -0.984552D-02  0.101718D-02 -0.995528D-02
                3b            4a            4b            5a            5b
      3b 0.680922D+00
      4a 0.481174D-03  0.779757D+00
      4b-0.386204D+00 -0.604849D-03  0.872505D+00
      5a 0.417465D-03  0.779398D+00 -0.561574D-03  0.779065D+00
      5b-0.383462D+00 -0.793276D-03  0.872317D+00 -0.747675D-03  0.872159D+00
      6a-0.860968D-04 -0.377376D+00  0.230119D-03 -0.380020D+00  0.285817D-03
      6b 0.110689D+00  0.663581D-03 -0.452828D+00  0.654863D-03 -0.455855D+00
      7a-0.843903D-04 -0.374647D+00  0.187025D-03 -0.377296D+00  0.240761D-03
      7b 0.109702D+00  0.678326D-03 -0.449876D+00  0.669357D-03 -0.452908D+00
      8a 0.202886D-04  0.866150D-01 -0.115107D-03  0.873803D-01 -0.115373D-03
      8b-0.352562D-01 -0.242883D-02  0.125855D+00 -0.245685D-02  0.126872D+00
      9a 0.294964D-04  0.854974D-01 -0.137757D-03  0.862473D-01 -0.138186D-03
      9b-0.351524D-01 -0.240900D-02  0.124325D+00 -0.243688D-02  0.125325D+00
     10a 0.107869D-03  0.382077D-01 -0.841196D-03  0.386721D-01 -0.700982D-03
     10b 0.991369D-03  0.244602D-01 -0.407867D-02  0.247580D-01 -0.402967D-02
                6a            6b            7a            7b            8a
      6a 0.763137D+00
      6b-0.905404D-03  0.890137D+00
      7a 0.763265D+00 -0.769572D-03  0.763419D+00
      7b-0.972605D-03  0.890533D+00 -0.834071D-03  0.890960D+00
      8a-0.317443D+00  0.608471D-03 -0.319943D+00  0.698226D-03  0.609657D+00
      8b 0.515070D-02 -0.426924D+00  0.507935D-02 -0.430245D+00 -0.416452D-02
      9a-0.313304D+00  0.657917D-03 -0.315789D+00  0.747915D-03  0.605832D+00
      9b 0.509280D-02 -0.421789D+00  0.502253D-02 -0.425090D+00 -0.405910D-02
     10a-0.759459D-01  0.508794D-02 -0.775249D-01  0.431786D-02  0.451819D-01
     10b-0.531845D-01  0.193345D-01 -0.542080D-01  0.190278D-01  0.440407D-01
                8b            9a            9b           10a           10b
      8b 0.801487D+00
      9a-0.420521D-02  0.602040D+00
      9b 0.796255D+00 -0.409977D-02  0.791067D+00
     10a-0.289606D-01  0.443774D-01 -0.290082D-01  0.504039D+00
     10b-0.535315D-01  0.434577D-01 -0.533329D-01  0.307111D+00  0.189197D+00
 jaja lower-tri density matrix (imaginary):
                1a            1b            2a            2b            3a
      1a 0.000000D+00
      1b 0.000000D+00  0.000000D+00
      2a 0.000000D+00  0.000000D+00  0.000000D+00
      2b 0.000000D+00  0.000000D+00  0.000000D+00  0.000000D+00
      3a 0.000000D+00  0.000000D+00  0.000000D+00  0.000000D+00  0.000000D+00
      3b 0.000000D+00  0.000000D+00  0.000000D+00  0.000000D+00  0.000000D+00
      4a 0.000000D+00  0.000000D+00  0.000000D+00  0.000000D+00  0.000000D+00
      4b 0.000000D+00  0.000000D+00  0.000000D+00  0.000000D+00  0.000000D+00
      5a 0.000000D+00  0.000000D+00  0.000000D+00  0.000000D+00  0.000000D+00
      5b 0.000000D+00  0.000000D+00  0.000000D+00  0.000000D+00  0.000000D+00
      6a 0.000000D+00  0.000000D+00  0.000000D+00  0.000000D+00  0.000000D+00
      6b 0.000000D+00  0.000000D+00  0.000000D+00  0.000000D+00  0.000000D+00
      7a 0.000000D+00  0.000000D+00  0.000000D+00  0.000000D+00  0.000000D+00
      7b 0.000000D+00  0.000000D+00  0.000000D+00  0.000000D+00  0.000000D+00
      8a 0.000000D+00  0.000000D+00  0.000000D+00  0.000000D+00  0.000000D+00
      8b 0.000000D+00  0.000000D+00  0.000000D+00  0.000000D+00  0.000000D+00
      9a 0.000000D+00  0.000000D+00  0.000000D+00  0.000000D+00  0.000000D+00
      9b 0.000000D+00  0.000000D+00  0.000000D+00  0.000000D+00  0.000000D+00
     10a 0.000000D+00  0.000000D+00  0.000000D+00  0.000000D+00  0.000000D+00
     10b 0.000000D+00  0.000000D+00  0.000000D+00  0.000000D+00  0.000000D+00
                3b            4a            4b            5a            5b
      3b 0.000000D+00
      4a 0.000000D+00  0.000000D+00
      4b 0.000000D+00  0.000000D+00  0.000000D+00
      5a 0.000000D+00  0.000000D+00  0.000000D+00  0.000000D+00
      5b 0.000000D+00  0.000000D+00  0.000000D+00  0.000000D+00  0.000000D+00
      6a 0.000000D+00  0.000000D+00  0.000000D+00  0.000000D+00  0.000000D+00
      6b 0.000000D+00  0.000000D+00  0.000000D+00  0.000000D+00  0.000000D+00
      7a 0.000000D+00  0.000000D+00  0.000000D+00  0.000000D+00  0.000000D+00
      7b 0.000000D+00  0.000000D+00  0.000000D+00  0.000000D+00  0.000000D+00
      8a 0.000000D+00  0.000000D+00  0.000000D+00  0.000000D+00  0.000000D+00
      8b 0.000000D+00  0.000000D+00  0.000000D+00  0.000000D+00  0.000000D+00
      9a 0.000000D+00  0.000000D+00  0.000000D+00  0.000000D+00  0.000000D+00
      9b 0.000000D+00  0.000000D+00  0.000000D+00  0.000000D+00  0.000000D+00
     10a 0.000000D+00  0.000000D+00  0.000000D+00  0.000000D+00  0.000000D+00
     10b 0.000000D+00  0.000000D+00  0.000000D+00  0.000000D+00  0.000000D+00
                6a            6b            7a            7b            8a
      6a 0.000000D+00
      6b 0.000000D+00  0.000000D+00
      7a 0.000000D+00  0.000000D+00  0.000000D+00
      7b 0.000000D+00  0.000000D+00  0.000000D+00  0.000000D+00
      8a 0.000000D+00  0.000000D+00  0.000000D+00  0.000000D+00  0.000000D+00
      8b 0.000000D+00  0.000000D+00  0.000000D+00  0.000000D+00  0.000000D+00
      9a 0.000000D+00  0.000000D+00  0.000000D+00  0.000000D+00  0.000000D+00
      9b 0.000000D+00  0.000000D+00  0.000000D+00  0.000000D+00  0.000000D+00
     10a 0.000000D+00  0.000000D+00  0.000000D+00  0.000000D+00  0.000000D+00
     10b 0.000000D+00  0.000000D+00  0.000000D+00  0.000000D+00  0.000000D+00
                8b            9a            9b           10a           10b
      8b 0.000000D+00
      9a 0.000000D+00  0.000000D+00
      9b 0.000000D+00  0.000000D+00  0.000000D+00
     10a 0.000000D+00  0.000000D+00  0.000000D+00  0.000000D+00
     10b 0.000000D+00  0.000000D+00  0.000000D+00  0.000000D+00  0.000000D+00
 jaja non-ortho density matrix               [Gau-style] (real):
                 1             2             3             4             5 
      1a  0.823508D-01  0.213282D+00 -0.392073D-01  0.306712D-01 -0.393908D-01
      1b  0.213282D+00  0.563566D+00 -0.201449D-01  0.510824D-01 -0.201120D-01
      2a -0.392073D-01 -0.201449D-01  0.698096D+00 -0.292567D-02  0.702587D+00
      2b  0.306712D-01  0.510824D-01 -0.292567D-02  0.672202D+00 -0.299914D-02
      3a -0.393908D-01 -0.201120D-01  0.702587D+00 -0.299914D-02  0.707115D+00
      3b  0.310853D-01  0.520098D-01 -0.283713D-02  0.676543D+00 -0.291019D-02
      4a  0.144865D-01  0.299742D-02 -0.350619D+00  0.548741D-03 -0.355055D+00
      4b -0.404712D-01 -0.929394D-01  0.371361D-02 -0.381389D+00  0.375568D-02
      5a  0.145451D-01  0.353131D-02 -0.347648D+00  0.484627D-03 -0.352066D+00
      5b -0.397697D-01 -0.911841D-01  0.386663D-02 -0.378664D+00  0.391027D-02
      6a -0.298347D-02 -0.483229D-03  0.100651D+00 -0.115465D-03  0.101890D+00
      6b  0.189057D-01  0.473021D-01 -0.192857D-02  0.109264D+00 -0.194469D-02
      7a -0.299349D-02 -0.579559D-03  0.998812D-01 -0.113654D-03  0.101105D+00
      7b  0.186882D-01  0.467611D-01 -0.190769D-02  0.108294D+00 -0.192366D-02
      8a  0.954704D-03  0.711568D-04 -0.322810D-01  0.330374D-04 -0.323535D-01
      8b -0.721883D-02 -0.182376D-01  0.160671D-02 -0.351663D-01  0.162212D-02
      9a  0.968079D-03  0.955147D-04 -0.322142D-01  0.420642D-04 -0.322864D-01
      9b -0.713694D-02 -0.180161D-01  0.159181D-02 -0.350634D-01  0.160717D-02
     10a  0.533375D-03 -0.842301D-04 -0.153386D-01  0.142454D-03 -0.155237D-01
     10b  0.589088D-03  0.602065D-03 -0.984552D-02  0.101718D-02 -0.995528D-02
                 6             7             8             9            10 
      1a  0.310853D-01  0.144865D-01 -0.404712D-01  0.145451D-01 -0.397697D-01
      1b  0.520098D-01  0.299742D-02 -0.929394D-01  0.353131D-02 -0.911841D-01
      2a -0.283713D-02 -0.350619D+00  0.371361D-02 -0.347648D+00  0.386663D-02
      2b  0.676543D+00  0.548741D-03 -0.381389D+00  0.484627D-03 -0.378664D+00
      3a -0.291019D-02 -0.355055D+00  0.375568D-02 -0.352066D+00  0.391027D-02
      3b  0.680922D+00  0.481174D-03 -0.386204D+00  0.417465D-03 -0.383462D+00
      4a  0.481174D-03  0.779757D+00 -0.604849D-03  0.779398D+00 -0.793276D-03
      4b -0.386204D+00 -0.604849D-03  0.872505D+00 -0.561574D-03  0.872317D+00
      5a  0.417465D-03  0.779398D+00 -0.561574D-03  0.779065D+00 -0.747675D-03
      5b -0.383462D+00 -0.793276D-03  0.872317D+00 -0.747675D-03  0.872159D+00
      6a -0.860968D-04 -0.377376D+00  0.230119D-03 -0.380020D+00  0.285817D-03
      6b  0.110689D+00  0.663581D-03 -0.452828D+00  0.654863D-03 -0.455855D+00
      7a -0.843903D-04 -0.374647D+00  0.187025D-03 -0.377296D+00  0.240761D-03
      7b  0.109702D+00  0.678326D-03 -0.449876D+00  0.669357D-03 -0.452908D+00
      8a  0.202886D-04  0.866150D-01 -0.115107D-03  0.873803D-01 -0.115373D-03
      8b -0.352562D-01 -0.242883D-02  0.125855D+00 -0.245685D-02  0.126872D+00
      9a  0.294964D-04  0.854974D-01 -0.137757D-03  0.862473D-01 -0.138186D-03
      9b -0.351524D-01 -0.240900D-02  0.124325D+00 -0.243688D-02  0.125325D+00
     10a  0.107869D-03  0.382077D-01 -0.841196D-03  0.386721D-01 -0.700982D-03
     10b  0.991369D-03  0.244602D-01 -0.407867D-02  0.247580D-01 -0.402967D-02
                11            12            13            14            15 
      1a -0.298347D-02  0.189057D-01 -0.299349D-02  0.186882D-01  0.954704D-03
      1b -0.483229D-03  0.473021D-01 -0.579559D-03  0.467611D-01  0.711568D-04
      2a  0.100651D+00 -0.192857D-02  0.998812D-01 -0.190769D-02 -0.322810D-01
      2b -0.115465D-03  0.109264D+00 -0.113654D-03  0.108294D+00  0.330374D-04
      3a  0.101890D+00 -0.194469D-02  0.101105D+00 -0.192366D-02 -0.323535D-01
      3b -0.860968D-04  0.110689D+00 -0.843903D-04  0.109702D+00  0.202886D-04
      4a -0.377376D+00  0.663581D-03 -0.374647D+00  0.678326D-03  0.866150D-01
      4b  0.230119D-03 -0.452828D+00  0.187025D-03 -0.449876D+00 -0.115107D-03
      5a -0.380020D+00  0.654863D-03 -0.377296D+00  0.669357D-03  0.873803D-01
      5b  0.285817D-03 -0.455855D+00  0.240761D-03 -0.452908D+00 -0.115373D-03
      6a  0.763137D+00 -0.905404D-03  0.763265D+00 -0.972605D-03 -0.317443D+00
      6b -0.905404D-03  0.890137D+00 -0.769572D-03  0.890533D+00  0.608471D-03
      7a  0.763265D+00 -0.769572D-03  0.763419D+00 -0.834071D-03 -0.319943D+00
      7b -0.972605D-03  0.890533D+00 -0.834071D-03  0.890960D+00  0.698226D-03
      8a -0.317443D+00  0.608471D-03 -0.319943D+00  0.698226D-03  0.609657D+00
      8b  0.515070D-02 -0.426924D+00  0.507935D-02 -0.430245D+00 -0.416452D-02
      9a -0.313304D+00  0.657917D-03 -0.315789D+00  0.747915D-03  0.605832D+00
      9b  0.509280D-02 -0.421789D+00  0.502253D-02 -0.425090D+00 -0.405910D-02
     10a -0.759459D-01  0.508794D-02 -0.775249D-01  0.431786D-02  0.451819D-01
     10b -0.531845D-01  0.193345D-01 -0.542080D-01  0.190278D-01  0.440407D-01
                16            17            18            19            20 
      1a -0.721883D-02  0.968079D-03 -0.713694D-02  0.533375D-03  0.589088D-03
      1b -0.182376D-01  0.955147D-04 -0.180161D-01 -0.842301D-04  0.602065D-03
      2a  0.160671D-02 -0.322142D-01  0.159181D-02 -0.153386D-01 -0.984552D-02
      2b -0.351663D-01  0.420642D-04 -0.350634D-01  0.142454D-03  0.101718D-02
      3a  0.162212D-02 -0.322864D-01  0.160717D-02 -0.155237D-01 -0.995528D-02
      3b -0.352562D-01  0.294964D-04 -0.351524D-01  0.107869D-03  0.991369D-03
      4a -0.242883D-02  0.854974D-01 -0.240900D-02  0.382077D-01  0.244602D-01
      4b  0.125855D+00 -0.137757D-03  0.124325D+00 -0.841196D-03 -0.407867D-02
      5a -0.245685D-02  0.862473D-01 -0.243688D-02  0.386721D-01  0.247580D-01
      5b  0.126872D+00 -0.138186D-03  0.125325D+00 -0.700982D-03 -0.402967D-02
      6a  0.515070D-02 -0.313304D+00  0.509280D-02 -0.759459D-01 -0.531845D-01
      6b -0.426924D+00  0.657917D-03 -0.421789D+00  0.508794D-02  0.193345D-01
      7a  0.507935D-02 -0.315789D+00  0.502253D-02 -0.775249D-01 -0.542080D-01
      7b -0.430245D+00  0.747915D-03 -0.425090D+00  0.431786D-02  0.190278D-01
      8a -0.416452D-02  0.605832D+00 -0.405910D-02  0.451819D-01  0.440407D-01
      8b  0.801487D+00 -0.420521D-02  0.796255D+00 -0.289606D-01 -0.535315D-01
      9a -0.420521D-02  0.602040D+00 -0.409977D-02  0.443774D-01  0.434577D-01
      9b  0.796255D+00 -0.409977D-02  0.791067D+00 -0.290082D-01 -0.533329D-01
     10a -0.289606D-01  0.443774D-01 -0.290082D-01  0.504039D+00  0.307111D+00
     10b -0.535315D-01  0.434577D-01 -0.533329D-01  0.307111D+00  0.189197D+00
 jaja non-ortho density matrix               [Gau-style] (imaginary):
                 1             2             3             4             5 
      1a  0.000000D+00  0.000000D+00  0.000000D+00  0.000000D+00  0.000000D+00
      1b  0.000000D+00  0.000000D+00  0.000000D+00  0.000000D+00  0.000000D+00
      2a  0.000000D+00  0.000000D+00  0.000000D+00  0.000000D+00  0.000000D+00
      2b  0.000000D+00  0.000000D+00  0.000000D+00  0.000000D+00  0.000000D+00
      3a  0.000000D+00  0.000000D+00  0.000000D+00  0.000000D+00  0.000000D+00
      3b  0.000000D+00  0.000000D+00  0.000000D+00  0.000000D+00  0.000000D+00
      4a  0.000000D+00  0.000000D+00  0.000000D+00  0.000000D+00  0.000000D+00
      4b  0.000000D+00  0.000000D+00  0.000000D+00  0.000000D+00  0.000000D+00
      5a  0.000000D+00  0.000000D+00  0.000000D+00  0.000000D+00  0.000000D+00
      5b  0.000000D+00  0.000000D+00  0.000000D+00  0.000000D+00  0.000000D+00
      6a  0.000000D+00  0.000000D+00  0.000000D+00  0.000000D+00  0.000000D+00
      6b  0.000000D+00  0.000000D+00  0.000000D+00  0.000000D+00  0.000000D+00
      7a  0.000000D+00  0.000000D+00  0.000000D+00  0.000000D+00  0.000000D+00
      7b  0.000000D+00  0.000000D+00  0.000000D+00  0.000000D+00  0.000000D+00
      8a  0.000000D+00  0.000000D+00  0.000000D+00  0.000000D+00  0.000000D+00
      8b  0.000000D+00  0.000000D+00  0.000000D+00  0.000000D+00  0.000000D+00
      9a  0.000000D+00  0.000000D+00  0.000000D+00  0.000000D+00  0.000000D+00
      9b  0.000000D+00  0.000000D+00  0.000000D+00  0.000000D+00  0.000000D+00
     10a  0.000000D+00  0.000000D+00  0.000000D+00  0.000000D+00  0.000000D+00
     10b  0.000000D+00  0.000000D+00  0.000000D+00  0.000000D+00  0.000000D+00
                 6             7             8             9            10 
      1a  0.000000D+00  0.000000D+00  0.000000D+00  0.000000D+00  0.000000D+00
      1b  0.000000D+00  0.000000D+00  0.000000D+00  0.000000D+00  0.000000D+00
      2a  0.000000D+00  0.000000D+00  0.000000D+00  0.000000D+00  0.000000D+00
      2b  0.000000D+00  0.000000D+00  0.000000D+00  0.000000D+00  0.000000D+00
      3a  0.000000D+00  0.000000D+00  0.000000D+00  0.000000D+00  0.000000D+00
      3b  0.000000D+00  0.000000D+00  0.000000D+00  0.000000D+00  0.000000D+00
      4a  0.000000D+00  0.000000D+00  0.000000D+00  0.000000D+00  0.000000D+00
      4b  0.000000D+00  0.000000D+00  0.000000D+00  0.000000D+00  0.000000D+00
      5a  0.000000D+00  0.000000D+00  0.000000D+00  0.000000D+00  0.000000D+00
      5b  0.000000D+00  0.000000D+00  0.000000D+00  0.000000D+00  0.000000D+00
      6a  0.000000D+00  0.000000D+00  0.000000D+00  0.000000D+00  0.000000D+00
      6b  0.000000D+00  0.000000D+00  0.000000D+00  0.000000D+00  0.000000D+00
      7a  0.000000D+00  0.000000D+00  0.000000D+00  0.000000D+00  0.000000D+00
      7b  0.000000D+00  0.000000D+00  0.000000D+00  0.000000D+00  0.000000D+00
      8a  0.000000D+00  0.000000D+00  0.000000D+00  0.000000D+00  0.000000D+00
      8b  0.000000D+00  0.000000D+00  0.000000D+00  0.000000D+00  0.000000D+00
      9a  0.000000D+00  0.000000D+00  0.000000D+00  0.000000D+00  0.000000D+00
      9b  0.000000D+00  0.000000D+00  0.000000D+00  0.000000D+00  0.000000D+00
     10a  0.000000D+00  0.000000D+00  0.000000D+00  0.000000D+00  0.000000D+00
     10b  0.000000D+00  0.000000D+00  0.000000D+00  0.000000D+00  0.000000D+00
                11            12            13            14            15 
      1a  0.000000D+00  0.000000D+00  0.000000D+00  0.000000D+00  0.000000D+00
      1b  0.000000D+00  0.000000D+00  0.000000D+00  0.000000D+00  0.000000D+00
      2a  0.000000D+00  0.000000D+00  0.000000D+00  0.000000D+00  0.000000D+00
      2b  0.000000D+00  0.000000D+00  0.000000D+00  0.000000D+00  0.000000D+00
      3a  0.000000D+00  0.000000D+00  0.000000D+00  0.000000D+00  0.000000D+00
      3b  0.000000D+00  0.000000D+00  0.000000D+00  0.000000D+00  0.000000D+00
      4a  0.000000D+00  0.000000D+00  0.000000D+00  0.000000D+00  0.000000D+00
      4b  0.000000D+00  0.000000D+00  0.000000D+00  0.000000D+00  0.000000D+00
      5a  0.000000D+00  0.000000D+00  0.000000D+00  0.000000D+00  0.000000D+00
      5b  0.000000D+00  0.000000D+00  0.000000D+00  0.000000D+00  0.000000D+00
      6a  0.000000D+00  0.000000D+00  0.000000D+00  0.000000D+00  0.000000D+00
      6b  0.000000D+00  0.000000D+00  0.000000D+00  0.000000D+00  0.000000D+00
      7a  0.000000D+00  0.000000D+00  0.000000D+00  0.000000D+00  0.000000D+00
      7b  0.000000D+00  0.000000D+00  0.000000D+00  0.000000D+00  0.000000D+00
      8a  0.000000D+00  0.000000D+00  0.000000D+00  0.000000D+00  0.000000D+00
      8b  0.000000D+00  0.000000D+00  0.000000D+00  0.000000D+00  0.000000D+00
      9a  0.000000D+00  0.000000D+00  0.000000D+00  0.000000D+00  0.000000D+00
      9b  0.000000D+00  0.000000D+00  0.000000D+00  0.000000D+00  0.000000D+00
     10a  0.000000D+00  0.000000D+00  0.000000D+00  0.000000D+00  0.000000D+00
     10b  0.000000D+00  0.000000D+00  0.000000D+00  0.000000D+00  0.000000D+00
                16            17            18            19            20 
      1a  0.000000D+00  0.000000D+00  0.000000D+00  0.000000D+00  0.000000D+00
      1b  0.000000D+00  0.000000D+00  0.000000D+00  0.000000D+00  0.000000D+00
      2a  0.000000D+00  0.000000D+00  0.000000D+00  0.000000D+00  0.000000D+00
      2b  0.000000D+00  0.000000D+00  0.000000D+00  0.000000D+00  0.000000D+00
      3a  0.000000D+00  0.000000D+00  0.000000D+00  0.000000D+00  0.000000D+00
      3b  0.000000D+00  0.000000D+00  0.000000D+00  0.000000D+00  0.000000D+00
      4a  0.000000D+00  0.000000D+00  0.000000D+00  0.000000D+00  0.000000D+00
      4b  0.000000D+00  0.000000D+00  0.000000D+00  0.000000D+00  0.000000D+00
      5a  0.000000D+00  0.000000D+00  0.000000D+00  0.000000D+00  0.000000D+00
      5b  0.000000D+00  0.000000D+00  0.000000D+00  0.000000D+00  0.000000D+00
      6a  0.000000D+00  0.000000D+00  0.000000D+00  0.000000D+00  0.000000D+00
      6b  0.000000D+00  0.000000D+00  0.000000D+00  0.000000D+00  0.000000D+00
      7a  0.000000D+00  0.000000D+00  0.000000D+00  0.000000D+00  0.000000D+00
      7b  0.000000D+00  0.000000D+00  0.000000D+00  0.000000D+00  0.000000D+00
      8a  0.000000D+00  0.000000D+00  0.000000D+00  0.000000D+00  0.000000D+00
      8b  0.000000D+00  0.000000D+00  0.000000D+00  0.000000D+00  0.000000D+00
      9a  0.000000D+00  0.000000D+00  0.000000D+00  0.000000D+00  0.000000D+00
      9b  0.000000D+00  0.000000D+00  0.000000D+00  0.000000D+00  0.000000D+00
     10a  0.000000D+00  0.000000D+00  0.000000D+00  0.000000D+00  0.000000D+00
     10b  0.000000D+00  0.000000D+00  0.000000D+00  0.000000D+00  0.000000D+00
FORTRAN STOP
