 Entering Gaussian System, Link 0=gdv
 AtFile(1): H.gbs
            H     0
            S   10   1.00
               1000.000000000000            0.000068713567
                316.227766000000            0.000169141320
                100.000000000000            0.000823394812
                 31.622776600000            0.003425569236
                 10.000000000000            0.013951996000
                  3.162277660000            0.056909313560
                  1.000000000000            0.198286399900
                  0.316227766000            0.496922426700
                  0.100000000000            0.369846276400
                  0.031622776600            0.003752720039
            ****
 Initial command:
 /users/lcj1/GHF_hess/exe-dir/l1.exe "/users/lcj1/GHF_hess/h10_2rows/mixrmY/Gau-22683.inp" -scrdir="/users/lcj1/GHF_hess/h10_2rows/mixrmY/"
 Entering Link 1 = /users/lcj1/GHF_hess/exe-dir/l1.exe PID=     22684.
  
 Copyright (c) 1988,1990,1992,1993,1995,1998,2003,2009,2012,
            Gaussian, Inc.  All Rights Reserved.
  
 This is the private, development version of
 the Gaussian(R) DV system of programs. It is based on
 the Gaussian(R) 09 system (copyright 2009, Gaussian, Inc.),
 the Gaussian(R) 03 system (copyright 2003, Gaussian, Inc.),
 the Gaussian(R) 98 system (copyright 1998, Gaussian, Inc.),
 the Gaussian(R) 94 system (copyright 1995, Gaussian, Inc.),
 the Gaussian 92(TM) system (copyright 1992, Gaussian, Inc.),
 the Gaussian 90(TM) system (copyright 1990, Gaussian, Inc.),
 the Gaussian 88(TM) system (copyright 1988, Gaussian, Inc.),
 the Gaussian 86(TM) system (copyright 1986, Carnegie Mellon
 University), and the Gaussian 82(TM) system (copyright 1983,
 Carnegie Mellon University). Gaussian is a federally registered
 trademark of Gaussian, Inc.
  
 This software contains proprietary and confidential information,
 including trade secrets, belonging to Gaussian, Inc.
  
 This software is provided under written license and may be
 used, copied, transmitted, or stored only in accord with that
 written license.
  
 The following legend is applicable only to US Government
 contracts under FAR:
  
                    RESTRICTED RIGHTS LEGEND
  
 Use, reproduction and disclosure by the US Government is
 subject to restrictions as set forth in subparagraphs (a)
 and (c) of the Commercial Computer Software - Restricted
 Rights clause in FAR 52.227-19.
  
 Gaussian, Inc.
 340 Quinnipiac St., Bldg. 40, Wallingford CT 06492
  
  
 ---------------------------------------------------------------
 Warning -- This program may not be used in any manner that
 competes with the business of Gaussian, Inc. or will provide
 assistance to any competitor of Gaussian, Inc.  The licensee
 of this program is prohibited from giving any competitor of
 Gaussian, Inc. access to this program.  By using this program,
 the user acknowledges that Gaussian, Inc. is engaged in the
 business of creating and licensing software in the field of
 computational chemistry and represents and warrants to the
 licensee that it is not a competitor of Gaussian, Inc. and that
 it will not use this program in any manner prohibited above.
 ---------------------------------------------------------------
  

 Cite this work as:
 Gaussian Development Version, Revision H.21,
 M. J. Frisch, G. W. Trucks, H. B. Schlegel, G. E. Scuseria, 
 M. A. Robb, J. R. Cheeseman, G. Scalmani, V. Barone, B. Mennucci, 
 G. A. Petersson, H. Nakatsuji, M. Caricato, X. Li, H. P. Hratchian, 
 A. F. Izmaylov, J. Bloino, G. Zheng, J. L. Sonnenberg, W. Liang, 
 M. Hada, M. Ehara, K. Toyota, R. Fukuda, J. Hasegawa, M. Ishida, 
 T. Nakajima, Y. Honda, O. Kitao, H. Nakai, T. Vreven, 
 J. A. Montgomery, Jr., J. E. Peralta, F. Ogliaro, M. Bearpark, 
 J. J. Heyd, E. Brothers, K. N. Kudin, V. N. Staroverov, T. Keith, 
 R. Kobayashi, J. Normand, K. Raghavachari, A. Rendell, J. C. Burant, 
 S. S. Iyengar, J. Tomasi, M. Cossi, N. Rega, J. M. Millam, M. Klene, 
 J. E. Knox, J. B. Cross, V. Bakken, C. Adamo, J. Jaramillo, 
 R. Gomperts, R. E. Stratmann, O. Yazyev, A. J. Austin, R. Cammi, 
 C. Pomelli, J. W. Ochterski, R. L. Martin, K. Morokuma, 
 V. G. Zakrzewski, G. A. Voth, P. Salvador, J. J. Dannenberg, 
 S. Dapprich, P. V. Parandekar, N. J. Mayhall, A. D. Daniels, 
 O. Farkas, J. B. Foresman, J. V. Ortiz, J. Cioslowski, 
 and D. J. Fox, Gaussian, Inc., Wallingford CT, 2010.
 
 ******************************************
 Gaussian DV:  EM64L-GDVRevH.21 13-May-2012
                28-Feb-2017 
 ******************************************
 %chk=h10.chk
 ----------------------------------------------------------------------
 #ghf/gen scf(tight,novaracc,noincfock,fulldiag) stable guess=(read,mix
 ) geom=nocrowd use=l802 use=l902 test
 ----------------------------------------------------------------------
 ********************************************
   THE COMPLEX ERI TRANSFORMATION WITH L802  
        COMPLEX STABILITY WITH L902          
 ********************************************
 1/38=1/1;
 2/12=1,17=6,18=5,40=1/2;
 3/5=7,16=1,25=20,28=1,116=7/1,2,3,20;
 4/5=1,13=-1/1;
 5/5=100001,16=1,32=2,38=6/2;
 8/6=1,10=90,11=11/1,2;
 9/8=4,13=1/1,2;
 6/7=2,8=2,9=2,10=2,28=1/1;
 99/5=1,9=1/99;
 ----------------------------------------------------------------------
 hf stability analysis of h10 triangular lattice, y= 0.2357806384192915
 3 alpha= 5.5000000000000000
 ----------------------------------------------------------------------
 Symbolic Z-Matrix:
 Charge =  0 Multiplicity = 1
 H
 H                    1     2.46 
 H                    1     2.46     2     169. 
 H                    2     2.46     1     11.      3     0.       0
 H                    3     2.46     1     180.     2     0.       0
 H                    4     2.46     2     180.     1     0.       0
 H                    5     2.46     3     180.     2     0.       0
 H                    6     2.46     4     180.     1     0.       0
 H                    7     2.46     5     180.     2     0.       0
 H                    8     2.46     6     180.     1     0.       0
 
                          Input orientation:                          
 ---------------------------------------------------------------------
 Center     Atomic      Atomic             Coordinates (Angstroms)
 Number     Number       Type             X           Y           Z
 ---------------------------------------------------------------------
      1          1           0        0.000000    0.000000    0.000000
      2          1           0        0.000000    0.000000    2.460001
      3          1           0        0.469390    0.000000   -2.414804
      4          1           0        0.469390    0.000000    0.045197
      5          1           0        0.938781    0.000000   -4.829607
      6          1           0        0.938781    0.000000   -2.369607
      7          1           0        1.408171    0.000000   -7.244411
      8          1           0        1.408171    0.000000   -4.784410
      9          1           0        1.877561    0.000000   -9.659215
     10          1           0        1.877561    0.000000   -7.199214
 ---------------------------------------------------------------------
                    Distance matrix (angstroms):
                    1          2          3          4          5
     1  H    0.000000
     2  H    2.460001   0.000000
     3  H    2.460001   4.897351   0.000000
     4  H    0.471561   2.460001   2.460001   0.000000
     5  H    4.920002   7.349809   2.460001   4.897351   0.000000
     6  H    2.548793   4.920002   0.471561   2.460001   2.460001
     7  H    7.380003   9.806047   4.920002   7.349809   2.460001
     8  H    4.987337   7.380003   2.548793   4.920002   0.471561
     9  H    9.840003  12.263793   7.380003   9.806047   4.920002
    10  H    7.440021   9.840003   4.987337   7.380003   2.548793
                    6          7          8          9         10
     6  H    0.000000
     7  H    4.897351   0.000000
     8  H    2.460001   2.460001   0.000000
     9  H    7.349809   2.460001   4.897351   0.000000
    10  H    4.920002   0.471561   2.460001   2.460001   0.000000
 Stoichiometry    H10
 Framework group  C2H[SGH(H10)]
 Deg. of freedom     9
 Full point group                 C2H     NOp   4
 Largest Abelian subgroup         C2H     NOp   4
 Largest concise Abelian subgroup C2      NOp   2
                         Standard orientation:                         
 ---------------------------------------------------------------------
 Center     Atomic      Atomic             Coordinates (Angstroms)
 Number     Number       Type             X           Y           Z
 ---------------------------------------------------------------------
      1          1           0        0.938781   -3.599607    0.000000
      2          1           0        0.938781   -6.059608    0.000000
      3          1           0        0.469390   -1.184803    0.000000
      4          1           0        0.469390   -3.644804    0.000000
      5          1           0        0.000000    1.230000    0.000000
      6          1           0        0.000000   -1.230000    0.000000
      7          1           0       -0.469390    3.644804    0.000000
      8          1           0       -0.469390    1.184803    0.000000
      9          1           0       -0.938781    6.059608    0.000000
     10          1           0       -0.938781    3.599607    0.000000
 ---------------------------------------------------------------------
 Rotational constants (GHZ):   1020.4840379      3.6961465      3.6828076
 General basis read from cards:  (5D, 7F)
 There are     5 symmetry adapted cartesian basis functions of AG  symmetry.
 There are     0 symmetry adapted cartesian basis functions of BG  symmetry.
 There are     0 symmetry adapted cartesian basis functions of AU  symmetry.
 There are     5 symmetry adapted cartesian basis functions of BU  symmetry.
 There are     5 symmetry adapted basis functions of AG  symmetry.
 There are     0 symmetry adapted basis functions of BG  symmetry.
 There are     0 symmetry adapted basis functions of AU  symmetry.
 There are     5 symmetry adapted basis functions of BU  symmetry.
    10 basis functions,   100 primitive gaussians,    10 cartesian basis functions
     5 alpha electrons        5 beta electrons
       nuclear repulsion energy        10.0303800586 Hartrees.
 NAtoms=   10 NActive=   10 NUniq=    5 SFac= 4.00D+00 NAtFMM=   60 NAOKFM=F Big=F
 Integral buffers will be    131072 words long.
 Regular integral format.
 Two-electron integral symmetry is turned off.
 One-electron integrals computed using PRISM.
 NBasis=    10 RedAO= T EigKep=  1.05D-01  NBF=     5     0     0     5
 NBsUse=    10 1.00D-06 EigRej= -1.00D+00 NBFU=     5     0     0     5
 IOp(28)                       1
                        1                       0
                        2                       1
                        3                       1
                        4                      20
                        5                       0
                        6                       0
                        7                      10
                        8                       1
                        9                       4
                       10                       0
                       11              1073741824
                       12                      20
                       13                       2
                       14                  131070
                       15                       1
                       16                       1
                       17                  131073
                       18                       0
                       19                       0
                       20                       0
                       21                       2
                       22                  131070
                       23                       0
                       24                       0
                       25                       0
                       26                       0
                       27                   65535
                       28                       2
                       29                  131072
                       30                       0
 IHMeth                       1
 ib3: ISMode =                        0                       4
 Enter DskPsm, NBasis=  10 NBas6D=  10 NShell=  10 IDoSP=4.
 Out2e will use a cutoff of  1.00D-10
 FoFCou: FMM=F IPFlag=           0 FMFlag=           0 FMFlg1=           0
         NFxFlg=           0 DoJE=F BraDBF=F KetDBF=F FulRan=T
         wScrn=  0.000000 ICntrl=     600 IOpCl=  9 I1Cent=           0 NGrid=           0
         NMat0=    0 NMatS0=      0 NMatT0=    0 NMatD0=    0 NMtDS0=    0 NMtDT0=    0
 Symmetry not used in FoFCou.
 Entering PrmDigJobTyp =                      20
 LenSav and NKeep                       0                       0
 Entered Stor2E with KNTT1,2                       2                  131070
 Leave Stor2X
 Entering PrmDigJobTyp =                      20
 LenSav and NKeep                       0                       0
 Entered Stor2E with KNTT1,2                       2                  131056
 Leave Stor2X
 Entering PrmDigJobTyp =                      20
 LenSav and NKeep                       0                       0
 Entered Stor2E with KNTT1,2                       2                  131042
 Leave Stor2X
 Entering PrmDigJobTyp =                      20
 LenSav and NKeep                       0                       0
 Entered Stor2E with KNTT1,2                       2                  131028
 Leave Stor2X
 Entering PrmDigJobTyp =                      20
 LenSav and NKeep                       0                       0
 Entered Stor2E with KNTT1,2                       2                  131014
 Leave Stor2X
 Entering PrmDigJobTyp =                      20
 LenSav and NKeep                       0                       0
 Entered Stor2E with KNTT1,2                       2                  131000
 Leave Stor2X
 Entering PrmDigJobTyp =                      20
 LenSav and NKeep                       0                       0
 Entered Stor2E with KNTT1,2                       2                  130986
 Leave Stor2X
 Entering PrmDigJobTyp =                      20
 LenSav and NKeep                       0                       0
 Entered Stor2E with KNTT1,2                       2                  130972
 Leave Stor2X
 Entering PrmDigJobTyp =                      20
 LenSav and NKeep                       0                       0
 Entered Stor2E with KNTT1,2                       2                  130960
 Leave Stor2X
 Entering PrmDigJobTyp =                      20
 LenSav and NKeep                       0                       0
 Entered Stor2E with KNTT1,2                       2                  130942
 Leave Stor2X
 Entering PrmDigJobTyp =                      20
 LenSav and NKeep                       0                       0
 Entered Stor2E with KNTT1,2                       2                  130924
 Leave Stor2X
 Entering PrmDigJobTyp =                      20
 LenSav and NKeep                       0                       0
 Entered Stor2E with KNTT1,2                       2                  130906
 Leave Stor2X
 Entering PrmDigJobTyp =                      20
 LenSav and NKeep                       0                       0
 Entered Stor2E with KNTT1,2                       2                  130888
 Leave Stor2X
 Entering PrmDigJobTyp =                      20
 LenSav and NKeep                       0                       0
 Entered Stor2E with KNTT1,2                       2                  130870
 Leave Stor2X
 Entering PrmDigJobTyp =                      20
 LenSav and NKeep                       0                       0
 Entered Stor2E with KNTT1,2                       2                  130852
 Leave Stor2X
 Entering PrmDigJobTyp =                      20
 LenSav and NKeep                       0                       0
 Entered Stor2E with KNTT1,2                       2                  130834
 Leave Stor2X
 Entering PrmDigJobTyp =                      20
 LenSav and NKeep                       0                       0
 Entered Stor2E with KNTT1,2                       2                  130816
 Leave Stor2X
 Entering PrmDigJobTyp =                      20
 LenSav and NKeep                       0                       0
 Entered Stor2E with KNTT1,2                       2                  130798
 Leave Stor2X
 Entering PrmDigJobTyp =                      20
 LenSav and NKeep                       0                       0
 Entered Stor2E with KNTT1,2                       2                  130780
 Leave Stor2X
 Entering PrmDigJobTyp =                      20
 LenSav and NKeep                       0                       0
 Entered Stor2E with KNTT1,2                       2                  130762
 Leave Stor2X
 Entering PrmDigJobTyp =                      20
 LenSav and NKeep                       0                       0
 Entered Stor2E with KNTT1,2                       2                  130744
 Leave Stor2X
 Entering PrmDigJobTyp =                      20
 LenSav and NKeep                       0                       0
 Entered Stor2E with KNTT1,2                       2                  130726
 Leave Stor2X
 Entering PrmDigJobTyp =                      20
 LenSav and NKeep                       0                       0
 Entered Stor2E with KNTT1,2                       2                  130708
 Leave Stor2X
 Entering PrmDigJobTyp =                      20
 LenSav and NKeep                       0                       0
 Entered Stor2E with KNTT1,2                       2                  130700
 Leave Stor2X
 Entering PrmDigJobTyp =                      20
 LenSav and NKeep                       0                       0
 Entered Stor2E with KNTT1,2                      12                  130678
 Leave Stor2X
 Entering PrmDigJobTyp =                      20
 LenSav and NKeep                       0                       0
 Entered Stor2E with KNTT1,2                      32                  130666
 Leave Stor2X
 Entering PrmDigJobTyp =                      20
 LenSav and NKeep                       0                       0
 Entered Stor2E with KNTT1,2                      52                  130654
 Leave Stor2X
 Entering PrmDigJobTyp =                      20
 LenSav and NKeep                       0                       0
 Entered Stor2E with KNTT1,2                      76                  130646
 Leave Stor2X
 Entering PrmDigJobTyp =                      20
 LenSav and NKeep                       0                       0
 Entered Stor2E with KNTT1,2                      98                  130636
 Leave Stor2X
 Entering PrmDigJobTyp =                      20
 LenSav and NKeep                       0                       0
 Entered Stor2E with KNTT1,2                     114                  130630
 Leave Stor2X
 Entering PrmDigJobTyp =                      20
 LenSav and NKeep                       0                       0
 Entered Stor2E with KNTT1,2                     114                  130602
 Leave Stor2X
 Entering PrmDigJobTyp =                      20
 LenSav and NKeep                       0                       0
 Entered Stor2E with KNTT1,2                     114                  130574
 Leave Stor2X
 Entering PrmDigJobTyp =                      20
 LenSav and NKeep                       0                       0
 Entered Stor2E with KNTT1,2                     114                  130546
 Leave Stor2X
 Entering PrmDigJobTyp =                      20
 LenSav and NKeep                       0                       0
 Entered Stor2E with KNTT1,2                     114                  130518
 Leave Stor2X
 Entering PrmDigJobTyp =                      20
 LenSav and NKeep                       0                       0
 Entered Stor2E with KNTT1,2                     114                  130490
 Leave Stor2X
 Entering PrmDigJobTyp =                      20
 LenSav and NKeep                       0                       0
 Entered Stor2E with KNTT1,2                     114                  130462
 Leave Stor2X
 Entering PrmDigJobTyp =                      20
 LenSav and NKeep                       0                       0
 Entered Stor2E with KNTT1,2                     114                  130434
 Leave Stor2X
 Entering PrmDigJobTyp =                      20
 LenSav and NKeep                       0                       0
 Entered Stor2E with KNTT1,2                     114                  130406
 Leave Stor2X
 Entering PrmDigJobTyp =                      20
 LenSav and NKeep                       0                       0
 Entered Stor2E with KNTT1,2                     114                  130390
 Leave Stor2X
 Entering PrmDigJobTyp =                      20
 LenSav and NKeep                       0                       0
 Entered Stor2E with KNTT1,2                     140                  130370
 Leave Stor2X
 Entering PrmDigJobTyp =                      20
 LenSav and NKeep                       0                       0
 Entered Stor2E with KNTT1,2                     166                  130350
 Leave Stor2X
 Entering PrmDigJobTyp =                      20
 LenSav and NKeep                       0                       0
 Entered Stor2E with KNTT1,2                     198                  130336
 Leave Stor2X
 Entering PrmDigJobTyp =                      20
 LenSav and NKeep                       0                       0
 Entered Stor2E with KNTT1,2                     222                  130314
 Leave Stor2X
 Entering PrmDigJobTyp =                      20
 LenSav and NKeep                       0                       0
 Entered Stor2E with KNTT1,2                     248                  130294
 Leave Stor2X
 Entering PrmDigJobTyp =                      20
 LenSav and NKeep                       0                       0
 Entered Stor2E with KNTT1,2                     276                  130276
 Leave Stor2X
 Entering PrmDigJobTyp =                      20
 LenSav and NKeep                       0                       0
 Entered Stor2E with KNTT1,2                     298                  130262
 Leave Stor2X
 Entering PrmDigJobTyp =                      20
 LenSav and NKeep                       0                       0
 Entered Stor2E with KNTT1,2                     338                  130234
 Leave Stor2X
 Entering PrmDigJobTyp =                      20
 LenSav and NKeep                       0                       0
 Entered Stor2E with KNTT1,2                     382                  130210
 Leave Stor2X
 Entering PrmDigJobTyp =                      20
 LenSav and NKeep                       0                       0
 Entered Stor2E with KNTT1,2                     394                  130202
 Leave Stor2X
 Entering PrmDigJobTyp =                      20
 LenSav and NKeep                       0                       0
 Entered Stor2E with KNTT1,2                     394                  130188
 Leave Stor2X
 Entering PrmDigJobTyp =                      20
 LenSav and NKeep                       0                       0
 Entered Stor2E with KNTT1,2                     394                  130174
 Leave Stor2X
 Entering PrmDigJobTyp =                      20
 LenSav and NKeep                       0                       0
 Entered Stor2E with KNTT1,2                     394                  130160
 Leave Stor2X
 Entering PrmDigJobTyp =                      20
 LenSav and NKeep                       0                       0
 Entered Stor2E with KNTT1,2                     394                  130146
 Leave Stor2X
 Entering PrmDigJobTyp =                      20
 LenSav and NKeep                       0                       0
 Entered Stor2E with KNTT1,2                     394                  130132
 Leave Stor2X
 Entering PrmDigJobTyp =                      20
 LenSav and NKeep                       0                       0
 Entered Stor2E with KNTT1,2                     394                  130122
 Leave Stor2X
 Entering PrmDigJobTyp =                      20
 LenSav and NKeep                       0                       0
 Entered Stor2E with KNTT1,2                     406                  130112
 Leave Stor2X
 Entering PrmDigJobTyp =                      20
 LenSav and NKeep                       0                       0
 Entered Stor2E with KNTT1,2                     416                  130100
 Leave Stor2X
 Entering PrmDigJobTyp =                      20
 LenSav and NKeep                       0                       0
 Entered Stor2E with KNTT1,2                     434                  130096
 Leave Stor2X
 Entering PrmDigJobTyp =                      20
 LenSav and NKeep                       0                       0
 Entered Stor2E with KNTT1,2                     448                  130088
 Leave Stor2X
 Entering PrmDigJobTyp =                      20
 LenSav and NKeep                       0                       0
 Entered Stor2E with KNTT1,2                     454                  130078
 Leave Stor2X
 Entering PrmDigJobTyp =                      20
 LenSav and NKeep                       0                       0
 Entered Stor2E with KNTT1,2                     474                  130066
 Leave Stor2X
 Entering PrmDigJobTyp =                      20
 LenSav and NKeep                       0                       0
 Entered Stor2E with KNTT1,2                     490                  130050
 Leave Stor2X
 Entering PrmDigJobTyp =                      20
 LenSav and NKeep                       0                       0
 Entered Stor2E with KNTT1,2                     510                  130038
 Leave Stor2X
 Entering PrmDigJobTyp =                      20
 LenSav and NKeep                       0                       0
 Entered Stor2E with KNTT1,2                     518                  130032
 Leave Stor2X
 Entering PrmDigJobTyp =                      20
 LenSav and NKeep                       0                       0
 Entered Stor2E with KNTT1,2                     522                  130030
 Leave Stor2X
 Entering PrmDigJobTyp =                      20
 LenSav and NKeep                       0                       0
 Entered Stor2E with KNTT1,2                     522                  129994
 Leave Stor2X
 Entering PrmDigJobTyp =                      20
 LenSav and NKeep                       0                       0
 Entered Stor2E with KNTT1,2                     522                  129958
 Leave Stor2X
 Entering PrmDigJobTyp =                      20
 LenSav and NKeep                       0                       0
 Entered Stor2E with KNTT1,2                     522                  129922
 Leave Stor2X
 Entering PrmDigJobTyp =                      20
 LenSav and NKeep                       0                       0
 Entered Stor2E with KNTT1,2                     522                  129886
 Leave Stor2X
 Entering PrmDigJobTyp =                      20
 LenSav and NKeep                       0                       0
 Entered Stor2E with KNTT1,2                     522                  129870
 Leave Stor2X
 Entering PrmDigJobTyp =                      20
 LenSav and NKeep                       0                       0
 Entered Stor2E with KNTT1,2                     558                  129846
 Leave Stor2X
 Entering PrmDigJobTyp =                      20
 LenSav and NKeep                       0                       0
 Entered Stor2E with KNTT1,2                     594                  129822
 Leave Stor2X
 Entering PrmDigJobTyp =                      20
 LenSav and NKeep                       0                       0
 Entered Stor2E with KNTT1,2                     634                  129802
 Leave Stor2X
 Entering PrmDigJobTyp =                      20
 LenSav and NKeep                       0                       0
 Entered Stor2E with KNTT1,2                     650                  129790
 Leave Stor2X
 Entering PrmDigJobTyp =                      20
 LenSav and NKeep                       0                       0
 Entered Stor2E with KNTT1,2                     704                  129756
 Leave Stor2X
 Entering PrmDigJobTyp =                      20
 LenSav and NKeep                       0                       0
 Entered Stor2E with KNTT1,2                     760                  129724
 Leave Stor2X
 Entering PrmDigJobTyp =                      20
 LenSav and NKeep                       0                       0
 Entered Stor2E with KNTT1,2                     770                  129718
 Leave Stor2X
 Entering PrmDigJobTyp =                      20
 LenSav and NKeep                       0                       0
 Entered Stor2E with KNTT1,2                     796                  129704
 Leave Stor2X
 Entering PrmDigJobTyp =                      20
 LenSav and NKeep                       0                       0
 Entered Stor2E with KNTT1,2                     810                  129694
 Leave Stor2X
 Entering PrmDigJobTyp =                      20
 LenSav and NKeep                       0                       0
 Entered Stor2E with KNTT1,2                     814                  129684
 Leave Stor2X
 Entering PrmDigJobTyp =                      20
 LenSav and NKeep                       0                       0
 Entered Stor2E with KNTT1,2                     826                  129682
 Leave Stor2X
 Entering PrmDigJobTyp =                      20
 LenSav and NKeep                       0                       0
 Entered Stor2E with KNTT1,2                     834                  129676
 Leave Stor2X
 Entering PrmDigJobTyp =                      20
 LenSav and NKeep                       0                       0
 Entered Stor2E with KNTT1,2                     844                  129672
 Leave Stor2X
 Entering PrmDigJobTyp =                      20
 LenSav and NKeep                       0                       0
 Entered Stor2E with KNTT1,2                     854                  129668
 Leave Stor2X
 Entering PrmDigJobTyp =                      20
 LenSav and NKeep                       0                       0
 Entered Stor2E with KNTT1,2                     854                  129666
 Leave Stor2X
 Entering PrmDigJobTyp =                      20
 LenSav and NKeep                       0                       0
 Entered Stor2E with KNTT1,2                     854                  129646
 Leave Stor2X
 Entering PrmDigJobTyp =                      20
 LenSav and NKeep                       0                       0
 Entered Stor2E with KNTT1,2                     854                  129626
 Leave Stor2X
 Entering PrmDigJobTyp =                      20
 LenSav and NKeep                       0                       0
 Entered Stor2E with KNTT1,2                     854                  129606
 Leave Stor2X
 Entering PrmDigJobTyp =                      20
 LenSav and NKeep                       0                       0
 Entered Stor2E with KNTT1,2                     874                  129594
 Leave Stor2X
 Entering PrmDigJobTyp =                      20
 LenSav and NKeep                       0                       0
 Entered Stor2E with KNTT1,2                     894                  129582
 Leave Stor2X
 Entering PrmDigJobTyp =                      20
 LenSav and NKeep                       0                       0
 Entered Stor2E with KNTT1,2                     900                  129574
 Leave Stor2X
 Entering PrmDigJobTyp =                      20
 LenSav and NKeep                       0                       0
 Entered Stor2E with KNTT1,2                     926                  129552
 Leave Stor2X
 Entering PrmDigJobTyp =                      20
 LenSav and NKeep                       0                       0
 Entered Stor2E with KNTT1,2                     940                  129542
 Leave Stor2X
 Entering PrmDigJobTyp =                      20
 LenSav and NKeep                       0                       0
 Entered Stor2E with KNTT1,2                     952                  129532
 Leave Stor2X
 Entering PrmDigJobTyp =                      20
 LenSav and NKeep                       0                       0
 Entered Stor2E with KNTT1,2                     952                  129530
 Leave Stor2X
 Entering PrmDigJobTyp =                      20
 LenSav and NKeep                       0                       0
 Entered Stor2E with KNTT1,2                     984                  129514
 Leave Stor2X
 Entering PrmDigJobTyp =                      20
 LenSav and NKeep                       0                       0
 Entered Stor2E with KNTT1,2                     990                  129508
 Leave Stor2X
 Entering PrmDigJobTyp =                      20
 LenSav and NKeep                       0                       0
 Entered Stor2E with KNTT1,2                     990                  129456
 Leave Stor2X
 Entering PrmDigJobTyp =                      20
 LenSav and NKeep                       0                       0
 Entered Stor2E with KNTT1,2                     990                  129428
 Leave Stor2X
 Entering PrmDigJobTyp =                      20
 LenSav and NKeep                       0                       0
 Entered Stor2E with KNTT1,2                    1046                  129396
 Leave Stor2X
 Entering PrmDigJobTyp =                      20
 LenSav and NKeep                       0                       0
 Entered Stor2E with KNTT1,2                    1058                  129392
 Leave Stor2X
 Entering PrmDigJobTyp =                      20
 LenSav and NKeep                       0                       0
 Entered Stor2E with KNTT1,2                    1066                  129384
 Leave Stor2X
 Entering PrmDigJobTyp =                      20
 LenSav and NKeep                       0                       0
 Entered Stor2E with KNTT1,2                    1080                  129382
 Leave Stor2X
 Entering PrmDigJobTyp =                      20
 LenSav and NKeep                       0                       0
 Entered Stor2E with KNTT1,2                    1090                  129376
 Leave Stor2X
 Entering PrmDigJobTyp =                      20
 LenSav and NKeep                       0                       0
 Entered Stor2E with KNTT1,2                    1102                  129372
 Leave Stor2X
 Entering PrmDigJobTyp =                      20
 LenSav and NKeep                       0                       0
 Entered Stor2E with KNTT1,2                    1110                  129364
 Leave Stor2X
 Entering PrmDigJobTyp =                      20
 LenSav and NKeep                       0                       0
 Entered Stor2E with KNTT1,2                    1122                  129360
 Leave Stor2X
 Entering PrmDigJobTyp =                      20
 LenSav and NKeep                       0                       0
 Entered Stor2E with KNTT1,2                    1146                  129352
 Leave Stor2X
 Entering PrmDigJobTyp =                      20
 LenSav and NKeep                       0                       0
 Entered Stor2E with KNTT1,2                    1146                  129352
 Leave Stor2X
 Entering PrmDigJobTyp =                      20
 LenSav and NKeep                       0                       0
 Entered Stor2E with KNTT1,2                    1146                  129352
 Leave Stor2X
 Entering PrmDigJobTyp =                      20
 LenSav and NKeep                       0                       0
 Entered Stor2E with KNTT1,2                    1146                  129352
 Leave Stor2X
 Entering PrmDigJobTyp =                      20
 LenSav and NKeep                       0                       0
 Entered Stor2E with KNTT1,2                    1146                  129352
 Leave Stor2X
 Entering PrmDigJobTyp =                      20
 LenSav and NKeep                       0                       0
 Entered Stor2E with KNTT1,2                    1166                  129348
 Leave Stor2X
 Entering PrmDigJobTyp =                      20
 LenSav and NKeep                       0                       0
 Entered Stor2E with KNTT1,2                    1166                  129328
 Leave Stor2X
 Entering PrmDigJobTyp =                      20
 LenSav and NKeep                       0                       0
 Entered Stor2E with KNTT1,2                    1182                  129324
 Leave Stor2X
 Entering PrmDigJobTyp =                      20
 LenSav and NKeep                       0                       0
 Entered Stor2E with KNTT1,2                    1184                  129320
 Leave Stor2X
 Entering PrmDigJobTyp =                      20
 LenSav and NKeep                       0                       0
 Entered Stor2E with KNTT1,2                    1184                  129320
 Leave Stor2X
 Entering PrmDigJobTyp =                      20
 LenSav and NKeep                       0                       0
 Entered Stor2E with KNTT1,2                    1192                  129320
 Leave Stor2X
 In PrSumR
 Called IWRITE
         1473 integrals produced for a total of         1473.
 Initial guess from the checkpoint file:  "h10.chk"
 B after Tr=     0.000000    0.000000    0.000000
         Rot=    0.466410    0.000000    0.000000    0.884569 Ang= 124.40 deg.
 Mixing orbitals, IMix= 1 IMixAn=  0 NRI=2 NE=   10 Coef=  7.07106781D-01  7.07106781D-01
 Also mixing orbitals    10 and    12 Coef=  7.07106781D-01  7.07106781D-01
 Initial guess <Sx>= 0.0000 <Sy>= 0.0000 <Sz>= 0.0000 <S**2>= 0.5000 S= 0.3660
 Two-electron integrals will be kept in memory, NGetB=      152788.
 Requested convergence on RMS density matrix=1.00D-08 within 128 cycles.
 Requested convergence on MAX density matrix=1.00D-06.
 Requested convergence on             energy=1.00D-06.
 No special actions if energy rises.
 Density File Not Found. Continue as usual
 SCF Done:  E(GHF) =  -4.67411413145     A.U. after   12 cycles
            NFock= 12  Conv=0.85D-09     -V/T= 1.9983
 <Sx>= 0.0000 <Sy>= 0.0000 <Sz>= 0.0000 <S**2>= 1.0000 S= 0.6180
 <L.S>= 0.000000000000E+00
 Range of M.O.s used for correlation:     1    10
 NBasis=    10 NAE=    10 NBE=     0 NFC=     0 NFV=     0
 NROrb=     20 NOA=    10 NOB=     0 NVA=    10 NVB=     0
 jaja DoHack is true or false? T
 jaja in hckghf.F, NBasis=                      10
 jaja in hckGHF/FixOG, LC =                      800
 jaja in hckGHF/FixOG, IRwC=                      548
 bfr conversion (real):
                 1             2             3             4             5 
      1a  0.000000D+00  0.156595D+00  0.000000D+00 -0.285581D+00  0.000000D+00
      1b  0.198846D+00  0.000000D+00  0.312222D+00  0.000000D+00  0.307232D+00
      2a  0.000000D+00 -0.725210D-02  0.000000D+00  0.132904D-01  0.000000D+00
      2b  0.795784D-02  0.000000D+00  0.140557D-01  0.000000D+00  0.162311D-01
      3a  0.000000D+00  0.272000D+00  0.000000D+00 -0.213432D+00  0.000000D+00
      3b  0.287119D+00  0.000000D+00  0.145167D+00  0.000000D+00 -0.238241D+00
      4a  0.000000D+00  0.154736D+00  0.000000D+00 -0.284311D+00  0.000000D+00
      4b  0.196934D+00  0.000000D+00  0.311531D+00  0.000000D+00  0.309639D+00
      5a  0.000000D+00  0.286524D+00  0.000000D+00  0.149376D+00  0.000000D+00
      5b  0.270938D+00  0.000000D+00 -0.216834D+00  0.000000D+00 -0.162672D+00
      6a  0.000000D+00  0.270938D+00  0.000000D+00 -0.216834D+00  0.000000D+00
      6b  0.286524D+00  0.000000D+00  0.149376D+00  0.000000D+00 -0.234296D+00
      7a  0.000000D+00  0.196934D+00  0.000000D+00  0.311531D+00  0.000000D+00
      7b  0.154736D+00  0.000000D+00 -0.284311D+00  0.000000D+00  0.333411D+00
      8a  0.000000D+00  0.287119D+00  0.000000D+00  0.145167D+00  0.000000D+00
      8b  0.272000D+00  0.000000D+00 -0.213432D+00  0.000000D+00 -0.167364D+00
      9a  0.000000D+00  0.795784D-02  0.000000D+00  0.140557D-01  0.000000D+00
      9b -0.725210D-02  0.000000D+00  0.132904D-01  0.000000D+00 -0.155306D-01
     10a  0.000000D+00  0.198846D+00  0.000000D+00  0.312222D+00  0.000000D+00
     10b  0.156595D+00  0.000000D+00 -0.285581D+00  0.000000D+00  0.331549D+00
                 6             7             8             9            10 
      1a  0.331549D+00  0.000000D+00 -0.233703D+00  0.161806D-03  0.000000D+00
      1b  0.000000D+00  0.189082D+00  0.000000D+00  0.000000D+00 -0.803970D-01
      2a -0.155306D-01  0.000000D+00  0.110051D-01 -0.340186D-05  0.000000D+00
      2b  0.000000D+00  0.115225D-01  0.000000D+00  0.000000D+00  0.100805D+01
      3a -0.167364D+00  0.000000D+00  0.356255D+00 -0.133987D-02  0.000000D+00
      3b  0.000000D+00 -0.337805D+00  0.000000D+00  0.000000D+00  0.104599D-01
      4a  0.333411D+00  0.000000D+00 -0.237065D+00  0.163139D-03  0.000000D+00
      4b  0.000000D+00  0.192219D+00  0.000000D+00  0.000000D+00 -0.805059D-01
      5a -0.234296D+00  0.000000D+00 -0.339161D+00  0.107927D-01  0.000000D+00
      5b  0.000000D+00  0.357103D+00  0.000000D+00  0.000000D+00 -0.133377D-02
      6a -0.162672D+00  0.000000D+00  0.357103D+00 -0.133377D-02  0.000000D+00
      6b  0.000000D+00 -0.339161D+00  0.000000D+00  0.000000D+00  0.107927D-01
      7a  0.309639D+00  0.000000D+00  0.192219D+00 -0.805059D-01  0.000000D+00
      7b  0.000000D+00 -0.237065D+00  0.000000D+00  0.000000D+00  0.163139D-03
      8a -0.238241D+00  0.000000D+00 -0.337805D+00  0.104599D-01  0.000000D+00
      8b  0.000000D+00  0.356255D+00  0.000000D+00  0.000000D+00 -0.133987D-02
      9a  0.162311D-01  0.000000D+00  0.115225D-01  0.100805D+01  0.000000D+00
      9b  0.000000D+00  0.110051D-01  0.000000D+00  0.000000D+00 -0.340186D-05
     10a  0.307232D+00  0.000000D+00  0.189082D+00 -0.803970D-01  0.000000D+00
     10b  0.000000D+00 -0.233703D+00  0.000000D+00  0.000000D+00  0.161806D-03
                11            12            13            14            15 
      1a -0.551269D-01  0.000000D+00  0.113250D-05  0.739023D+00  0.000000D+00
      1b  0.000000D+00  0.893549D-04 -0.749580D+00  0.114867D-05 -0.123511D+01
      2a  0.100808D+01  0.000000D+00  0.000000D+00  0.171983D-02  0.000000D+00
      2b  0.000000D+00 -0.173013D-04 -0.996996D-03  0.000000D+00 -0.788725D-03
      3a  0.305978D-02  0.000000D+00  0.181716D-05  0.118581D+01  0.000000D+00
      3b  0.000000D+00 -0.739899D-03 -0.118993D+01  0.182347D-05 -0.747957D+00
      4a -0.545064D-01  0.000000D+00 -0.114467D-05 -0.746971D+00  0.000000D+00
      4b  0.000000D+00  0.411235D-04  0.757490D+00 -0.116079D-05  0.124150D+01
      5a -0.468319D-03  0.000000D+00  0.182711D-05  0.119230D+01  0.000000D+00
      5b  0.000000D+00  0.818448D-02 -0.118827D+01  0.182093D-05  0.751648D+00
      6a  0.818448D-02  0.000000D+00 -0.182093D-05 -0.118827D+01  0.000000D+00
      6b  0.000000D+00 -0.468319D-03  0.119230D+01 -0.182711D-05  0.735185D+00
      7a  0.411235D-04  0.000000D+00  0.116079D-05  0.757490D+00  0.000000D+00
      7b  0.000000D+00 -0.545064D-01 -0.746971D+00  0.114467D-05  0.123582D+01
      8a -0.739899D-03  0.000000D+00 -0.182347D-05 -0.118993D+01  0.000000D+00
      8b  0.000000D+00  0.305978D-02  0.118581D+01 -0.181716D-05 -0.764270D+00
      9a -0.173013D-04  0.000000D+00  0.000000D+00 -0.996996D-03  0.000000D+00
      9b  0.000000D+00  0.100808D+01  0.171983D-02  0.000000D+00 -0.133014D-02
     10a  0.893550D-04  0.000000D+00 -0.114867D-05 -0.749580D+00  0.000000D+00
     10b  0.000000D+00 -0.551269D-01  0.739023D+00 -0.113250D-05 -0.122928D+01
                16            17            18            19            20 
      1a -0.122928D+01 -0.135091D-05  0.127341D+01 -0.811122D+00 -0.518645D-05
      1b  0.000000D+00 -0.126741D+01 -0.134455D-05  0.512769D-05 -0.801933D+00
      2a -0.133014D-02  0.000000D+00 -0.767066D-03  0.176285D-02  0.000000D+00
      2b  0.000000D+00  0.492377D-03  0.000000D+00  0.000000D+00  0.114048D-02
      3a -0.764270D+00  0.000000D+00 -0.782191D+00  0.132366D+01  0.846369D-05
      3b  0.000000D+00  0.797586D+00  0.000000D+00 -0.844085D-05  0.132009D+01
      4a  0.123582D+01  0.134688D-05 -0.126961D+01  0.801742D+00  0.512647D-05
      4b  0.000000D+00  0.126353D+01  0.134042D-05 -0.506823D-05  0.792634D+00
      5a  0.735185D+00  0.000000D+00 -0.812475D+00 -0.131606D+01 -0.841508D-05
      5b  0.000000D+00  0.797219D+00  0.000000D+00  0.843847D-05 -0.131971D+01
      6a  0.751648D+00  0.000000D+00  0.797219D+00 -0.131971D+01 -0.843847D-05
      6b  0.000000D+00 -0.812475D+00  0.000000D+00  0.841508D-05 -0.131606D+01
      7a  0.124150D+01 -0.134042D-05  0.126353D+01  0.792634D+00  0.506823D-05
      7b  0.000000D+00 -0.126961D+01 -0.134688D-05 -0.512647D-05  0.801742D+00
      8a -0.747957D+00  0.000000D+00  0.797586D+00  0.132009D+01  0.844085D-05
      8b  0.000000D+00 -0.782191D+00  0.000000D+00 -0.846369D-05  0.132366D+01
      9a -0.788725D-03  0.000000D+00  0.492377D-03  0.114048D-02  0.000000D+00
      9b  0.000000D+00 -0.767067D-03  0.000000D+00  0.000000D+00  0.176285D-02
     10a -0.123511D+01  0.134455D-05 -0.126741D+01 -0.801933D+00 -0.512769D-05
     10b  0.000000D+00  0.127341D+01  0.135091D-05  0.518645D-05 -0.811122D+00
 bfr conversion (imaginary):
                 1             2             3             4             5 
      1a  0.000000D+00  0.000000D+00  0.000000D+00  0.000000D+00  0.000000D+00
      1b  0.000000D+00  0.000000D+00  0.000000D+00  0.000000D+00  0.000000D+00
      2a  0.000000D+00  0.000000D+00  0.000000D+00  0.000000D+00  0.000000D+00
      2b  0.000000D+00  0.000000D+00  0.000000D+00  0.000000D+00  0.000000D+00
      3a  0.000000D+00  0.000000D+00  0.000000D+00  0.000000D+00  0.000000D+00
      3b  0.000000D+00  0.000000D+00  0.000000D+00  0.000000D+00  0.000000D+00
      4a  0.000000D+00  0.000000D+00  0.000000D+00  0.000000D+00  0.000000D+00
      4b  0.000000D+00  0.000000D+00  0.000000D+00  0.000000D+00  0.000000D+00
      5a  0.000000D+00  0.000000D+00  0.000000D+00  0.000000D+00  0.000000D+00
      5b  0.000000D+00  0.000000D+00  0.000000D+00  0.000000D+00  0.000000D+00
      6a  0.000000D+00  0.000000D+00  0.000000D+00  0.000000D+00  0.000000D+00
      6b  0.000000D+00  0.000000D+00  0.000000D+00  0.000000D+00  0.000000D+00
      7a  0.000000D+00  0.000000D+00  0.000000D+00  0.000000D+00  0.000000D+00
      7b  0.000000D+00  0.000000D+00  0.000000D+00  0.000000D+00  0.000000D+00
      8a  0.000000D+00  0.000000D+00  0.000000D+00  0.000000D+00  0.000000D+00
      8b  0.000000D+00  0.000000D+00  0.000000D+00  0.000000D+00  0.000000D+00
      9a  0.000000D+00  0.000000D+00  0.000000D+00  0.000000D+00  0.000000D+00
      9b  0.000000D+00  0.000000D+00  0.000000D+00  0.000000D+00  0.000000D+00
     10a  0.000000D+00  0.000000D+00  0.000000D+00  0.000000D+00  0.000000D+00
     10b  0.000000D+00  0.000000D+00  0.000000D+00  0.000000D+00  0.000000D+00
                 6             7             8             9            10 
      1a  0.000000D+00  0.000000D+00  0.000000D+00  0.000000D+00  0.000000D+00
      1b  0.000000D+00  0.000000D+00  0.000000D+00  0.000000D+00  0.000000D+00
      2a  0.000000D+00  0.000000D+00  0.000000D+00  0.000000D+00  0.000000D+00
      2b  0.000000D+00  0.000000D+00  0.000000D+00  0.000000D+00  0.000000D+00
      3a  0.000000D+00  0.000000D+00  0.000000D+00  0.000000D+00  0.000000D+00
      3b  0.000000D+00  0.000000D+00  0.000000D+00  0.000000D+00  0.000000D+00
      4a  0.000000D+00  0.000000D+00  0.000000D+00  0.000000D+00  0.000000D+00
      4b  0.000000D+00  0.000000D+00  0.000000D+00  0.000000D+00  0.000000D+00
      5a  0.000000D+00  0.000000D+00  0.000000D+00  0.000000D+00  0.000000D+00
      5b  0.000000D+00  0.000000D+00  0.000000D+00  0.000000D+00  0.000000D+00
      6a  0.000000D+00  0.000000D+00  0.000000D+00  0.000000D+00  0.000000D+00
      6b  0.000000D+00  0.000000D+00  0.000000D+00  0.000000D+00  0.000000D+00
      7a  0.000000D+00  0.000000D+00  0.000000D+00  0.000000D+00  0.000000D+00
      7b  0.000000D+00  0.000000D+00  0.000000D+00  0.000000D+00  0.000000D+00
      8a  0.000000D+00  0.000000D+00  0.000000D+00  0.000000D+00  0.000000D+00
      8b  0.000000D+00  0.000000D+00  0.000000D+00  0.000000D+00  0.000000D+00
      9a  0.000000D+00  0.000000D+00  0.000000D+00  0.000000D+00  0.000000D+00
      9b  0.000000D+00  0.000000D+00  0.000000D+00  0.000000D+00  0.000000D+00
     10a  0.000000D+00  0.000000D+00  0.000000D+00  0.000000D+00  0.000000D+00
     10b  0.000000D+00  0.000000D+00  0.000000D+00  0.000000D+00  0.000000D+00
                11            12            13            14            15 
      1a  0.000000D+00  0.000000D+00  0.000000D+00  0.000000D+00  0.000000D+00
      1b  0.000000D+00  0.000000D+00  0.000000D+00  0.000000D+00  0.000000D+00
      2a  0.000000D+00  0.000000D+00  0.000000D+00  0.000000D+00  0.000000D+00
      2b  0.000000D+00  0.000000D+00  0.000000D+00  0.000000D+00  0.000000D+00
      3a  0.000000D+00  0.000000D+00  0.000000D+00  0.000000D+00  0.000000D+00
      3b  0.000000D+00  0.000000D+00  0.000000D+00  0.000000D+00  0.000000D+00
      4a  0.000000D+00  0.000000D+00  0.000000D+00  0.000000D+00  0.000000D+00
      4b  0.000000D+00  0.000000D+00  0.000000D+00  0.000000D+00  0.000000D+00
      5a  0.000000D+00  0.000000D+00  0.000000D+00  0.000000D+00  0.000000D+00
      5b  0.000000D+00  0.000000D+00  0.000000D+00  0.000000D+00  0.000000D+00
      6a  0.000000D+00  0.000000D+00  0.000000D+00  0.000000D+00  0.000000D+00
      6b  0.000000D+00  0.000000D+00  0.000000D+00  0.000000D+00  0.000000D+00
      7a  0.000000D+00  0.000000D+00  0.000000D+00  0.000000D+00  0.000000D+00
      7b  0.000000D+00  0.000000D+00  0.000000D+00  0.000000D+00  0.000000D+00
      8a  0.000000D+00  0.000000D+00  0.000000D+00  0.000000D+00  0.000000D+00
      8b  0.000000D+00  0.000000D+00  0.000000D+00  0.000000D+00  0.000000D+00
      9a  0.000000D+00  0.000000D+00  0.000000D+00  0.000000D+00  0.000000D+00
      9b  0.000000D+00  0.000000D+00  0.000000D+00  0.000000D+00  0.000000D+00
     10a  0.000000D+00  0.000000D+00  0.000000D+00  0.000000D+00  0.000000D+00
     10b  0.000000D+00  0.000000D+00  0.000000D+00  0.000000D+00  0.000000D+00
                16            17            18            19            20 
      1a  0.000000D+00  0.000000D+00  0.000000D+00  0.000000D+00  0.000000D+00
      1b  0.000000D+00  0.000000D+00  0.000000D+00  0.000000D+00  0.000000D+00
      2a  0.000000D+00  0.000000D+00  0.000000D+00  0.000000D+00  0.000000D+00
      2b  0.000000D+00  0.000000D+00  0.000000D+00  0.000000D+00  0.000000D+00
      3a  0.000000D+00  0.000000D+00  0.000000D+00  0.000000D+00  0.000000D+00
      3b  0.000000D+00  0.000000D+00  0.000000D+00  0.000000D+00  0.000000D+00
      4a  0.000000D+00  0.000000D+00  0.000000D+00  0.000000D+00  0.000000D+00
      4b  0.000000D+00  0.000000D+00  0.000000D+00  0.000000D+00  0.000000D+00
      5a  0.000000D+00  0.000000D+00  0.000000D+00  0.000000D+00  0.000000D+00
      5b  0.000000D+00  0.000000D+00  0.000000D+00  0.000000D+00  0.000000D+00
      6a  0.000000D+00  0.000000D+00  0.000000D+00  0.000000D+00  0.000000D+00
      6b  0.000000D+00  0.000000D+00  0.000000D+00  0.000000D+00  0.000000D+00
      7a  0.000000D+00  0.000000D+00  0.000000D+00  0.000000D+00  0.000000D+00
      7b  0.000000D+00  0.000000D+00  0.000000D+00  0.000000D+00  0.000000D+00
      8a  0.000000D+00  0.000000D+00  0.000000D+00  0.000000D+00  0.000000D+00
      8b  0.000000D+00  0.000000D+00  0.000000D+00  0.000000D+00  0.000000D+00
      9a  0.000000D+00  0.000000D+00  0.000000D+00  0.000000D+00  0.000000D+00
      9b  0.000000D+00  0.000000D+00  0.000000D+00  0.000000D+00  0.000000D+00
     10a  0.000000D+00  0.000000D+00  0.000000D+00  0.000000D+00  0.000000D+00
     10b  0.000000D+00  0.000000D+00  0.000000D+00  0.000000D+00  0.000000D+00
 afr conversion (alpha, real):
                 1             2             3             4             5 
      1   0.000000D+00  0.156595D+00  0.000000D+00 -0.285581D+00  0.000000D+00
      2   0.000000D+00 -0.725210D-02  0.000000D+00  0.132904D-01  0.000000D+00
      3   0.000000D+00  0.272000D+00  0.000000D+00 -0.213432D+00  0.000000D+00
      4   0.000000D+00  0.154736D+00  0.000000D+00 -0.284311D+00  0.000000D+00
      5   0.000000D+00  0.286524D+00  0.000000D+00  0.149376D+00  0.000000D+00
      6   0.000000D+00  0.270938D+00  0.000000D+00 -0.216834D+00  0.000000D+00
      7   0.000000D+00  0.196934D+00  0.000000D+00  0.311531D+00  0.000000D+00
      8   0.000000D+00  0.287119D+00  0.000000D+00  0.145167D+00  0.000000D+00
      9   0.000000D+00  0.795784D-02  0.000000D+00  0.140557D-01  0.000000D+00
     10   0.000000D+00  0.198846D+00  0.000000D+00  0.312222D+00  0.000000D+00
                 6             7             8             9            10 
      1   0.331549D+00  0.000000D+00 -0.233703D+00  0.161806D-03  0.000000D+00
      2  -0.155306D-01  0.000000D+00  0.110051D-01 -0.340186D-05  0.000000D+00
      3  -0.167364D+00  0.000000D+00  0.356255D+00 -0.133987D-02  0.000000D+00
      4   0.333411D+00  0.000000D+00 -0.237065D+00  0.163139D-03  0.000000D+00
      5  -0.234296D+00  0.000000D+00 -0.339161D+00  0.107927D-01  0.000000D+00
      6  -0.162672D+00  0.000000D+00  0.357103D+00 -0.133377D-02  0.000000D+00
      7   0.309639D+00  0.000000D+00  0.192219D+00 -0.805059D-01  0.000000D+00
      8  -0.238241D+00  0.000000D+00 -0.337805D+00  0.104599D-01  0.000000D+00
      9   0.162311D-01  0.000000D+00  0.115225D-01  0.100805D+01  0.000000D+00
     10   0.307232D+00  0.000000D+00  0.189082D+00 -0.803970D-01  0.000000D+00
                11            12            13            14            15 
      1  -0.551269D-01  0.000000D+00  0.113250D-05  0.739023D+00  0.000000D+00
      2   0.100808D+01  0.000000D+00  0.000000D+00  0.171983D-02  0.000000D+00
      3   0.305978D-02  0.000000D+00  0.181716D-05  0.118581D+01  0.000000D+00
      4  -0.545064D-01  0.000000D+00 -0.114467D-05 -0.746971D+00  0.000000D+00
      5  -0.468319D-03  0.000000D+00  0.182711D-05  0.119230D+01  0.000000D+00
      6   0.818448D-02  0.000000D+00 -0.182093D-05 -0.118827D+01  0.000000D+00
      7   0.411235D-04  0.000000D+00  0.116079D-05  0.757490D+00  0.000000D+00
      8  -0.739899D-03  0.000000D+00 -0.182347D-05 -0.118993D+01  0.000000D+00
      9  -0.173013D-04  0.000000D+00  0.000000D+00 -0.996996D-03  0.000000D+00
     10   0.893550D-04  0.000000D+00 -0.114867D-05 -0.749580D+00  0.000000D+00
                16            17            18            19            20 
      1  -0.122928D+01 -0.135091D-05  0.127341D+01 -0.811122D+00 -0.518645D-05
      2  -0.133014D-02  0.000000D+00 -0.767066D-03  0.176285D-02  0.000000D+00
      3  -0.764270D+00  0.000000D+00 -0.782191D+00  0.132366D+01  0.846369D-05
      4   0.123582D+01  0.134688D-05 -0.126961D+01  0.801742D+00  0.512647D-05
      5   0.735185D+00  0.000000D+00 -0.812475D+00 -0.131606D+01 -0.841508D-05
      6   0.751648D+00  0.000000D+00  0.797219D+00 -0.131971D+01 -0.843847D-05
      7   0.124150D+01 -0.134042D-05  0.126353D+01  0.792634D+00  0.506823D-05
      8  -0.747957D+00  0.000000D+00  0.797586D+00  0.132009D+01  0.844085D-05
      9  -0.788725D-03  0.000000D+00  0.492377D-03  0.114048D-02  0.000000D+00
     10  -0.123511D+01  0.134455D-05 -0.126741D+01 -0.801933D+00 -0.512769D-05
 afr conversion (alpha, imaginary):
                 1             2             3             4             5 
      1   0.000000D+00  0.000000D+00  0.000000D+00  0.000000D+00  0.000000D+00
      2   0.000000D+00  0.000000D+00  0.000000D+00  0.000000D+00  0.000000D+00
      3   0.000000D+00  0.000000D+00  0.000000D+00  0.000000D+00  0.000000D+00
      4   0.000000D+00  0.000000D+00  0.000000D+00  0.000000D+00  0.000000D+00
      5   0.000000D+00  0.000000D+00  0.000000D+00  0.000000D+00  0.000000D+00
      6   0.000000D+00  0.000000D+00  0.000000D+00  0.000000D+00  0.000000D+00
      7   0.000000D+00  0.000000D+00  0.000000D+00  0.000000D+00  0.000000D+00
      8   0.000000D+00  0.000000D+00  0.000000D+00  0.000000D+00  0.000000D+00
      9   0.000000D+00  0.000000D+00  0.000000D+00  0.000000D+00  0.000000D+00
     10   0.000000D+00  0.000000D+00  0.000000D+00  0.000000D+00  0.000000D+00
                 6             7             8             9            10 
      1   0.000000D+00  0.000000D+00  0.000000D+00  0.000000D+00  0.000000D+00
      2   0.000000D+00  0.000000D+00  0.000000D+00  0.000000D+00  0.000000D+00
      3   0.000000D+00  0.000000D+00  0.000000D+00  0.000000D+00  0.000000D+00
      4   0.000000D+00  0.000000D+00  0.000000D+00  0.000000D+00  0.000000D+00
      5   0.000000D+00  0.000000D+00  0.000000D+00  0.000000D+00  0.000000D+00
      6   0.000000D+00  0.000000D+00  0.000000D+00  0.000000D+00  0.000000D+00
      7   0.000000D+00  0.000000D+00  0.000000D+00  0.000000D+00  0.000000D+00
      8   0.000000D+00  0.000000D+00  0.000000D+00  0.000000D+00  0.000000D+00
      9   0.000000D+00  0.000000D+00  0.000000D+00  0.000000D+00  0.000000D+00
     10   0.000000D+00  0.000000D+00  0.000000D+00  0.000000D+00  0.000000D+00
                11            12            13            14            15 
      1   0.000000D+00  0.000000D+00  0.000000D+00  0.000000D+00  0.000000D+00
      2   0.000000D+00  0.000000D+00  0.000000D+00  0.000000D+00  0.000000D+00
      3   0.000000D+00  0.000000D+00  0.000000D+00  0.000000D+00  0.000000D+00
      4   0.000000D+00  0.000000D+00  0.000000D+00  0.000000D+00  0.000000D+00
      5   0.000000D+00  0.000000D+00  0.000000D+00  0.000000D+00  0.000000D+00
      6   0.000000D+00  0.000000D+00  0.000000D+00  0.000000D+00  0.000000D+00
      7   0.000000D+00  0.000000D+00  0.000000D+00  0.000000D+00  0.000000D+00
      8   0.000000D+00  0.000000D+00  0.000000D+00  0.000000D+00  0.000000D+00
      9   0.000000D+00  0.000000D+00  0.000000D+00  0.000000D+00  0.000000D+00
     10   0.000000D+00  0.000000D+00  0.000000D+00  0.000000D+00  0.000000D+00
                16            17            18            19            20 
      1   0.000000D+00  0.000000D+00  0.000000D+00  0.000000D+00  0.000000D+00
      2   0.000000D+00  0.000000D+00  0.000000D+00  0.000000D+00  0.000000D+00
      3   0.000000D+00  0.000000D+00  0.000000D+00  0.000000D+00  0.000000D+00
      4   0.000000D+00  0.000000D+00  0.000000D+00  0.000000D+00  0.000000D+00
      5   0.000000D+00  0.000000D+00  0.000000D+00  0.000000D+00  0.000000D+00
      6   0.000000D+00  0.000000D+00  0.000000D+00  0.000000D+00  0.000000D+00
      7   0.000000D+00  0.000000D+00  0.000000D+00  0.000000D+00  0.000000D+00
      8   0.000000D+00  0.000000D+00  0.000000D+00  0.000000D+00  0.000000D+00
      9   0.000000D+00  0.000000D+00  0.000000D+00  0.000000D+00  0.000000D+00
     10   0.000000D+00  0.000000D+00  0.000000D+00  0.000000D+00  0.000000D+00
 afr conversion (beta, real):
                 1             2             3             4             5 
      1   0.198846D+00  0.000000D+00  0.312222D+00  0.000000D+00  0.307232D+00
      2   0.795784D-02  0.000000D+00  0.140557D-01  0.000000D+00  0.162311D-01
      3   0.287119D+00  0.000000D+00  0.145167D+00  0.000000D+00 -0.238241D+00
      4   0.196934D+00  0.000000D+00  0.311531D+00  0.000000D+00  0.309639D+00
      5   0.270938D+00  0.000000D+00 -0.216834D+00  0.000000D+00 -0.162672D+00
      6   0.286524D+00  0.000000D+00  0.149376D+00  0.000000D+00 -0.234296D+00
      7   0.154736D+00  0.000000D+00 -0.284311D+00  0.000000D+00  0.333411D+00
      8   0.272000D+00  0.000000D+00 -0.213432D+00  0.000000D+00 -0.167364D+00
      9  -0.725210D-02  0.000000D+00  0.132904D-01  0.000000D+00 -0.155306D-01
     10   0.156595D+00  0.000000D+00 -0.285581D+00  0.000000D+00  0.331549D+00
                 6             7             8             9            10 
      1   0.000000D+00  0.189082D+00  0.000000D+00  0.000000D+00 -0.803970D-01
      2   0.000000D+00  0.115225D-01  0.000000D+00  0.000000D+00  0.100805D+01
      3   0.000000D+00 -0.337805D+00  0.000000D+00  0.000000D+00  0.104599D-01
      4   0.000000D+00  0.192219D+00  0.000000D+00  0.000000D+00 -0.805059D-01
      5   0.000000D+00  0.357103D+00  0.000000D+00  0.000000D+00 -0.133377D-02
      6   0.000000D+00 -0.339161D+00  0.000000D+00  0.000000D+00  0.107927D-01
      7   0.000000D+00 -0.237065D+00  0.000000D+00  0.000000D+00  0.163139D-03
      8   0.000000D+00  0.356255D+00  0.000000D+00  0.000000D+00 -0.133987D-02
      9   0.000000D+00  0.110051D-01  0.000000D+00  0.000000D+00 -0.340186D-05
     10   0.000000D+00 -0.233703D+00  0.000000D+00  0.000000D+00  0.161806D-03
                11            12            13            14            15 
      1   0.000000D+00  0.893549D-04 -0.749580D+00  0.114867D-05 -0.123511D+01
      2   0.000000D+00 -0.173013D-04 -0.996996D-03  0.000000D+00 -0.788725D-03
      3   0.000000D+00 -0.739899D-03 -0.118993D+01  0.182347D-05 -0.747957D+00
      4   0.000000D+00  0.411235D-04  0.757490D+00 -0.116079D-05  0.124150D+01
      5   0.000000D+00  0.818448D-02 -0.118827D+01  0.182093D-05  0.751648D+00
      6   0.000000D+00 -0.468319D-03  0.119230D+01 -0.182711D-05  0.735185D+00
      7   0.000000D+00 -0.545064D-01 -0.746971D+00  0.114467D-05  0.123582D+01
      8   0.000000D+00  0.305978D-02  0.118581D+01 -0.181716D-05 -0.764270D+00
      9   0.000000D+00  0.100808D+01  0.171983D-02  0.000000D+00 -0.133014D-02
     10   0.000000D+00 -0.551269D-01  0.739023D+00 -0.113250D-05 -0.122928D+01
                16            17            18            19            20 
      1   0.000000D+00 -0.126741D+01 -0.134455D-05  0.512769D-05 -0.801933D+00
      2   0.000000D+00  0.492377D-03  0.000000D+00  0.000000D+00  0.114048D-02
      3   0.000000D+00  0.797586D+00  0.000000D+00 -0.844085D-05  0.132009D+01
      4   0.000000D+00  0.126353D+01  0.134042D-05 -0.506823D-05  0.792634D+00
      5   0.000000D+00  0.797219D+00  0.000000D+00  0.843847D-05 -0.131971D+01
      6   0.000000D+00 -0.812475D+00  0.000000D+00  0.841508D-05 -0.131606D+01
      7   0.000000D+00 -0.126961D+01 -0.134688D-05 -0.512647D-05  0.801742D+00
      8   0.000000D+00 -0.782191D+00  0.000000D+00 -0.846369D-05  0.132366D+01
      9   0.000000D+00 -0.767067D-03  0.000000D+00  0.000000D+00  0.176285D-02
     10   0.000000D+00  0.127341D+01  0.135091D-05  0.518645D-05 -0.811122D+00
 afr conversion (beta, imaginary):
                 1             2             3             4             5 
      1   0.000000D+00  0.000000D+00  0.000000D+00  0.000000D+00  0.000000D+00
      2   0.000000D+00  0.000000D+00  0.000000D+00  0.000000D+00  0.000000D+00
      3   0.000000D+00  0.000000D+00  0.000000D+00  0.000000D+00  0.000000D+00
      4   0.000000D+00  0.000000D+00  0.000000D+00  0.000000D+00  0.000000D+00
      5   0.000000D+00  0.000000D+00  0.000000D+00  0.000000D+00  0.000000D+00
      6   0.000000D+00  0.000000D+00  0.000000D+00  0.000000D+00  0.000000D+00
      7   0.000000D+00  0.000000D+00  0.000000D+00  0.000000D+00  0.000000D+00
      8   0.000000D+00  0.000000D+00  0.000000D+00  0.000000D+00  0.000000D+00
      9   0.000000D+00  0.000000D+00  0.000000D+00  0.000000D+00  0.000000D+00
     10   0.000000D+00  0.000000D+00  0.000000D+00  0.000000D+00  0.000000D+00
                 6             7             8             9            10 
      1   0.000000D+00  0.000000D+00  0.000000D+00  0.000000D+00  0.000000D+00
      2   0.000000D+00  0.000000D+00  0.000000D+00  0.000000D+00  0.000000D+00
      3   0.000000D+00  0.000000D+00  0.000000D+00  0.000000D+00  0.000000D+00
      4   0.000000D+00  0.000000D+00  0.000000D+00  0.000000D+00  0.000000D+00
      5   0.000000D+00  0.000000D+00  0.000000D+00  0.000000D+00  0.000000D+00
      6   0.000000D+00  0.000000D+00  0.000000D+00  0.000000D+00  0.000000D+00
      7   0.000000D+00  0.000000D+00  0.000000D+00  0.000000D+00  0.000000D+00
      8   0.000000D+00  0.000000D+00  0.000000D+00  0.000000D+00  0.000000D+00
      9   0.000000D+00  0.000000D+00  0.000000D+00  0.000000D+00  0.000000D+00
     10   0.000000D+00  0.000000D+00  0.000000D+00  0.000000D+00  0.000000D+00
                11            12            13            14            15 
      1   0.000000D+00  0.000000D+00  0.000000D+00  0.000000D+00  0.000000D+00
      2   0.000000D+00  0.000000D+00  0.000000D+00  0.000000D+00  0.000000D+00
      3   0.000000D+00  0.000000D+00  0.000000D+00  0.000000D+00  0.000000D+00
      4   0.000000D+00  0.000000D+00  0.000000D+00  0.000000D+00  0.000000D+00
      5   0.000000D+00  0.000000D+00  0.000000D+00  0.000000D+00  0.000000D+00
      6   0.000000D+00  0.000000D+00  0.000000D+00  0.000000D+00  0.000000D+00
      7   0.000000D+00  0.000000D+00  0.000000D+00  0.000000D+00  0.000000D+00
      8   0.000000D+00  0.000000D+00  0.000000D+00  0.000000D+00  0.000000D+00
      9   0.000000D+00  0.000000D+00  0.000000D+00  0.000000D+00  0.000000D+00
     10   0.000000D+00  0.000000D+00  0.000000D+00  0.000000D+00  0.000000D+00
                16            17            18            19            20 
      1   0.000000D+00  0.000000D+00  0.000000D+00  0.000000D+00  0.000000D+00
      2   0.000000D+00  0.000000D+00  0.000000D+00  0.000000D+00  0.000000D+00
      3   0.000000D+00  0.000000D+00  0.000000D+00  0.000000D+00  0.000000D+00
      4   0.000000D+00  0.000000D+00  0.000000D+00  0.000000D+00  0.000000D+00
      5   0.000000D+00  0.000000D+00  0.000000D+00  0.000000D+00  0.000000D+00
      6   0.000000D+00  0.000000D+00  0.000000D+00  0.000000D+00  0.000000D+00
      7   0.000000D+00  0.000000D+00  0.000000D+00  0.000000D+00  0.000000D+00
      8   0.000000D+00  0.000000D+00  0.000000D+00  0.000000D+00  0.000000D+00
      9   0.000000D+00  0.000000D+00  0.000000D+00  0.000000D+00  0.000000D+00
     10   0.000000D+00  0.000000D+00  0.000000D+00  0.000000D+00  0.000000D+00
 jaja in hckghf.F, ISPECT =                     548
Spin block MO for GHF transformation
NOA =   10   NOB =   10
NVA =   10   NVB =   10
 NOAvA in Hack                     100
 jaja in tranN3.F, ISPECT =                     548
 in l802/tranN3.F, LSPECT =                      800
 NMat, NBtSiz,MDV                    8372                   16000
                133954722
 TranN3:  NGot= 134217728 NBasic=    263006 NTTT=       550 NMat=      8372.
 Defined bucket =                      51                   10000
 Defined bucket =                      52                   10000
 Defined bucket =                      53                   10000
 Defined bucket =                      55                   10000
 Defined bucket =                      57                   10000
 Defined bucket =                      58                   10000
 Defined bucket =                      60                   10000
 Defined bucket =                      72                   10000
 Defined bucket =                      73                   10000
 Defined bucket =                      74                   10000
 Defined bucket =                      75                   10000
 Defined bucket =                      76                   10000
 (IK/LS) integrals will be saved in memory.
 TrCghf made   2 passes through the AO integrals.
 jaja DoHack is true or false? F
 jaja in hckghf.F, NBasis=                      10
 jaja in hckGHF/FixOG, LC =                      800
 jaja in hckGHF/FixOG, IRwC=                      548
 bfr conversion (alpha, real):
                 1             2             3             4             5 
      1   0.000000D+00  0.156595D+00  0.000000D+00 -0.285581D+00  0.000000D+00
      2   0.000000D+00 -0.725210D-02  0.000000D+00  0.132904D-01  0.000000D+00
      3   0.000000D+00  0.272000D+00  0.000000D+00 -0.213432D+00  0.000000D+00
      4   0.000000D+00  0.154736D+00  0.000000D+00 -0.284311D+00  0.000000D+00
      5   0.000000D+00  0.286524D+00  0.000000D+00  0.149376D+00  0.000000D+00
      6   0.000000D+00  0.270938D+00  0.000000D+00 -0.216834D+00  0.000000D+00
      7   0.000000D+00  0.196934D+00  0.000000D+00  0.311531D+00  0.000000D+00
      8   0.000000D+00  0.287119D+00  0.000000D+00  0.145167D+00  0.000000D+00
      9   0.000000D+00  0.795784D-02  0.000000D+00  0.140557D-01  0.000000D+00
     10   0.000000D+00  0.198846D+00  0.000000D+00  0.312222D+00  0.000000D+00
                 6             7             8             9            10 
      1   0.331549D+00  0.000000D+00 -0.233703D+00  0.161806D-03  0.000000D+00
      2  -0.155306D-01  0.000000D+00  0.110051D-01 -0.340186D-05  0.000000D+00
      3  -0.167364D+00  0.000000D+00  0.356255D+00 -0.133987D-02  0.000000D+00
      4   0.333411D+00  0.000000D+00 -0.237065D+00  0.163139D-03  0.000000D+00
      5  -0.234296D+00  0.000000D+00 -0.339161D+00  0.107927D-01  0.000000D+00
      6  -0.162672D+00  0.000000D+00  0.357103D+00 -0.133377D-02  0.000000D+00
      7   0.309639D+00  0.000000D+00  0.192219D+00 -0.805059D-01  0.000000D+00
      8  -0.238241D+00  0.000000D+00 -0.337805D+00  0.104599D-01  0.000000D+00
      9   0.162311D-01  0.000000D+00  0.115225D-01  0.100805D+01  0.000000D+00
     10   0.307232D+00  0.000000D+00  0.189082D+00 -0.803970D-01  0.000000D+00
                11            12            13            14            15 
      1  -0.551269D-01  0.000000D+00  0.113250D-05  0.739023D+00  0.000000D+00
      2   0.100808D+01  0.000000D+00  0.000000D+00  0.171983D-02  0.000000D+00
      3   0.305978D-02  0.000000D+00  0.181716D-05  0.118581D+01  0.000000D+00
      4  -0.545064D-01  0.000000D+00 -0.114467D-05 -0.746971D+00  0.000000D+00
      5  -0.468319D-03  0.000000D+00  0.182711D-05  0.119230D+01  0.000000D+00
      6   0.818448D-02  0.000000D+00 -0.182093D-05 -0.118827D+01  0.000000D+00
      7   0.411235D-04  0.000000D+00  0.116079D-05  0.757490D+00  0.000000D+00
      8  -0.739899D-03  0.000000D+00 -0.182347D-05 -0.118993D+01  0.000000D+00
      9  -0.173013D-04  0.000000D+00  0.000000D+00 -0.996996D-03  0.000000D+00
     10   0.893550D-04  0.000000D+00 -0.114867D-05 -0.749580D+00  0.000000D+00
                16            17            18            19            20 
      1  -0.122928D+01 -0.135091D-05  0.127341D+01 -0.811122D+00 -0.518645D-05
      2  -0.133014D-02  0.000000D+00 -0.767066D-03  0.176285D-02  0.000000D+00
      3  -0.764270D+00  0.000000D+00 -0.782191D+00  0.132366D+01  0.846369D-05
      4   0.123582D+01  0.134688D-05 -0.126961D+01  0.801742D+00  0.512647D-05
      5   0.735185D+00  0.000000D+00 -0.812475D+00 -0.131606D+01 -0.841508D-05
      6   0.751648D+00  0.000000D+00  0.797219D+00 -0.131971D+01 -0.843847D-05
      7   0.124150D+01 -0.134042D-05  0.126353D+01  0.792634D+00  0.506823D-05
      8  -0.747957D+00  0.000000D+00  0.797586D+00  0.132009D+01  0.844085D-05
      9  -0.788725D-03  0.000000D+00  0.492377D-03  0.114048D-02  0.000000D+00
     10  -0.123511D+01  0.134455D-05 -0.126741D+01 -0.801933D+00 -0.512769D-05
 bfr conversion (alpha, imaginary):
                 1             2             3             4             5 
      1   0.000000D+00  0.000000D+00  0.000000D+00  0.000000D+00  0.000000D+00
      2   0.000000D+00  0.000000D+00  0.000000D+00  0.000000D+00  0.000000D+00
      3   0.000000D+00  0.000000D+00  0.000000D+00  0.000000D+00  0.000000D+00
      4   0.000000D+00  0.000000D+00  0.000000D+00  0.000000D+00  0.000000D+00
      5   0.000000D+00  0.000000D+00  0.000000D+00  0.000000D+00  0.000000D+00
      6   0.000000D+00  0.000000D+00  0.000000D+00  0.000000D+00  0.000000D+00
      7   0.000000D+00  0.000000D+00  0.000000D+00  0.000000D+00  0.000000D+00
      8   0.000000D+00  0.000000D+00  0.000000D+00  0.000000D+00  0.000000D+00
      9   0.000000D+00  0.000000D+00  0.000000D+00  0.000000D+00  0.000000D+00
     10   0.000000D+00  0.000000D+00  0.000000D+00  0.000000D+00  0.000000D+00
                 6             7             8             9            10 
      1   0.000000D+00  0.000000D+00  0.000000D+00  0.000000D+00  0.000000D+00
      2   0.000000D+00  0.000000D+00  0.000000D+00  0.000000D+00  0.000000D+00
      3   0.000000D+00  0.000000D+00  0.000000D+00  0.000000D+00  0.000000D+00
      4   0.000000D+00  0.000000D+00  0.000000D+00  0.000000D+00  0.000000D+00
      5   0.000000D+00  0.000000D+00  0.000000D+00  0.000000D+00  0.000000D+00
      6   0.000000D+00  0.000000D+00  0.000000D+00  0.000000D+00  0.000000D+00
      7   0.000000D+00  0.000000D+00  0.000000D+00  0.000000D+00  0.000000D+00
      8   0.000000D+00  0.000000D+00  0.000000D+00  0.000000D+00  0.000000D+00
      9   0.000000D+00  0.000000D+00  0.000000D+00  0.000000D+00  0.000000D+00
     10   0.000000D+00  0.000000D+00  0.000000D+00  0.000000D+00  0.000000D+00
                11            12            13            14            15 
      1   0.000000D+00  0.000000D+00  0.000000D+00  0.000000D+00  0.000000D+00
      2   0.000000D+00  0.000000D+00  0.000000D+00  0.000000D+00  0.000000D+00
      3   0.000000D+00  0.000000D+00  0.000000D+00  0.000000D+00  0.000000D+00
      4   0.000000D+00  0.000000D+00  0.000000D+00  0.000000D+00  0.000000D+00
      5   0.000000D+00  0.000000D+00  0.000000D+00  0.000000D+00  0.000000D+00
      6   0.000000D+00  0.000000D+00  0.000000D+00  0.000000D+00  0.000000D+00
      7   0.000000D+00  0.000000D+00  0.000000D+00  0.000000D+00  0.000000D+00
      8   0.000000D+00  0.000000D+00  0.000000D+00  0.000000D+00  0.000000D+00
      9   0.000000D+00  0.000000D+00  0.000000D+00  0.000000D+00  0.000000D+00
     10   0.000000D+00  0.000000D+00  0.000000D+00  0.000000D+00  0.000000D+00
                16            17            18            19            20 
      1   0.000000D+00  0.000000D+00  0.000000D+00  0.000000D+00  0.000000D+00
      2   0.000000D+00  0.000000D+00  0.000000D+00  0.000000D+00  0.000000D+00
      3   0.000000D+00  0.000000D+00  0.000000D+00  0.000000D+00  0.000000D+00
      4   0.000000D+00  0.000000D+00  0.000000D+00  0.000000D+00  0.000000D+00
      5   0.000000D+00  0.000000D+00  0.000000D+00  0.000000D+00  0.000000D+00
      6   0.000000D+00  0.000000D+00  0.000000D+00  0.000000D+00  0.000000D+00
      7   0.000000D+00  0.000000D+00  0.000000D+00  0.000000D+00  0.000000D+00
      8   0.000000D+00  0.000000D+00  0.000000D+00  0.000000D+00  0.000000D+00
      9   0.000000D+00  0.000000D+00  0.000000D+00  0.000000D+00  0.000000D+00
     10   0.000000D+00  0.000000D+00  0.000000D+00  0.000000D+00  0.000000D+00
 bfr conversion (beta, real):
                 1             2             3             4             5 
      1   0.198846D+00  0.000000D+00  0.312222D+00  0.000000D+00  0.307232D+00
      2   0.795784D-02  0.000000D+00  0.140557D-01  0.000000D+00  0.162311D-01
      3   0.287119D+00  0.000000D+00  0.145167D+00  0.000000D+00 -0.238241D+00
      4   0.196934D+00  0.000000D+00  0.311531D+00  0.000000D+00  0.309639D+00
      5   0.270938D+00  0.000000D+00 -0.216834D+00  0.000000D+00 -0.162672D+00
      6   0.286524D+00  0.000000D+00  0.149376D+00  0.000000D+00 -0.234296D+00
      7   0.154736D+00  0.000000D+00 -0.284311D+00  0.000000D+00  0.333411D+00
      8   0.272000D+00  0.000000D+00 -0.213432D+00  0.000000D+00 -0.167364D+00
      9  -0.725210D-02  0.000000D+00  0.132904D-01  0.000000D+00 -0.155306D-01
     10   0.156595D+00  0.000000D+00 -0.285581D+00  0.000000D+00  0.331549D+00
                 6             7             8             9            10 
      1   0.000000D+00  0.189082D+00  0.000000D+00  0.000000D+00 -0.803970D-01
      2   0.000000D+00  0.115225D-01  0.000000D+00  0.000000D+00  0.100805D+01
      3   0.000000D+00 -0.337805D+00  0.000000D+00  0.000000D+00  0.104599D-01
      4   0.000000D+00  0.192219D+00  0.000000D+00  0.000000D+00 -0.805059D-01
      5   0.000000D+00  0.357103D+00  0.000000D+00  0.000000D+00 -0.133377D-02
      6   0.000000D+00 -0.339161D+00  0.000000D+00  0.000000D+00  0.107927D-01
      7   0.000000D+00 -0.237065D+00  0.000000D+00  0.000000D+00  0.163139D-03
      8   0.000000D+00  0.356255D+00  0.000000D+00  0.000000D+00 -0.133987D-02
      9   0.000000D+00  0.110051D-01  0.000000D+00  0.000000D+00 -0.340186D-05
     10   0.000000D+00 -0.233703D+00  0.000000D+00  0.000000D+00  0.161806D-03
                11            12            13            14            15 
      1   0.000000D+00  0.893549D-04 -0.749580D+00  0.114867D-05 -0.123511D+01
      2   0.000000D+00 -0.173013D-04 -0.996996D-03  0.000000D+00 -0.788725D-03
      3   0.000000D+00 -0.739899D-03 -0.118993D+01  0.182347D-05 -0.747957D+00
      4   0.000000D+00  0.411235D-04  0.757490D+00 -0.116079D-05  0.124150D+01
      5   0.000000D+00  0.818448D-02 -0.118827D+01  0.182093D-05  0.751648D+00
      6   0.000000D+00 -0.468319D-03  0.119230D+01 -0.182711D-05  0.735185D+00
      7   0.000000D+00 -0.545064D-01 -0.746971D+00  0.114467D-05  0.123582D+01
      8   0.000000D+00  0.305978D-02  0.118581D+01 -0.181716D-05 -0.764270D+00
      9   0.000000D+00  0.100808D+01  0.171983D-02  0.000000D+00 -0.133014D-02
     10   0.000000D+00 -0.551269D-01  0.739023D+00 -0.113250D-05 -0.122928D+01
                16            17            18            19            20 
      1   0.000000D+00 -0.126741D+01 -0.134455D-05  0.512769D-05 -0.801933D+00
      2   0.000000D+00  0.492377D-03  0.000000D+00  0.000000D+00  0.114048D-02
      3   0.000000D+00  0.797586D+00  0.000000D+00 -0.844085D-05  0.132009D+01
      4   0.000000D+00  0.126353D+01  0.134042D-05 -0.506823D-05  0.792634D+00
      5   0.000000D+00  0.797219D+00  0.000000D+00  0.843847D-05 -0.131971D+01
      6   0.000000D+00 -0.812475D+00  0.000000D+00  0.841508D-05 -0.131606D+01
      7   0.000000D+00 -0.126961D+01 -0.134688D-05 -0.512647D-05  0.801742D+00
      8   0.000000D+00 -0.782191D+00  0.000000D+00 -0.846369D-05  0.132366D+01
      9   0.000000D+00 -0.767067D-03  0.000000D+00  0.000000D+00  0.176285D-02
     10   0.000000D+00  0.127341D+01  0.135091D-05  0.518645D-05 -0.811122D+00
 bfr conversion (beta, imaginary):
                 1             2             3             4             5 
      1   0.000000D+00  0.000000D+00  0.000000D+00  0.000000D+00  0.000000D+00
      2   0.000000D+00  0.000000D+00  0.000000D+00  0.000000D+00  0.000000D+00
      3   0.000000D+00  0.000000D+00  0.000000D+00  0.000000D+00  0.000000D+00
      4   0.000000D+00  0.000000D+00  0.000000D+00  0.000000D+00  0.000000D+00
      5   0.000000D+00  0.000000D+00  0.000000D+00  0.000000D+00  0.000000D+00
      6   0.000000D+00  0.000000D+00  0.000000D+00  0.000000D+00  0.000000D+00
      7   0.000000D+00  0.000000D+00  0.000000D+00  0.000000D+00  0.000000D+00
      8   0.000000D+00  0.000000D+00  0.000000D+00  0.000000D+00  0.000000D+00
      9   0.000000D+00  0.000000D+00  0.000000D+00  0.000000D+00  0.000000D+00
     10   0.000000D+00  0.000000D+00  0.000000D+00  0.000000D+00  0.000000D+00
                 6             7             8             9            10 
      1   0.000000D+00  0.000000D+00  0.000000D+00  0.000000D+00  0.000000D+00
      2   0.000000D+00  0.000000D+00  0.000000D+00  0.000000D+00  0.000000D+00
      3   0.000000D+00  0.000000D+00  0.000000D+00  0.000000D+00  0.000000D+00
      4   0.000000D+00  0.000000D+00  0.000000D+00  0.000000D+00  0.000000D+00
      5   0.000000D+00  0.000000D+00  0.000000D+00  0.000000D+00  0.000000D+00
      6   0.000000D+00  0.000000D+00  0.000000D+00  0.000000D+00  0.000000D+00
      7   0.000000D+00  0.000000D+00  0.000000D+00  0.000000D+00  0.000000D+00
      8   0.000000D+00  0.000000D+00  0.000000D+00  0.000000D+00  0.000000D+00
      9   0.000000D+00  0.000000D+00  0.000000D+00  0.000000D+00  0.000000D+00
     10   0.000000D+00  0.000000D+00  0.000000D+00  0.000000D+00  0.000000D+00
                11            12            13            14            15 
      1   0.000000D+00  0.000000D+00  0.000000D+00  0.000000D+00  0.000000D+00
      2   0.000000D+00  0.000000D+00  0.000000D+00  0.000000D+00  0.000000D+00
      3   0.000000D+00  0.000000D+00  0.000000D+00  0.000000D+00  0.000000D+00
[...]
      6b 0.605032D-04  0.377941D-01 -0.127188D-02  0.118502D-01 -0.373952D-05
      7a-0.165665D+00  0.000000D+00  0.771826D-02 -0.701569D-05 -0.868297D-01
      7b-0.100926D-03 -0.168082D+00  0.145843D-02 -0.762291D-02 -0.423771D-05
      8a-0.413724D-01 -0.223536D-05  0.189732D-02  0.712177D-04 -0.114880D+00
      8b-0.484242D-04 -0.967614D-01  0.919174D-03 -0.526088D-02  0.616336D-05
      9a-0.758723D-02 -0.190100D-05  0.357766D-03  0.243103D-05 -0.455980D-02
      9b 0.401868D-03  0.785150D-02 -0.872141D-04  0.361072D-03  0.223903D-03
     10a-0.165729D+00  0.000000D+00  0.772107D-02 -0.769119D-05 -0.877381D-01
     10b-0.100844D-03 -0.168583D+00  0.146221D-02 -0.764003D-02 -0.420508D-05
                3b            4a            4b            5a            5b
      3b 0.485655D+00
      4a 0.727282D-04  0.567568D+00
      4b 0.283345D-01 -0.214988D-03  0.604583D+00
      5a 0.000000D+00 -0.420086D-01 -0.239427D-05  0.491828D+00
      5b-0.117355D+00 -0.476157D-04 -0.973613D-01 -0.234339D-05  0.534563D+00
      6a-0.101594D-04  0.505723D-01  0.249569D-04 -0.124229D+00  0.665739D-05
      6b 0.486784D+00  0.602385D-04  0.339013D-01  0.000000D+00 -0.122462D+00
      7a-0.250135D-05 -0.165241D+00  0.137587D-05  0.309346D-01  0.415167D-05
      7b-0.485993D-01 -0.101147D-03 -0.167963D+00  0.149363D-04  0.560857D-01
      8a 0.000000D+00 -0.403955D-01 -0.245888D-05  0.490623D+00 -0.230110D-05
      8b-0.113030D+00 -0.485184D-04 -0.958842D-01 -0.190321D-05  0.533205D+00
      9a 0.165645D-04 -0.757390D-02 -0.166096D-05  0.966219D-02 -0.157499D-03
      9b 0.228593D-02  0.401015D-03  0.784582D-02 -0.290332D-03 -0.268541D-02
     10a-0.250318D-05 -0.165296D+00  0.136855D-05  0.348640D-01  0.414999D-05
     10b-0.495464D-01 -0.101065D-03 -0.168457D+00  0.149907D-04  0.603188D-01
                6a            6b            7a            7b            8a
      6a 0.537635D+00
      6b-0.500225D-05  0.488000D+00
      7a-0.882620D-01  0.152361D-05  0.597652D+00
      7b-0.405267D-05 -0.502773D-01 -0.375182D-04  0.572038D+00
      8a-0.119170D+00  0.100169D-05  0.254826D-01  0.136606D-04  0.489502D+00
      8b 0.647508D-05 -0.118117D+00  0.369193D-05  0.511104D-01 -0.187118D-05
      9a-0.459665D-02  0.153693D-04 -0.545806D-01  0.146584D-02  0.906471D-02
      9b 0.226596D-03  0.236491D-02  0.693931D-03 -0.267256D-01 -0.268187D-03
     10a-0.892028D-01  0.151388D-05  0.596869D+00 -0.374608D-04  0.294111D-01
     10b-0.401690D-05 -0.512628D-01 -0.378120D-04  0.571484D+00  0.137175D-04
                8b            9a            9b           10a           10b
      8b 0.531922D+00
      9a-0.143188D-03  0.103943D+01
      9b-0.245351D-02 -0.269477D-01  0.194459D-02
     10a 0.369260D-05 -0.545296D-01  0.693541D-03  0.596119D+00
     10b 0.553407D-01  0.146520D-02 -0.267003D-01 -0.377536D-04  0.570964D+00
 jaja lower-tri density matrix (imaginary):
                1a            1b            2a            2b            3a
      1a 0.000000D+00
      1b 0.000000D+00  0.000000D+00
      2a 0.000000D+00  0.000000D+00  0.000000D+00
      2b 0.000000D+00  0.000000D+00  0.000000D+00  0.000000D+00
      3a 0.000000D+00  0.000000D+00  0.000000D+00  0.000000D+00  0.000000D+00
      3b 0.000000D+00  0.000000D+00  0.000000D+00  0.000000D+00  0.000000D+00
      4a 0.000000D+00  0.000000D+00  0.000000D+00  0.000000D+00  0.000000D+00
      4b 0.000000D+00  0.000000D+00  0.000000D+00  0.000000D+00  0.000000D+00
      5a 0.000000D+00  0.000000D+00  0.000000D+00  0.000000D+00  0.000000D+00
      5b 0.000000D+00  0.000000D+00  0.000000D+00  0.000000D+00  0.000000D+00
      6a 0.000000D+00  0.000000D+00  0.000000D+00  0.000000D+00  0.000000D+00
      6b 0.000000D+00  0.000000D+00  0.000000D+00  0.000000D+00  0.000000D+00
      7a 0.000000D+00  0.000000D+00  0.000000D+00  0.000000D+00  0.000000D+00
      7b 0.000000D+00  0.000000D+00  0.000000D+00  0.000000D+00  0.000000D+00
      8a 0.000000D+00  0.000000D+00  0.000000D+00  0.000000D+00  0.000000D+00
      8b 0.000000D+00  0.000000D+00  0.000000D+00  0.000000D+00  0.000000D+00
      9a 0.000000D+00  0.000000D+00  0.000000D+00  0.000000D+00  0.000000D+00
      9b 0.000000D+00  0.000000D+00  0.000000D+00  0.000000D+00  0.000000D+00
     10a 0.000000D+00  0.000000D+00  0.000000D+00  0.000000D+00  0.000000D+00
     10b 0.000000D+00  0.000000D+00  0.000000D+00  0.000000D+00  0.000000D+00
                3b            4a            4b            5a            5b
      3b 0.000000D+00
      4a 0.000000D+00  0.000000D+00
      4b 0.000000D+00  0.000000D+00  0.000000D+00
      5a 0.000000D+00  0.000000D+00  0.000000D+00  0.000000D+00
      5b 0.000000D+00  0.000000D+00  0.000000D+00  0.000000D+00  0.000000D+00
      6a 0.000000D+00  0.000000D+00  0.000000D+00  0.000000D+00  0.000000D+00
      6b 0.000000D+00  0.000000D+00  0.000000D+00  0.000000D+00  0.000000D+00
      7a 0.000000D+00  0.000000D+00  0.000000D+00  0.000000D+00  0.000000D+00
      7b 0.000000D+00  0.000000D+00  0.000000D+00  0.000000D+00  0.000000D+00
      8a 0.000000D+00  0.000000D+00  0.000000D+00  0.000000D+00  0.000000D+00
      8b 0.000000D+00  0.000000D+00  0.000000D+00  0.000000D+00  0.000000D+00
      9a 0.000000D+00  0.000000D+00  0.000000D+00  0.000000D+00  0.000000D+00
      9b 0.000000D+00  0.000000D+00  0.000000D+00  0.000000D+00  0.000000D+00
     10a 0.000000D+00  0.000000D+00  0.000000D+00  0.000000D+00  0.000000D+00
     10b 0.000000D+00  0.000000D+00  0.000000D+00  0.000000D+00  0.000000D+00
                6a            6b            7a            7b            8a
      6a 0.000000D+00
      6b 0.000000D+00  0.000000D+00
      7a 0.000000D+00  0.000000D+00  0.000000D+00
      7b 0.000000D+00  0.000000D+00  0.000000D+00  0.000000D+00
      8a 0.000000D+00  0.000000D+00  0.000000D+00  0.000000D+00  0.000000D+00
      8b 0.000000D+00  0.000000D+00  0.000000D+00  0.000000D+00  0.000000D+00
      9a 0.000000D+00  0.000000D+00  0.000000D+00  0.000000D+00  0.000000D+00
      9b 0.000000D+00  0.000000D+00  0.000000D+00  0.000000D+00  0.000000D+00
     10a 0.000000D+00  0.000000D+00  0.000000D+00  0.000000D+00  0.000000D+00
     10b 0.000000D+00  0.000000D+00  0.000000D+00  0.000000D+00  0.000000D+00
                8b            9a            9b           10a           10b
      8b 0.000000D+00
      9a 0.000000D+00  0.000000D+00
      9b 0.000000D+00  0.000000D+00  0.000000D+00
     10a 0.000000D+00  0.000000D+00  0.000000D+00  0.000000D+00
     10b 0.000000D+00  0.000000D+00  0.000000D+00  0.000000D+00  0.000000D+00
 jaja non-ortho density matrix               [Gau-style] (real):
                 1             2             3             4             5 
      1a  0.566419D+00 -0.206568D-03 -0.270402D-01  0.627368D-02  0.499646D-01
      1b -0.206568D-03  0.603080D+00  0.387350D-02 -0.692669D-01  0.182962D-04
      2a -0.270402D-01  0.387350D-02  0.120933D-01 -0.115382D+00 -0.214776D-02
      2b  0.627368D-02 -0.692669D-01 -0.115382D+00  0.122741D+01 -0.613061D-03
      3a  0.499646D-01  0.182962D-04 -0.214776D-02 -0.613061D-03  0.535049D+00
      3b  0.729267D-04  0.322265D-01 -0.118549D-02  0.111850D-01 -0.906695D-05
      4a  0.566976D+00 -0.205723D-03 -0.270675D-01  0.627642D-02  0.456994D-01
      4b -0.215797D-03  0.603815D+00  0.387741D-02 -0.693392D-01  0.211758D-04
      5a -0.430237D-01 -0.216349D-05  0.197380D-02  0.653441D-04 -0.119919D+00
      5b -0.475234D-04 -0.982712D-01  0.929205D-03 -0.529853D-02  0.632545D-05
      6a  0.548403D-01  0.221394D-04 -0.236950D-02 -0.674271D-03  0.536305D+00
      6b  0.605032D-04  0.377941D-01 -0.127188D-02  0.118502D-01 -0.373952D-05
      7a -0.165665D+00  0.000000D+00  0.771826D-02 -0.701569D-05 -0.868297D-01
      7b -0.100926D-03 -0.168082D+00  0.145843D-02 -0.762291D-02 -0.423771D-05
      8a -0.413724D-01 -0.223536D-05  0.189732D-02  0.712177D-04 -0.114880D+00
      8b -0.484242D-04 -0.967614D-01  0.919174D-03 -0.526088D-02  0.616336D-05
      9a -0.758723D-02 -0.190100D-05  0.357766D-03  0.243103D-05 -0.455980D-02
      9b  0.401868D-03  0.785150D-02 -0.872141D-04  0.361072D-03  0.223903D-03
     10a -0.165729D+00  0.000000D+00  0.772107D-02 -0.769119D-05 -0.877381D-01
     10b -0.100844D-03 -0.168583D+00  0.146221D-02 -0.764003D-02 -0.420508D-05
                 6             7             8             9            10 
      1a  0.729267D-04  0.566976D+00 -0.215797D-03 -0.430237D-01 -0.475234D-04
      1b  0.322265D-01 -0.205723D-03  0.603815D+00 -0.216349D-05 -0.982712D-01
      2a -0.118549D-02 -0.270675D-01  0.387741D-02  0.197380D-02  0.929205D-03
      2b  0.111850D-01  0.627642D-02 -0.693392D-01  0.653441D-04 -0.529853D-02
      3a -0.906695D-05  0.456994D-01  0.211758D-04 -0.119919D+00  0.632545D-05
      3b  0.485655D+00  0.727282D-04  0.283345D-01  0.000000D+00 -0.117355D+00
      4a  0.727282D-04  0.567568D+00 -0.214988D-03 -0.420086D-01 -0.476157D-04
      4b  0.283345D-01 -0.214988D-03  0.604583D+00 -0.239427D-05 -0.973613D-01
      5a  0.000000D+00 -0.420086D-01 -0.239427D-05  0.491828D+00 -0.234339D-05
      5b -0.117355D+00 -0.476157D-04 -0.973613D-01 -0.234339D-05  0.534563D+00
      6a -0.101594D-04  0.505723D-01  0.249569D-04 -0.124229D+00  0.665739D-05
      6b  0.486784D+00  0.602385D-04  0.339013D-01  0.000000D+00 -0.122462D+00
      7a -0.250135D-05 -0.165241D+00  0.137587D-05  0.309346D-01  0.415167D-05
      7b -0.485993D-01 -0.101147D-03 -0.167963D+00  0.149363D-04  0.560857D-01
      8a  0.000000D+00 -0.403955D-01 -0.245888D-05  0.490623D+00 -0.230110D-05
      8b -0.113030D+00 -0.485184D-04 -0.958842D-01 -0.190321D-05  0.533205D+00
      9a  0.165645D-04 -0.757390D-02 -0.166096D-05  0.966219D-02 -0.157499D-03
      9b  0.228593D-02  0.401015D-03  0.784582D-02 -0.290332D-03 -0.268541D-02
     10a -0.250318D-05 -0.165296D+00  0.136855D-05  0.348640D-01  0.414999D-05
     10b -0.495464D-01 -0.101065D-03 -0.168457D+00  0.149907D-04  0.603188D-01
                11            12            13            14            15 
      1a  0.548403D-01  0.605032D-04 -0.165665D+00 -0.100926D-03 -0.413724D-01
      1b  0.221394D-04  0.377941D-01  0.000000D+00 -0.168082D+00 -0.223536D-05
      2a -0.236950D-02 -0.127188D-02  0.771826D-02  0.145843D-02  0.189732D-02
      2b -0.674271D-03  0.118502D-01 -0.701569D-05 -0.762291D-02  0.712177D-04
      3a  0.536305D+00 -0.373952D-05 -0.868297D-01 -0.423771D-05 -0.114880D+00
      3b -0.101594D-04  0.486784D+00 -0.250135D-05 -0.485993D-01  0.000000D+00
      4a  0.505723D-01  0.602385D-04 -0.165241D+00 -0.101147D-03 -0.403955D-01
      4b  0.249569D-04  0.339013D-01  0.137587D-05 -0.167963D+00 -0.245888D-05
      5a -0.124229D+00  0.000000D+00  0.309346D-01  0.149363D-04  0.490623D+00
      5b  0.665739D-05 -0.122462D+00  0.415167D-05  0.560857D-01 -0.230110D-05
      6a  0.537635D+00 -0.500225D-05 -0.882620D-01 -0.405267D-05 -0.119170D+00
      6b -0.500225D-05  0.488000D+00  0.152361D-05 -0.502773D-01  0.100169D-05
      7a -0.882620D-01  0.152361D-05  0.597652D+00 -0.375182D-04  0.254826D-01
      7b -0.405267D-05 -0.502773D-01 -0.375182D-04  0.572038D+00  0.136606D-04
      8a -0.119170D+00  0.100169D-05  0.254826D-01  0.136606D-04  0.489502D+00
      8b  0.647508D-05 -0.118117D+00  0.369193D-05  0.511104D-01 -0.187118D-05
      9a -0.459665D-02  0.153693D-04 -0.545806D-01  0.146584D-02  0.906471D-02
      9b  0.226596D-03  0.236491D-02  0.693931D-03 -0.267256D-01 -0.268187D-03
     10a -0.892028D-01  0.151388D-05  0.596869D+00 -0.374608D-04  0.294111D-01
     10b -0.401690D-05 -0.512628D-01 -0.378120D-04  0.571484D+00  0.137175D-04
                16            17            18            19            20 
      1a -0.484242D-04 -0.758723D-02  0.401868D-03 -0.165729D+00 -0.100844D-03
      1b -0.967614D-01 -0.190100D-05  0.785150D-02  0.000000D+00 -0.168583D+00
      2a  0.919174D-03  0.357766D-03 -0.872141D-04  0.772107D-02  0.146221D-02
      2b -0.526088D-02  0.243103D-05  0.361072D-03 -0.769119D-05 -0.764003D-02
      3a  0.616336D-05 -0.455980D-02  0.223903D-03 -0.877381D-01 -0.420508D-05
      3b -0.113030D+00  0.165645D-04  0.228593D-02 -0.250318D-05 -0.495464D-01
      4a -0.485184D-04 -0.757390D-02  0.401015D-03 -0.165296D+00 -0.101065D-03
      4b -0.958842D-01 -0.166096D-05  0.784582D-02  0.136855D-05 -0.168457D+00
      5a -0.190321D-05  0.966219D-02 -0.290332D-03  0.348640D-01  0.149907D-04
      5b  0.533205D+00 -0.157499D-03 -0.268541D-02  0.414999D-05  0.603188D-01
      6a  0.647508D-05 -0.459665D-02  0.226596D-03 -0.892028D-01 -0.401690D-05
      6b -0.118117D+00  0.153693D-04  0.236491D-02  0.151388D-05 -0.512628D-01
      7a  0.369193D-05 -0.545806D-01  0.693931D-03  0.596869D+00 -0.378120D-04
      7b  0.511104D-01  0.146584D-02 -0.267256D-01 -0.374608D-04  0.571484D+00
      8a -0.187118D-05  0.906471D-02 -0.268187D-03  0.294111D-01  0.137175D-04
      8b  0.531922D+00 -0.143188D-03 -0.245351D-02  0.369260D-05  0.553407D-01
      9a -0.143188D-03  0.103943D+01 -0.269477D-01 -0.545296D-01  0.146520D-02
      9b -0.245351D-02 -0.269477D-01  0.194459D-02  0.693541D-03 -0.267003D-01
     10a  0.369260D-05 -0.545296D-01  0.693541D-03  0.596119D+00 -0.377536D-04
     10b  0.553407D-01  0.146520D-02 -0.267003D-01 -0.377536D-04  0.570964D+00
 jaja non-ortho density matrix               [Gau-style] (imaginary):
                 1             2             3             4             5 
      1a  0.000000D+00  0.000000D+00  0.000000D+00  0.000000D+00  0.000000D+00
      1b  0.000000D+00  0.000000D+00  0.000000D+00  0.000000D+00  0.000000D+00
      2a  0.000000D+00  0.000000D+00  0.000000D+00  0.000000D+00  0.000000D+00
      2b  0.000000D+00  0.000000D+00  0.000000D+00  0.000000D+00  0.000000D+00
      3a  0.000000D+00  0.000000D+00  0.000000D+00  0.000000D+00  0.000000D+00
      3b  0.000000D+00  0.000000D+00  0.000000D+00  0.000000D+00  0.000000D+00
      4a  0.000000D+00  0.000000D+00  0.000000D+00  0.000000D+00  0.000000D+00
      4b  0.000000D+00  0.000000D+00  0.000000D+00  0.000000D+00  0.000000D+00
      5a  0.000000D+00  0.000000D+00  0.000000D+00  0.000000D+00  0.000000D+00
      5b  0.000000D+00  0.000000D+00  0.000000D+00  0.000000D+00  0.000000D+00
      6a  0.000000D+00  0.000000D+00  0.000000D+00  0.000000D+00  0.000000D+00
      6b  0.000000D+00  0.000000D+00  0.000000D+00  0.000000D+00  0.000000D+00
      7a  0.000000D+00  0.000000D+00  0.000000D+00  0.000000D+00  0.000000D+00
      7b  0.000000D+00  0.000000D+00  0.000000D+00  0.000000D+00  0.000000D+00
      8a  0.000000D+00  0.000000D+00  0.000000D+00  0.000000D+00  0.000000D+00
      8b  0.000000D+00  0.000000D+00  0.000000D+00  0.000000D+00  0.000000D+00
      9a  0.000000D+00  0.000000D+00  0.000000D+00  0.000000D+00  0.000000D+00
      9b  0.000000D+00  0.000000D+00  0.000000D+00  0.000000D+00  0.000000D+00
     10a  0.000000D+00  0.000000D+00  0.000000D+00  0.000000D+00  0.000000D+00
     10b  0.000000D+00  0.000000D+00  0.000000D+00  0.000000D+00  0.000000D+00
                 6             7             8             9            10 
      1a  0.000000D+00  0.000000D+00  0.000000D+00  0.000000D+00  0.000000D+00
      1b  0.000000D+00  0.000000D+00  0.000000D+00  0.000000D+00  0.000000D+00
      2a  0.000000D+00  0.000000D+00  0.000000D+00  0.000000D+00  0.000000D+00
      2b  0.000000D+00  0.000000D+00  0.000000D+00  0.000000D+00  0.000000D+00
      3a  0.000000D+00  0.000000D+00  0.000000D+00  0.000000D+00  0.000000D+00
      3b  0.000000D+00  0.000000D+00  0.000000D+00  0.000000D+00  0.000000D+00
      4a  0.000000D+00  0.000000D+00  0.000000D+00  0.000000D+00  0.000000D+00
      4b  0.000000D+00  0.000000D+00  0.000000D+00  0.000000D+00  0.000000D+00
      5a  0.000000D+00  0.000000D+00  0.000000D+00  0.000000D+00  0.000000D+00
      5b  0.000000D+00  0.000000D+00  0.000000D+00  0.000000D+00  0.000000D+00
      6a  0.000000D+00  0.000000D+00  0.000000D+00  0.000000D+00  0.000000D+00
      6b  0.000000D+00  0.000000D+00  0.000000D+00  0.000000D+00  0.000000D+00
      7a  0.000000D+00  0.000000D+00  0.000000D+00  0.000000D+00  0.000000D+00
      7b  0.000000D+00  0.000000D+00  0.000000D+00  0.000000D+00  0.000000D+00
      8a  0.000000D+00  0.000000D+00  0.000000D+00  0.000000D+00  0.000000D+00
      8b  0.000000D+00  0.000000D+00  0.000000D+00  0.000000D+00  0.000000D+00
      9a  0.000000D+00  0.000000D+00  0.000000D+00  0.000000D+00  0.000000D+00
      9b  0.000000D+00  0.000000D+00  0.000000D+00  0.000000D+00  0.000000D+00
     10a  0.000000D+00  0.000000D+00  0.000000D+00  0.000000D+00  0.000000D+00
     10b  0.000000D+00  0.000000D+00  0.000000D+00  0.000000D+00  0.000000D+00
                11            12            13            14            15 
      1a  0.000000D+00  0.000000D+00  0.000000D+00  0.000000D+00  0.000000D+00
      1b  0.000000D+00  0.000000D+00  0.000000D+00  0.000000D+00  0.000000D+00
      2a  0.000000D+00  0.000000D+00  0.000000D+00  0.000000D+00  0.000000D+00
      2b  0.000000D+00  0.000000D+00  0.000000D+00  0.000000D+00  0.000000D+00
      3a  0.000000D+00  0.000000D+00  0.000000D+00  0.000000D+00  0.000000D+00
      3b  0.000000D+00  0.000000D+00  0.000000D+00  0.000000D+00  0.000000D+00
      4a  0.000000D+00  0.000000D+00  0.000000D+00  0.000000D+00  0.000000D+00
      4b  0.000000D+00  0.000000D+00  0.000000D+00  0.000000D+00  0.000000D+00
      5a  0.000000D+00  0.000000D+00  0.000000D+00  0.000000D+00  0.000000D+00
      5b  0.000000D+00  0.000000D+00  0.000000D+00  0.000000D+00  0.000000D+00
      6a  0.000000D+00  0.000000D+00  0.000000D+00  0.000000D+00  0.000000D+00
      6b  0.000000D+00  0.000000D+00  0.000000D+00  0.000000D+00  0.000000D+00
      7a  0.000000D+00  0.000000D+00  0.000000D+00  0.000000D+00  0.000000D+00
      7b  0.000000D+00  0.000000D+00  0.000000D+00  0.000000D+00  0.000000D+00
      8a  0.000000D+00  0.000000D+00  0.000000D+00  0.000000D+00  0.000000D+00
      8b  0.000000D+00  0.000000D+00  0.000000D+00  0.000000D+00  0.000000D+00
      9a  0.000000D+00  0.000000D+00  0.000000D+00  0.000000D+00  0.000000D+00
      9b  0.000000D+00  0.000000D+00  0.000000D+00  0.000000D+00  0.000000D+00
     10a  0.000000D+00  0.000000D+00  0.000000D+00  0.000000D+00  0.000000D+00
     10b  0.000000D+00  0.000000D+00  0.000000D+00  0.000000D+00  0.000000D+00
                16            17            18            19            20 
      1a  0.000000D+00  0.000000D+00  0.000000D+00  0.000000D+00  0.000000D+00
      1b  0.000000D+00  0.000000D+00  0.000000D+00  0.000000D+00  0.000000D+00
      2a  0.000000D+00  0.000000D+00  0.000000D+00  0.000000D+00  0.000000D+00
      2b  0.000000D+00  0.000000D+00  0.000000D+00  0.000000D+00  0.000000D+00
      3a  0.000000D+00  0.000000D+00  0.000000D+00  0.000000D+00  0.000000D+00
      3b  0.000000D+00  0.000000D+00  0.000000D+00  0.000000D+00  0.000000D+00
      4a  0.000000D+00  0.000000D+00  0.000000D+00  0.000000D+00  0.000000D+00
      4b  0.000000D+00  0.000000D+00  0.000000D+00  0.000000D+00  0.000000D+00
      5a  0.000000D+00  0.000000D+00  0.000000D+00  0.000000D+00  0.000000D+00
      5b  0.000000D+00  0.000000D+00  0.000000D+00  0.000000D+00  0.000000D+00
      6a  0.000000D+00  0.000000D+00  0.000000D+00  0.000000D+00  0.000000D+00
      6b  0.000000D+00  0.000000D+00  0.000000D+00  0.000000D+00  0.000000D+00
      7a  0.000000D+00  0.000000D+00  0.000000D+00  0.000000D+00  0.000000D+00
      7b  0.000000D+00  0.000000D+00  0.000000D+00  0.000000D+00  0.000000D+00
      8a  0.000000D+00  0.000000D+00  0.000000D+00  0.000000D+00  0.000000D+00
      8b  0.000000D+00  0.000000D+00  0.000000D+00  0.000000D+00  0.000000D+00
      9a  0.000000D+00  0.000000D+00  0.000000D+00  0.000000D+00  0.000000D+00
      9b  0.000000D+00  0.000000D+00  0.000000D+00  0.000000D+00  0.000000D+00
     10a  0.000000D+00  0.000000D+00  0.000000D+00  0.000000D+00  0.000000D+00
     10b  0.000000D+00  0.000000D+00  0.000000D+00  0.000000D+00  0.000000D+00
FORTRAN STOP
