 Entering Gaussian System, Link 0=gdv
 AtFile(1): H.gbs
            H     0
            S   10   1.00
               1000.000000000000            0.000068713567
                316.227766000000            0.000169141320
                100.000000000000            0.000823394812
                 31.622776600000            0.003425569236
                 10.000000000000            0.013951996000
                  3.162277660000            0.056909313560
                  1.000000000000            0.198286399900
                  0.316227766000            0.496922426700
                  0.100000000000            0.369846276400
                  0.031622776600            0.003752720039
            ****
 Initial command:
 /users/lcj1/GHF_hess/exe-dir/l1.exe "/users/lcj1/GHF_hess/h10_2rows/readmixrmY/Gau-32711.inp" -scrdir="/users/lcj1/GHF_hess/h10_2rows/readmixrmY/"
 Entering Link 1 = /users/lcj1/GHF_hess/exe-dir/l1.exe PID=     32712.
  
 Copyright (c) 1988,1990,1992,1993,1995,1998,2003,2009,2012,
            Gaussian, Inc.  All Rights Reserved.
  
 This is the private, development version of
 the Gaussian(R) DV system of programs. It is based on
 the Gaussian(R) 09 system (copyright 2009, Gaussian, Inc.),
 the Gaussian(R) 03 system (copyright 2003, Gaussian, Inc.),
 the Gaussian(R) 98 system (copyright 1998, Gaussian, Inc.),
 the Gaussian(R) 94 system (copyright 1995, Gaussian, Inc.),
 the Gaussian 92(TM) system (copyright 1992, Gaussian, Inc.),
 the Gaussian 90(TM) system (copyright 1990, Gaussian, Inc.),
 the Gaussian 88(TM) system (copyright 1988, Gaussian, Inc.),
 the Gaussian 86(TM) system (copyright 1986, Carnegie Mellon
 University), and the Gaussian 82(TM) system (copyright 1983,
 Carnegie Mellon University). Gaussian is a federally registered
 trademark of Gaussian, Inc.
  
 This software contains proprietary and confidential information,
 including trade secrets, belonging to Gaussian, Inc.
  
 This software is provided under written license and may be
 used, copied, transmitted, or stored only in accord with that
 written license.
  
 The following legend is applicable only to US Government
 contracts under FAR:
  
                    RESTRICTED RIGHTS LEGEND
  
 Use, reproduction and disclosure by the US Government is
 subject to restrictions as set forth in subparagraphs (a)
 and (c) of the Commercial Computer Software - Restricted
 Rights clause in FAR 52.227-19.
  
 Gaussian, Inc.
 340 Quinnipiac St., Bldg. 40, Wallingford CT 06492
  
  
 ---------------------------------------------------------------
 Warning -- This program may not be used in any manner that
 competes with the business of Gaussian, Inc. or will provide
 assistance to any competitor of Gaussian, Inc.  The licensee
 of this program is prohibited from giving any competitor of
 Gaussian, Inc. access to this program.  By using this program,
 the user acknowledges that Gaussian, Inc. is engaged in the
 business of creating and licensing software in the field of
 computational chemistry and represents and warrants to the
 licensee that it is not a competitor of Gaussian, Inc. and that
 it will not use this program in any manner prohibited above.
 ---------------------------------------------------------------
  

 Cite this work as:
 Gaussian Development Version, Revision H.21,
 M. J. Frisch, G. W. Trucks, H. B. Schlegel, G. E. Scuseria, 
 M. A. Robb, J. R. Cheeseman, G. Scalmani, V. Barone, B. Mennucci, 
 G. A. Petersson, H. Nakatsuji, M. Caricato, X. Li, H. P. Hratchian, 
 A. F. Izmaylov, J. Bloino, G. Zheng, J. L. Sonnenberg, W. Liang, 
 M. Hada, M. Ehara, K. Toyota, R. Fukuda, J. Hasegawa, M. Ishida, 
 T. Nakajima, Y. Honda, O. Kitao, H. Nakai, T. Vreven, 
 J. A. Montgomery, Jr., J. E. Peralta, F. Ogliaro, M. Bearpark, 
 J. J. Heyd, E. Brothers, K. N. Kudin, V. N. Staroverov, T. Keith, 
 R. Kobayashi, J. Normand, K. Raghavachari, A. Rendell, J. C. Burant, 
 S. S. Iyengar, J. Tomasi, M. Cossi, N. Rega, J. M. Millam, M. Klene, 
 J. E. Knox, J. B. Cross, V. Bakken, C. Adamo, J. Jaramillo, 
 R. Gomperts, R. E. Stratmann, O. Yazyev, A. J. Austin, R. Cammi, 
 C. Pomelli, J. W. Ochterski, R. L. Martin, K. Morokuma, 
 V. G. Zakrzewski, G. A. Voth, P. Salvador, J. J. Dannenberg, 
 S. Dapprich, P. V. Parandekar, N. J. Mayhall, A. D. Daniels, 
 O. Farkas, J. B. Foresman, J. V. Ortiz, J. Cioslowski, 
 and D. J. Fox, Gaussian, Inc., Wallingford CT, 2010.
 
 ******************************************
 Gaussian DV:  EM64L-GDVRevH.21 13-May-2012
                28-Feb-2017 
 ******************************************
 %chk=h10.chk
 ----------------------------------------------------------------------
 #ghf/gen scf(tight,novaracc,noincfock,fulldiag) stable guess=(read,mix
 ) geom=nocrowd use=l802 use=l902 test
 ----------------------------------------------------------------------
 ********************************************
   THE COMPLEX ERI TRANSFORMATION WITH L802  
        COMPLEX STABILITY WITH L902          
 ********************************************
 1/38=1/1;
 2/12=1,17=6,18=5,40=1/2;
 3/5=7,16=1,25=20,28=1,116=7/1,2,3,20;
 4/5=1,13=-1/1;
 5/5=100001,16=1,32=2,38=6/2;
 8/6=1,10=90,11=11/1,2;
 9/8=4,13=1/1,2;
 6/7=2,8=2,9=2,10=2,28=1/1;
 99/5=1,9=1/99;
 ----------------------------------------------------------------------
 hf stability analysis of h10 triangular lattice, y= 1.1255574828824770
  alpha= 65.500000000000000
 ----------------------------------------------------------------------
 Symbolic Z-Matrix:
 Charge =  0 Multiplicity = 1
 H
 H                    1     1.23693 
 H                    1     1.23693  2     49. 
 H                    2     1.23693  1     131.     3     0.       0
 H                    3     1.23693  1     180.     2     0.       0
 H                    4     1.23693  2     180.     1     0.       0
 H                    5     1.23693  3     180.     2     0.       0
 H                    6     1.23693  4     180.     1     0.       0
 H                    7     1.23693  5     180.     2     0.       0
 H                    8     1.23693  6     180.     1     0.       0
 
                          Input orientation:                          
 ---------------------------------------------------------------------
 Center     Atomic      Atomic             Coordinates (Angstroms)
 Number     Number       Type             X           Y           Z
 ---------------------------------------------------------------------
      1          1           0        0.000000    0.000000    0.000000
      2          1           0        0.000000    0.000000    1.236929
      3          1           0        0.933522    0.000000    0.811498
      4          1           0        0.933522    0.000000    2.048427
      5          1           0        1.867044    0.000000    1.622997
      6          1           0        1.867044    0.000000    2.859926
      7          1           0        2.800566    0.000000    2.434495
      8          1           0        2.800566    0.000000    3.671424
      9          1           0        3.734089    0.000000    3.245994
     10          1           0        3.734089    0.000000    4.482923
 ---------------------------------------------------------------------
                    Distance matrix (angstroms):
                    1          2          3          4          5
     1  H    0.000000
     2  H    1.236929   0.000000
     3  H    1.236929   1.025892   0.000000
     4  H    2.251115   1.236929   1.236929   0.000000
     5  H    2.473858   1.906542   1.236929   1.025892   0.000000
     6  H    3.415411   2.473858   2.251115   1.236929   1.236929
     7  H    3.710787   3.045872   2.473858   1.906542   1.236929
     8  H    4.617632   3.710787   3.415411   2.473858   2.251115
     9  H    4.947716   4.240255   3.710787   3.045872   2.473858
    10  H    5.834382   4.947716   4.617632   3.710787   3.415411
                    6          7          8          9         10
     6  H    0.000000
     7  H    1.025892   0.000000
     8  H    1.236929   1.236929   0.000000
     9  H    1.906542   1.236929   1.025892   0.000000
    10  H    2.473858   2.251115   1.236929   1.236929   0.000000
 Stoichiometry    H10
 Framework group  C2H[SGH(H10)]
 Deg. of freedom     9
 Full point group                 C2H     NOp   4
 Largest Abelian subgroup         C2H     NOp   4
 Largest concise Abelian subgroup C2      NOp   2
                         Standard orientation:                         
 ---------------------------------------------------------------------
 Center     Atomic      Atomic             Coordinates (Angstroms)
 Number     Number       Type             X           Y           Z
 ---------------------------------------------------------------------
      1          1           0        1.867044    2.241461    0.000000
      2          1           0        1.867044    1.004532    0.000000
      3          1           0        0.933522    1.429963    0.000000
      4          1           0        0.933522    0.193034    0.000000
      5          1           0        0.000000    0.618464    0.000000
      6          1           0        0.000000   -0.618464    0.000000
      7          1           0       -0.933522   -0.193034    0.000000
      8          1           0       -0.933522   -1.429963    0.000000
      9          1           0       -1.867044   -1.004532    0.000000
     10          1           0       -1.867044   -2.241461    0.000000
 ---------------------------------------------------------------------
 Rotational constants (GHZ):    243.4439763     15.4937410     14.5666609
 General basis read from cards:  (5D, 7F)
 There are     5 symmetry adapted cartesian basis functions of AG  symmetry.
 There are     0 symmetry adapted cartesian basis functions of BG  symmetry.
 There are     0 symmetry adapted cartesian basis functions of AU  symmetry.
 There are     5 symmetry adapted cartesian basis functions of BU  symmetry.
 There are     5 symmetry adapted basis functions of AG  symmetry.
 There are     0 symmetry adapted basis functions of BG  symmetry.
 There are     0 symmetry adapted basis functions of AU  symmetry.
 There are     5 symmetry adapted basis functions of BU  symmetry.
    10 basis functions,   100 primitive gaussians,    10 cartesian basis functions
     5 alpha electrons        5 beta electrons
       nuclear repulsion energy        12.7226118625 Hartrees.
 NAtoms=   10 NActive=   10 NUniq=    5 SFac= 4.00D+00 NAtFMM=   60 NAOKFM=F Big=F
 Integral buffers will be    131072 words long.
 Regular integral format.
 Two-electron integral symmetry is turned off.
 One-electron integrals computed using PRISM.
 NBasis=    10 RedAO= T EigKep=  1.92D-01  NBF=     5     0     0     5
 NBsUse=    10 1.00D-06 EigRej= -1.00D+00 NBFU=     5     0     0     5
 IOp(28)                       1
                        1                       0
                        2                       1
                        3                       1
                        4                      20
                        5                       0
                        6                       0
                        7                      10
                        8                       1
                        9                       4
                       10                       0
                       11              1073741824
                       12                      20
                       13                       2
                       14                  131070
                       15                       1
                       16                       1
                       17                  131073
                       18                       0
                       19                       0
                       20                       0
                       21                       2
                       22                  131070
                       23                       0
                       24                       0
                       25                       0
                       26                       0
                       27                   65535
                       28                       2
                       29                  131072
                       30                       0
 IHMeth                       1
 ib3: ISMode =                        0                       4
 Enter DskPsm, NBasis=  10 NBas6D=  10 NShell=  10 IDoSP=4.
 Out2e will use a cutoff of  1.00D-10
 FoFCou: FMM=F IPFlag=           0 FMFlag=           0 FMFlg1=           0
         NFxFlg=           0 DoJE=F BraDBF=F KetDBF=F FulRan=T
         wScrn=  0.000000 ICntrl=     600 IOpCl=  9 I1Cent=           0 NGrid=           0
         NMat0=    0 NMatS0=      0 NMatT0=    0 NMatD0=    0 NMtDS0=    0 NMtDT0=    0
 Symmetry not used in FoFCou.
 Entering PrmDigJobTyp =                      20
 LenSav and NKeep                       0                       0
 Entered Stor2E with KNTT1,2                       2                  131070
 Leave Stor2X
 Entering PrmDigJobTyp =                      20
 LenSav and NKeep                       0                       0
 Entered Stor2E with KNTT1,2                       2                  131056
 Leave Stor2X
 Entering PrmDigJobTyp =                      20
 LenSav and NKeep                       0                       0
 Entered Stor2E with KNTT1,2                       2                  131042
 Leave Stor2X
 Entering PrmDigJobTyp =                      20
 LenSav and NKeep                       0                       0
 Entered Stor2E with KNTT1,2                       2                  131028
 Leave Stor2X
 Entering PrmDigJobTyp =                      20
 LenSav and NKeep                       0                       0
 Entered Stor2E with KNTT1,2                       2                  131014
 Leave Stor2X
 Entering PrmDigJobTyp =                      20
 LenSav and NKeep                       0                       0
 Entered Stor2E with KNTT1,2                       2                  131000
 Leave Stor2X
 Entering PrmDigJobTyp =                      20
 LenSav and NKeep                       0                       0
 Entered Stor2E with KNTT1,2                       2                  130986
 Leave Stor2X
 Entering PrmDigJobTyp =                      20
 LenSav and NKeep                       0                       0
 Entered Stor2E with KNTT1,2                       2                  130972
 Leave Stor2X
 Entering PrmDigJobTyp =                      20
 LenSav and NKeep                       0                       0
 Entered Stor2E with KNTT1,2                       2                  130960
 Leave Stor2X
 Entering PrmDigJobTyp =                      20
 LenSav and NKeep                       0                       0
 Entered Stor2E with KNTT1,2                       2                  130946
 Leave Stor2X
 Entering PrmDigJobTyp =                      20
 LenSav and NKeep                       0                       0
 Entered Stor2E with KNTT1,2                       2                  130932
 Leave Stor2X
 Entering PrmDigJobTyp =                      20
 LenSav and NKeep                       0                       0
 Entered Stor2E with KNTT1,2                       2                  130918
 Leave Stor2X
 Entering PrmDigJobTyp =                      20
 LenSav and NKeep                       0                       0
 Entered Stor2E with KNTT1,2                       2                  130904
 Leave Stor2X
 Entering PrmDigJobTyp =                      20
 LenSav and NKeep                       0                       0
 Entered Stor2E with KNTT1,2                       2                  130890
 Leave Stor2X
 Entering PrmDigJobTyp =                      20
 LenSav and NKeep                       0                       0
 Entered Stor2E with KNTT1,2                       2                  130876
 Leave Stor2X
 Entering PrmDigJobTyp =                      20
 LenSav and NKeep                       0                       0
 Entered Stor2E with KNTT1,2                       2                  130862
 Leave Stor2X
 Entering PrmDigJobTyp =                      20
 LenSav and NKeep                       0                       0
 Entered Stor2E with KNTT1,2                       2                  130848
 Leave Stor2X
 Entering PrmDigJobTyp =                      20
 LenSav and NKeep                       0                       0
 Entered Stor2E with KNTT1,2                       2                  130834
 Leave Stor2X
 Entering PrmDigJobTyp =                      20
 LenSav and NKeep                       0                       0
 Entered Stor2E with KNTT1,2                       2                  130820
 Leave Stor2X
 Entering PrmDigJobTyp =                      20
 LenSav and NKeep                       0                       0
 Entered Stor2E with KNTT1,2                       2                  130806
 Leave Stor2X
 Entering PrmDigJobTyp =                      20
 LenSav and NKeep                       0                       0
 Entered Stor2E with KNTT1,2                       2                  130792
 Leave Stor2X
 Entering PrmDigJobTyp =                      20
 LenSav and NKeep                       0                       0
 Entered Stor2E with KNTT1,2                       2                  130778
 Leave Stor2X
 Entering PrmDigJobTyp =                      20
 LenSav and NKeep                       0                       0
 Entered Stor2E with KNTT1,2                       2                  130764
 Leave Stor2X
 Entering PrmDigJobTyp =                      20
 LenSav and NKeep                       0                       0
 Entered Stor2E with KNTT1,2                       2                  130750
 Leave Stor2X
 Entering PrmDigJobTyp =                      20
 LenSav and NKeep                       0                       0
 Entered Stor2E with KNTT1,2                       2                  130736
 Leave Stor2X
 Entering PrmDigJobTyp =                      20
 LenSav and NKeep                       0                       0
 Entered Stor2E with KNTT1,2                       2                  130722
 Leave Stor2X
 Entering PrmDigJobTyp =                      20
 LenSav and NKeep                       0                       0
 Entered Stor2E with KNTT1,2                       2                  130708
 Leave Stor2X
 Entering PrmDigJobTyp =                      20
 LenSav and NKeep                       0                       0
 Entered Stor2E with KNTT1,2                       2                  130700
 Leave Stor2X
 Entering PrmDigJobTyp =                      20
 LenSav and NKeep                       0                       0
 Entered Stor2E with KNTT1,2                       6                  130684
 Leave Stor2X
 Entering PrmDigJobTyp =                      20
 LenSav and NKeep                       0                       0
 Entered Stor2E with KNTT1,2                      16                  130674
 Leave Stor2X
 Entering PrmDigJobTyp =                      20
 LenSav and NKeep                       0                       0
 Entered Stor2E with KNTT1,2                      28                  130666
 Leave Stor2X
 Entering PrmDigJobTyp =                      20
 LenSav and NKeep                       0                       0
 Entered Stor2E with KNTT1,2                      42                  130660
 Leave Stor2X
 Entering PrmDigJobTyp =                      20
 LenSav and NKeep                       0                       0
 Entered Stor2E with KNTT1,2                      56                  130654
 Leave Stor2X
 Entering PrmDigJobTyp =                      20
 LenSav and NKeep                       0                       0
 Entered Stor2E with KNTT1,2                      70                  130648
 Leave Stor2X
 Entering PrmDigJobTyp =                      20
 LenSav and NKeep                       0                       0
 Entered Stor2E with KNTT1,2                      84                  130642
 Leave Stor2X
 Entering PrmDigJobTyp =                      20
 LenSav and NKeep                       0                       0
 Entered Stor2E with KNTT1,2                      98                  130636
 Leave Stor2X
 Entering PrmDigJobTyp =                      20
 LenSav and NKeep                       0                       0
 Entered Stor2E with KNTT1,2                     114                  130632
 Leave Stor2X
 Entering PrmDigJobTyp =                      20
 LenSav and NKeep                       0                       0
 Entered Stor2E with KNTT1,2                     114                  130630
 Leave Stor2X
 Entering PrmDigJobTyp =                      20
 LenSav and NKeep                       0                       0
 Entered Stor2E with KNTT1,2                     114                  130616
 Leave Stor2X
 Entering PrmDigJobTyp =                      20
 LenSav and NKeep                       0                       0
 Entered Stor2E with KNTT1,2                     114                  130602
 Leave Stor2X
 Entering PrmDigJobTyp =                      20
 LenSav and NKeep                       0                       0
 Entered Stor2E with KNTT1,2                     114                  130588
 Leave Stor2X
 Entering PrmDigJobTyp =                      20
 LenSav and NKeep                       0                       0
 Entered Stor2E with KNTT1,2                     114                  130574
 Leave Stor2X
 Entering PrmDigJobTyp =                      20
 LenSav and NKeep                       0                       0
 Entered Stor2E with KNTT1,2                     114                  130560
 Leave Stor2X
 Entering PrmDigJobTyp =                      20
 LenSav and NKeep                       0                       0
 Entered Stor2E with KNTT1,2                     114                  130550
 Leave Stor2X
 Entering PrmDigJobTyp =                      20
 LenSav and NKeep                       0                       0
 Entered Stor2E with KNTT1,2                     124                  130540
 Leave Stor2X
 Entering PrmDigJobTyp =                      20
 LenSav and NKeep                       0                       0
 Entered Stor2E with KNTT1,2                     134                  130530
 Leave Stor2X
 Entering PrmDigJobTyp =                      20
 LenSav and NKeep                       0                       0
 Entered Stor2E with KNTT1,2                     152                  130528
 Leave Stor2X
 Entering PrmDigJobTyp =                      20
 LenSav and NKeep                       0                       0
 Entered Stor2E with KNTT1,2                     160                  130516
 Leave Stor2X
 Entering PrmDigJobTyp =                      20
 LenSav and NKeep                       0                       0
 Entered Stor2E with KNTT1,2                     174                  130510
 Leave Stor2X
 Entering PrmDigJobTyp =                      20
 LenSav and NKeep                       0                       0
 Entered Stor2E with KNTT1,2                     174                  130506
 Leave Stor2X
 Entering PrmDigJobTyp =                      20
 LenSav and NKeep                       0                       0
 Entered Stor2E with KNTT1,2                     186                  130498
 Leave Stor2X
 Entering PrmDigJobTyp =                      20
 LenSav and NKeep                       0                       0
 Entered Stor2E with KNTT1,2                     186                  130480
 Leave Stor2X
 Entering PrmDigJobTyp =                      20
 LenSav and NKeep                       0                       0
 Entered Stor2E with KNTT1,2                     186                  130462
 Leave Stor2X
 Entering PrmDigJobTyp =                      20
 LenSav and NKeep                       0                       0
 Entered Stor2E with KNTT1,2                     186                  130444
 Leave Stor2X
 Entering PrmDigJobTyp =                      20
 LenSav and NKeep                       0                       0
 Entered Stor2E with KNTT1,2                     186                  130426
 Leave Stor2X
 Entering PrmDigJobTyp =                      20
 LenSav and NKeep                       0                       0
 Entered Stor2E with KNTT1,2                     186                  130418
 Leave Stor2X
 Entering PrmDigJobTyp =                      20
 LenSav and NKeep                       0                       0
 Entered Stor2E with KNTT1,2                     200                  130408
 Leave Stor2X
 Entering PrmDigJobTyp =                      20
 LenSav and NKeep                       0                       0
 Entered Stor2E with KNTT1,2                     212                  130396
 Leave Stor2X
 Entering PrmDigJobTyp =                      20
 LenSav and NKeep                       0                       0
 Entered Stor2E with KNTT1,2                     226                  130386
 Leave Stor2X
 Entering PrmDigJobTyp =                      20
 LenSav and NKeep                       0                       0
 Entered Stor2E with KNTT1,2                     246                  130382
 Leave Stor2X
 Entering PrmDigJobTyp =                      20
 LenSav and NKeep                       0                       0
 Entered Stor2E with KNTT1,2                     246                  130374
 Leave Stor2X
 Entering PrmDigJobTyp =                      20
 LenSav and NKeep                       0                       0
 Entered Stor2E with KNTT1,2                     260                  130366
 Leave Stor2X
 Entering PrmDigJobTyp =                      20
 LenSav and NKeep                       0                       0
 Entered Stor2E with KNTT1,2                     266                  130362
 Leave Stor2X
 Entering PrmDigJobTyp =                      20
 LenSav and NKeep                       0                       0
 Entered Stor2E with KNTT1,2                     278                  130354
 Leave Stor2X
 Entering PrmDigJobTyp =                      20
 LenSav and NKeep                       0                       0
 Entered Stor2E with KNTT1,2                     278                  130336
 Leave Stor2X
 Entering PrmDigJobTyp =                      20
 LenSav and NKeep                       0                       0
 Entered Stor2E with KNTT1,2                     278                  130318
 Leave Stor2X
 Entering PrmDigJobTyp =                      20
 LenSav and NKeep                       0                       0
 Entered Stor2E with KNTT1,2                     278                  130300
 Leave Stor2X
 Entering PrmDigJobTyp =                      20
 LenSav and NKeep                       0                       0
 Entered Stor2E with KNTT1,2                     278                  130282
 Leave Stor2X
 Entering PrmDigJobTyp =                      20
 LenSav and NKeep                       0                       0
 Entered Stor2E with KNTT1,2                     278                  130264
 Leave Stor2X
 Entering PrmDigJobTyp =                      20
 LenSav and NKeep                       0                       0
 Entered Stor2E with KNTT1,2                     278                  130246
 Leave Stor2X
 Entering PrmDigJobTyp =                      20
 LenSav and NKeep                       0                       0
 Entered Stor2E with KNTT1,2                     278                  130234
 Leave Stor2X
 Entering PrmDigJobTyp =                      20
 LenSav and NKeep                       0                       0
 Entered Stor2E with KNTT1,2                     292                  130224
 Leave Stor2X
 Entering PrmDigJobTyp =                      20
 LenSav and NKeep                       0                       0
 Entered Stor2E with KNTT1,2                     306                  130214
 Leave Stor2X
 Entering PrmDigJobTyp =                      20
 LenSav and NKeep                       0                       0
 Entered Stor2E with KNTT1,2                     320                  130204
 Leave Stor2X
 Entering PrmDigJobTyp =                      20
 LenSav and NKeep                       0                       0
 Entered Stor2E with KNTT1,2                     334                  130194
 Leave Stor2X
 Entering PrmDigJobTyp =                      20
 LenSav and NKeep                       0                       0
 Entered Stor2E with KNTT1,2                     348                  130184
 Leave Stor2X
 Entering PrmDigJobTyp =                      20
 LenSav and NKeep                       0                       0
 Entered Stor2E with KNTT1,2                     364                  130176
 Leave Stor2X
 Entering PrmDigJobTyp =                      20
 LenSav and NKeep                       0                       0
 Entered Stor2E with KNTT1,2                     370                  130170
 Leave Stor2X
 Entering PrmDigJobTyp =                      20
 LenSav and NKeep                       0                       0
 Entered Stor2E with KNTT1,2                     384                  130160
 Leave Stor2X
 Entering PrmDigJobTyp =                      20
 LenSav and NKeep                       0                       0
 Entered Stor2E with KNTT1,2                     398                  130150
 Leave Stor2X
 Entering PrmDigJobTyp =                      20
 LenSav and NKeep                       0                       0
 Entered Stor2E with KNTT1,2                     414                  130136
 Leave Stor2X
 Entering PrmDigJobTyp =                      20
 LenSav and NKeep                       0                       0
 Entered Stor2E with KNTT1,2                     426                  130130
 Leave Stor2X
 Entering PrmDigJobTyp =                      20
 LenSav and NKeep                       0                       0
 Entered Stor2E with KNTT1,2                     446                  130118
 Leave Stor2X
 Entering PrmDigJobTyp =                      20
 LenSav and NKeep                       0                       0
 Entered Stor2E with KNTT1,2                     452                  130114
 Leave Stor2X
 Entering PrmDigJobTyp =                      20
 LenSav and NKeep                       0                       0
 Entered Stor2E with KNTT1,2                     452                  130098
 Leave Stor2X
 Entering PrmDigJobTyp =                      20
 LenSav and NKeep                       0                       0
 Entered Stor2E with KNTT1,2                     452                  130082
 Leave Stor2X
 Entering PrmDigJobTyp =                      20
 LenSav and NKeep                       0                       0
 Entered Stor2E with KNTT1,2                     452                  130066
 Leave Stor2X
 Entering PrmDigJobTyp =                      20
 LenSav and NKeep                       0                       0
 Entered Stor2E with KNTT1,2                     452                  130054
 Leave Stor2X
 Entering PrmDigJobTyp =                      20
 LenSav and NKeep                       0                       0
 Entered Stor2E with KNTT1,2                     464                  130044
 Leave Stor2X
 Entering PrmDigJobTyp =                      20
 LenSav and NKeep                       0                       0
 Entered Stor2E with KNTT1,2                     478                  130036
 Leave Stor2X
 Entering PrmDigJobTyp =                      20
 LenSav and NKeep                       0                       0
 Entered Stor2E with KNTT1,2                     492                  130028
 Leave Stor2X
 Entering PrmDigJobTyp =                      20
 LenSav and NKeep                       0                       0
 Entered Stor2E with KNTT1,2                     498                  130022
 Leave Stor2X
 Entering PrmDigJobTyp =                      20
 LenSav and NKeep                       0                       0
 Entered Stor2E with KNTT1,2                     510                  130012
 Leave Stor2X
 Entering PrmDigJobTyp =                      20
 LenSav and NKeep                       0                       0
 Entered Stor2E with KNTT1,2                     510                  130010
 Leave Stor2X
 Entering PrmDigJobTyp =                      20
 LenSav and NKeep                       0                       0
 Entered Stor2E with KNTT1,2                     526                  130002
 Leave Stor2X
 Entering PrmDigJobTyp =                      20
 LenSav and NKeep                       0                       0
 Entered Stor2E with KNTT1,2                     542                  129990
 Leave Stor2X
 Entering PrmDigJobTyp =                      20
 LenSav and NKeep                       0                       0
 Entered Stor2E with KNTT1,2                     546                  129986
 Leave Stor2X
 Entering PrmDigJobTyp =                      20
 LenSav and NKeep                       0                       0
 Entered Stor2E with KNTT1,2                     552                  129980
 Leave Stor2X
 Entering PrmDigJobTyp =                      20
 LenSav and NKeep                       0                       0
 Entered Stor2E with KNTT1,2                     552                  129958
 Leave Stor2X
 Entering PrmDigJobTyp =                      20
 LenSav and NKeep                       0                       0
 Entered Stor2E with KNTT1,2                     552                  129936
 Leave Stor2X
 Entering PrmDigJobTyp =                      20
 LenSav and NKeep                       0                       0
 Entered Stor2E with KNTT1,2                     552                  129914
 Leave Stor2X
 Entering PrmDigJobTyp =                      20
 LenSav and NKeep                       0                       0
 Entered Stor2E with KNTT1,2                     552                  129892
 Leave Stor2X
 Entering PrmDigJobTyp =                      20
 LenSav and NKeep                       0                       0
 Entered Stor2E with KNTT1,2                     552                  129870
 Leave Stor2X
 Entering PrmDigJobTyp =                      20
 LenSav and NKeep                       0                       0
 Entered Stor2E with KNTT1,2                     552                  129848
 Leave Stor2X
 Entering PrmDigJobTyp =                      20
 LenSav and NKeep                       0                       0
 Entered Stor2E with KNTT1,2                     552                  129840
 Leave Stor2X
 Entering PrmDigJobTyp =                      20
 LenSav and NKeep                       0                       0
 Entered Stor2E with KNTT1,2                     568                  129828
 Leave Stor2X
 Entering PrmDigJobTyp =                      20
 LenSav and NKeep                       0                       0
 Entered Stor2E with KNTT1,2                     586                  129818
 Leave Stor2X
 Entering PrmDigJobTyp =                      20
 LenSav and NKeep                       0                       0
 Entered Stor2E with KNTT1,2                     604                  129808
 Leave Stor2X
 Entering PrmDigJobTyp =                      20
 LenSav and NKeep                       0                       0
 Entered Stor2E with KNTT1,2                     618                  129794
 Leave Stor2X
 Entering PrmDigJobTyp =                      20
 LenSav and NKeep                       0                       0
 Entered Stor2E with KNTT1,2                     636                  129784
 Leave Stor2X
 Entering PrmDigJobTyp =                      20
 LenSav and NKeep                       0                       0
 Entered Stor2E with KNTT1,2                     656                  129776
 Leave Stor2X
 Entering PrmDigJobTyp =                      20
 LenSav and NKeep                       0                       0
 Entered Stor2E with KNTT1,2                     662                  129768
 Leave Stor2X
 Entering PrmDigJobTyp =                      20
 LenSav and NKeep                       0                       0
 Entered Stor2E with KNTT1,2                     680                  129758
 Leave Stor2X
 Entering PrmDigJobTyp =                      20
 LenSav and NKeep                       0                       0
 Entered Stor2E with KNTT1,2                     698                  129748
 Leave Stor2X
 Entering PrmDigJobTyp =                      20
 LenSav and NKeep                       0                       0
 Entered Stor2E with KNTT1,2                     718                  129734
 Leave Stor2X
 Entering PrmDigJobTyp =                      20
 LenSav and NKeep                       0                       0
 Entered Stor2E with KNTT1,2                     730                  129724
 Leave Stor2X
 Entering PrmDigJobTyp =                      20
 LenSav and NKeep                       0                       0
 Entered Stor2E with KNTT1,2                     752                  129710
 Leave Stor2X
 Entering PrmDigJobTyp =                      20
 LenSav and NKeep                       0                       0
 Entered Stor2E with KNTT1,2                     776                  129698
 Leave Stor2X
 Entering PrmDigJobTyp =                      20
 LenSav and NKeep                       0                       0
 Entered Stor2E with KNTT1,2                     782                  129692
 Leave Stor2X
 Entering PrmDigJobTyp =                      20
 LenSav and NKeep                       0                       0
 Entered Stor2E with KNTT1,2                     806                  129682
 Leave Stor2X
 Entering PrmDigJobTyp =                      20
 LenSav and NKeep                       0                       0
 Entered Stor2E with KNTT1,2                     812                  129680
 Leave Stor2X
 Entering PrmDigJobTyp =                      20
 LenSav and NKeep                       0                       0
 Entered Stor2E with KNTT1,2                     836                  129662
 Leave Stor2X
 Entering PrmDigJobTyp =                      20
 LenSav and NKeep                       0                       0
 Entered Stor2E with KNTT1,2                     846                  129658
 Leave Stor2X
 Entering PrmDigJobTyp =                      20
 LenSav and NKeep                       0                       0
 Entered Stor2E with KNTT1,2                     846                  129638
 Leave Stor2X
 Entering PrmDigJobTyp =                      20
 LenSav and NKeep                       0                       0
 Entered Stor2E with KNTT1,2                     846                  129618
 Leave Stor2X
 Entering PrmDigJobTyp =                      20
 LenSav and NKeep                       0                       0
 Entered Stor2E with KNTT1,2                     864                  129608
 Leave Stor2X
 Entering PrmDigJobTyp =                      20
 LenSav and NKeep                       0                       0
 Entered Stor2E with KNTT1,2                     878                  129598
 Leave Stor2X
 Entering PrmDigJobTyp =                      20
 LenSav and NKeep                       0                       0
 Entered Stor2E with KNTT1,2                     886                  129590
 Leave Stor2X
 Entering PrmDigJobTyp =                      20
 LenSav and NKeep                       0                       0
 Entered Stor2E with KNTT1,2                     898                  129586
 Leave Stor2X
 Entering PrmDigJobTyp =                      20
 LenSav and NKeep                       0                       0
 Entered Stor2E with KNTT1,2                     914                  129578
 Leave Stor2X
 Entering PrmDigJobTyp =                      20
 LenSav and NKeep                       0                       0
 Entered Stor2E with KNTT1,2                     918                  129570
 Leave Stor2X
 Entering PrmDigJobTyp =                      20
 LenSav and NKeep                       0                       0
 Entered Stor2E with KNTT1,2                     938                  129562
 Leave Stor2X
 Entering PrmDigJobTyp =                      20
 LenSav and NKeep                       0                       0
 Entered Stor2E with KNTT1,2                     940                  129558
 Leave Stor2X
 Entering PrmDigJobTyp =                      20
 LenSav and NKeep                       0                       0
 Entered Stor2E with KNTT1,2                     940                  129532
 Leave Stor2X
 Entering PrmDigJobTyp =                      20
 LenSav and NKeep                       0                       0
 Entered Stor2E with KNTT1,2                     940                  129518
 Leave Stor2X
 Entering PrmDigJobTyp =                      20
 LenSav and NKeep                       0                       0
 Entered Stor2E with KNTT1,2                     960                  129502
 Leave Stor2X
 Entering PrmDigJobTyp =                      20
 LenSav and NKeep                       0                       0
 Entered Stor2E with KNTT1,2                     972                  129498
 Leave Stor2X
 Entering PrmDigJobTyp =                      20
 LenSav and NKeep                       0                       0
 Entered Stor2E with KNTT1,2                     984                  129494
 Leave Stor2X
 Entering PrmDigJobTyp =                      20
 LenSav and NKeep                       0                       0
 Entered Stor2E with KNTT1,2                     992                  129486
 Leave Stor2X
 Entering PrmDigJobTyp =                      20
 LenSav and NKeep                       0                       0
 Entered Stor2E with KNTT1,2                    1008                  129478
 Leave Stor2X
 Entering PrmDigJobTyp =                      20
 LenSav and NKeep                       0                       0
 Entered Stor2E with KNTT1,2                    1020                  129478
 Leave Stor2X
 Entering PrmDigJobTyp =                      20
 LenSav and NKeep                       0                       0
 Entered Stor2E with KNTT1,2                    1032                  129462
 Leave Stor2X
 Entering PrmDigJobTyp =                      20
 LenSav and NKeep                       0                       0
 Entered Stor2E with KNTT1,2                    1040                  129462
 Leave Stor2X
 Entering PrmDigJobTyp =                      20
 LenSav and NKeep                       0                       0
 Entered Stor2E with KNTT1,2                    1042                  129458
 Leave Stor2X
 Entering PrmDigJobTyp =                      20
 LenSav and NKeep                       0                       0
 Entered Stor2E with KNTT1,2                    1042                  129430
 Leave Stor2X
 Entering PrmDigJobTyp =                      20
 LenSav and NKeep                       0                       0
 Entered Stor2E with KNTT1,2                    1042                  129418
 Leave Stor2X
 Entering PrmDigJobTyp =                      20
 LenSav and NKeep                       0                       0
 Entered Stor2E with KNTT1,2                    1066                  129406
 Leave Stor2X
 Entering PrmDigJobTyp =                      20
 LenSav and NKeep                       0                       0
 Entered Stor2E with KNTT1,2                    1078                  129402
 Leave Stor2X
 Entering PrmDigJobTyp =                      20
 LenSav and NKeep                       0                       0
 Entered Stor2E with KNTT1,2                    1090                  129398
 Leave Stor2X
 Entering PrmDigJobTyp =                      20
 LenSav and NKeep                       0                       0
 Entered Stor2E with KNTT1,2                    1102                  129394
 Leave Stor2X
 Entering PrmDigJobTyp =                      20
 LenSav and NKeep                       0                       0
 Entered Stor2E with KNTT1,2                    1118                  129386
 Leave Stor2X
 Entering PrmDigJobTyp =                      20
 LenSav and NKeep                       0                       0
 Entered Stor2E with KNTT1,2                    1126                  129382
 Leave Stor2X
 Entering PrmDigJobTyp =                      20
 LenSav and NKeep                       0                       0
 Entered Stor2E with KNTT1,2                    1142                  129370
 Leave Stor2X
 Entering PrmDigJobTyp =                      20
 LenSav and NKeep                       0                       0
 Entered Stor2E with KNTT1,2                    1146                  129366
 Leave Stor2X
 Entering PrmDigJobTyp =                      20
 LenSav and NKeep                       0                       0
 Entered Stor2E with KNTT1,2                    1150                  129362
 Leave Stor2X
 Entering PrmDigJobTyp =                      20
 LenSav and NKeep                       0                       0
 Entered Stor2E with KNTT1,2                    1152                  129358
 Leave Stor2X
 Entering PrmDigJobTyp =                      20
 LenSav and NKeep                       0                       0
 Entered Stor2E with KNTT1,2                    1152                  129338
 Leave Stor2X
 Entering PrmDigJobTyp =                      20
 LenSav and NKeep                       0                       0
 Entered Stor2E with KNTT1,2                    1170                  129330
 Leave Stor2X
 Entering PrmDigJobTyp =                      20
 LenSav and NKeep                       0                       0
 Entered Stor2E with KNTT1,2                    1174                  129326
 Leave Stor2X
 Entering PrmDigJobTyp =                      20
 LenSav and NKeep                       0                       0
 Entered Stor2E with KNTT1,2                    1182                  129326
 Leave Stor2X
 Entering PrmDigJobTyp =                      20
 LenSav and NKeep                       0                       0
 Entered Stor2E with KNTT1,2                    1190                  129322
 Leave Stor2X
 Entering PrmDigJobTyp =                      20
 LenSav and NKeep                       0                       0
 Entered Stor2E with KNTT1,2                    1192                  129318
 Leave Stor2X
 Entering PrmDigJobTyp =                      20
 LenSav and NKeep                       0                       0
 Entered Stor2E with KNTT1,2                    1202                  129314
 Leave Stor2X
 Entering PrmDigJobTyp =                      20
 LenSav and NKeep                       0                       0
 Entered Stor2E with KNTT1,2                    1202                  129310
 Leave Stor2X
 Entering PrmDigJobTyp =                      20
 LenSav and NKeep                       0                       0
 Entered Stor2E with KNTT1,2                    1206                  129310
 Leave Stor2X
 Entering PrmDigJobTyp =                      20
 LenSav and NKeep                       0                       0
 Entered Stor2E with KNTT1,2                    1206                  129306
 Leave Stor2X
 Entering PrmDigJobTyp =                      20
 LenSav and NKeep                       0                       0
 Entered Stor2E with KNTT1,2                    1206                  129304
 Leave Stor2X
 Entering PrmDigJobTyp =                      20
 LenSav and NKeep                       0                       0
 Entered Stor2E with KNTT1,2                    1206                  129284
 Leave Stor2X
 Entering PrmDigJobTyp =                      20
 LenSav and NKeep                       0                       0
 Entered Stor2E with KNTT1,2                    1224                  129276
 Leave Stor2X
 Entering PrmDigJobTyp =                      20
 LenSav and NKeep                       0                       0
 Entered Stor2E with KNTT1,2                    1232                  129276
 Leave Stor2X
 Entering PrmDigJobTyp =                      20
 LenSav and NKeep                       0                       0
 Entered Stor2E with KNTT1,2                    1236                  129272
 Leave Stor2X
 Entering PrmDigJobTyp =                      20
 LenSav and NKeep                       0                       0
 Entered Stor2E with KNTT1,2                    1244                  129268
 Leave Stor2X
 Entering PrmDigJobTyp =                      20
 LenSav and NKeep                       0                       0
 Entered Stor2E with KNTT1,2                    1250                  129268
 Leave Stor2X
 Entering PrmDigJobTyp =                      20
 LenSav and NKeep                       0                       0
 Entered Stor2E with KNTT1,2                    1256                  129260
 Leave Stor2X
 Entering PrmDigJobTyp =                      20
 LenSav and NKeep                       0                       0
 Entered Stor2E with KNTT1,2                    1260                  129260
 Leave Stor2X
 Entering PrmDigJobTyp =                      20
 LenSav and NKeep                       0                       0
 Entered Stor2E with KNTT1,2                    1260                  129256
 Leave Stor2X
 Entering PrmDigJobTyp =                      20
 LenSav and NKeep                       0                       0
 Entered Stor2E with KNTT1,2                    1260                  129252
 Leave Stor2X
 Entering PrmDigJobTyp =                      20
 LenSav and NKeep                       0                       0
 Entered Stor2E with KNTT1,2                    1262                  129252
 Leave Stor2X
 In PrSumR
 Called IWRITE
         1540 integrals produced for a total of         1540.
 Initial guess from the checkpoint file:  "h10.chk"
 B after Tr=     0.000000    0.000000    0.000000
         Rot=    0.996796    0.000000    0.000000    0.079983 Ang=   9.18 deg.
 Mixing orbitals, IMix= 1 IMixAn=  0 NRI=2 NE=   10 Coef=  7.07106781D-01  7.07106781D-01
 Also mixing orbitals    10 and    12 Coef=  7.07106781D-01  7.07106781D-01
 Initial guess <Sx>= 0.0000 <Sy>= 0.0000 <Sz>= 0.0000 <S**2>= 0.5000 S= 0.3660
 Two-electron integrals will be kept in memory, NGetB=      152788.
 Requested convergence on RMS density matrix=1.00D-08 within 128 cycles.
 Requested convergence on MAX density matrix=1.00D-06.
 Requested convergence on             energy=1.00D-06.
 No special actions if energy rises.
 Density File Not Found. Continue as usual
 Rare condition: small coef for last iteration:  0.000D+00
 SCF Done:  E(GHF) =  -4.86423499431     A.U. after   26 cycles
            NFock= 26  Conv=0.57D-08     -V/T= 1.9451
 <Sx>= 0.0000 <Sy>= 0.0000 <Sz>= 0.0000 <S**2>= 1.0568 S= 0.6431
 <L.S>= 0.000000000000E+00
 Range of M.O.s used for correlation:     1    10
 NBasis=    10 NAE=    10 NBE=     0 NFC=     0 NFV=     0
 NROrb=     20 NOA=    10 NOB=     0 NVA=    10 NVB=     0
 jaja DoHack is true or false? T
 jaja in hckghf.F, NBasis=                      10
 jaja in hckGHF/FixOG, LC =                      800
 jaja in hckGHF/FixOG, IRwC=                      548
 bfr conversion (real):
                 1             2             3             4             5 
      1a  0.264191D-01  0.000000D+00  0.000000D+00  0.230245D+00  0.452456D+00
      1b  0.000000D+00  0.438130D-01 -0.769743D-01  0.000000D+00  0.000000D+00
      2a  0.402571D-01  0.000000D+00  0.000000D+00  0.218456D+00  0.204513D+00
      2b  0.000000D+00  0.234389D+00 -0.249208D+00  0.000000D+00  0.000000D+00
      3a  0.766587D-01  0.000000D+00  0.000000D+00  0.324283D+00  0.181993D+00
      3b  0.000000D+00  0.278231D+00 -0.229528D+00  0.000000D+00  0.000000D+00
      4a  0.110190D+00  0.000000D+00  0.000000D+00  0.264993D+00 -0.158396D+00
      4b  0.000000D+00  0.280490D+00 -0.794231D-01  0.000000D+00  0.000000D+00
      5a  0.127009D+00  0.000000D+00  0.000000D+00  0.173620D+00 -0.237952D+00
      5b  0.000000D+00  0.279646D+00  0.511645D-02  0.000000D+00  0.000000D+00
      6a  0.279646D+00  0.000000D+00  0.000000D+00  0.511645D-02 -0.379696D+00
      6b  0.000000D+00  0.127009D+00  0.173620D+00  0.000000D+00  0.000000D+00
      7a  0.280490D+00  0.000000D+00  0.000000D+00 -0.794231D-01 -0.203631D+00
      7b  0.000000D+00  0.110190D+00  0.264993D+00  0.000000D+00  0.000000D+00
      8a  0.278231D+00  0.000000D+00  0.000000D+00 -0.229528D+00  0.219972D+00
      8b  0.000000D+00  0.766587D-01  0.324283D+00  0.000000D+00  0.000000D+00
      9a  0.234389D+00  0.000000D+00  0.000000D+00 -0.249208D+00  0.415393D+00
      9b  0.000000D+00  0.402571D-01  0.218456D+00  0.000000D+00  0.000000D+00
     10a  0.438130D-01  0.000000D+00  0.000000D+00 -0.769743D-01  0.201441D+00
     10b  0.000000D+00  0.264191D-01  0.230245D+00  0.000000D+00  0.000000D+00
                 6             7             8             9            10 
      1a  0.000000D+00  0.000000D+00  0.706051D+00 -0.313224D-01  0.000000D+00
      1b  0.201441D+00 -0.310004D+00  0.000000D+00  0.000000D+00 -0.210440D+00
      2a  0.000000D+00  0.000000D+00 -0.269886D-01 -0.618193D-01  0.000000D+00
      2b  0.415393D+00 -0.335342D+00  0.000000D+00  0.000000D+00  0.578521D+00
      3a  0.000000D+00  0.000000D+00 -0.208919D+00  0.792000D-01  0.000000D+00
      3b  0.219972D+00  0.530845D-02  0.000000D+00  0.000000D+00 -0.679951D+00
      4a  0.000000D+00  0.000000D+00 -0.517888D+00 -0.159683D+00  0.000000D+00
      4b -0.203631D+00  0.467499D+00  0.000000D+00  0.000000D+00  0.690658D+00
      5a  0.000000D+00  0.000000D+00 -0.237387D+00  0.307561D+00  0.000000D+00
      5b -0.379696D+00  0.429958D+00  0.000000D+00  0.000000D+00 -0.578744D+00
      6a  0.000000D+00  0.000000D+00  0.429958D+00 -0.578744D+00  0.000000D+00
      6b -0.237952D+00 -0.237387D+00  0.000000D+00  0.000000D+00  0.307561D+00
      7a  0.000000D+00  0.000000D+00  0.467499D+00  0.690658D+00  0.000000D+00
      7b -0.158396D+00 -0.517888D+00  0.000000D+00  0.000000D+00 -0.159683D+00
      8a  0.000000D+00  0.000000D+00  0.530850D-02 -0.679951D+00  0.000000D+00
      8b  0.181993D+00 -0.208919D+00  0.000000D+00  0.000000D+00  0.792000D-01
      9a  0.000000D+00  0.000000D+00 -0.335342D+00  0.578521D+00  0.000000D+00
      9b  0.204513D+00 -0.269886D-01  0.000000D+00  0.000000D+00 -0.618193D-01
     10a  0.000000D+00  0.000000D+00 -0.310004D+00 -0.210440D+00  0.000000D+00
     10b  0.452456D+00  0.706051D+00  0.000000D+00  0.000000D+00 -0.313224D-01
                11            12            13            14            15 
      1a  0.000000D+00 -0.372470D+00  0.000000D+00 -0.606160D+00  0.000000D+00
      1b -0.604477D+00  0.000000D+00 -0.416523D+00  0.000000D+00  0.799402D+00
      2a  0.000000D+00  0.730983D+00  0.000000D+00  0.152115D+00  0.000000D+00
      2b  0.445584D+00  0.000000D+00 -0.446244D+00  0.000000D+00 -0.731334D+00
      3a  0.000000D+00 -0.237338D+00  0.000000D+00  0.850206D+00  0.000000D+00
      3b -0.400028D-01  0.000000D+00  0.856296D+00  0.000000D+00 -0.265121D+00
      4a  0.000000D+00  0.328199D+00  0.000000D+00 -0.581906D+00  0.000000D+00
      4b  0.114254D+00  0.000000D+00  0.198090D+00  0.000000D+00  0.767703D+00
      5a  0.000000D+00 -0.703638D+00  0.000000D+00  0.159639D-02  0.000000D+00
      5b  0.106032D+00  0.000000D+00 -0.376815D+00  0.000000D+00 -0.168329D+00
      6a  0.000000D+00  0.106032D+00  0.000000D+00 -0.376815D+00  0.000000D+00
      6b -0.703638D+00  0.000000D+00  0.159640D-02  0.000000D+00 -0.293027D-01
      7a  0.000000D+00  0.114254D+00  0.000000D+00  0.198090D+00  0.000000D+00
      7b  0.328199D+00  0.000000D+00 -0.581906D+00  0.000000D+00 -0.311761D+00
      8a  0.000000D+00 -0.400028D-01  0.000000D+00  0.856296D+00  0.000000D+00
      8b -0.237338D+00  0.000000D+00  0.850206D+00  0.000000D+00 -0.335268D+00
      9a  0.000000D+00  0.445584D+00  0.000000D+00 -0.446244D+00  0.000000D+00
      9b  0.730983D+00  0.000000D+00  0.152115D+00  0.000000D+00  0.841778D+00
     10a  0.000000D+00 -0.604477D+00  0.000000D+00 -0.416523D+00  0.000000D+00
     10b -0.372470D+00  0.000000D+00 -0.606160D+00  0.000000D+00 -0.302824D+00
                16            17            18            19            20 
      1a -0.302824D+00 -0.385387D+00  0.000000D+00  0.160354D+00  0.000000D+00
      1b  0.000000D+00  0.000000D+00  0.352242D+00  0.000000D+00  0.198005D+00
      2a  0.841778D+00 -0.158688D+00  0.000000D+00 -0.816760D+00  0.000000D+00
      2b  0.000000D+00  0.000000D+00  0.326009D+00  0.000000D+00 -0.527747D+00
      3a -0.335268D+00  0.100654D+01  0.000000D+00  0.464596D+00  0.000000D+00
      3b  0.000000D+00  0.000000D+00 -0.923815D+00  0.000000D+00  0.123359D+00
      4a -0.311761D+00 -0.494754D+00  0.000000D+00  0.112205D+01  0.000000D+00
      4b  0.000000D+00  0.000000D+00 -0.521643D-01  0.000000D+00  0.990994D+00
      5a -0.293027D-01 -0.706212D+00  0.000000D+00 -0.110014D+01  0.000000D+00
      5b  0.000000D+00  0.000000D+00  0.105354D+01  0.000000D+00 -0.652017D+00
      6a -0.168329D+00  0.105354D+01  0.000000D+00 -0.652017D+00  0.000000D+00
      6b  0.000000D+00  0.000000D+00 -0.706212D+00  0.000000D+00 -0.110014D+01
      7a  0.767703D+00 -0.521643D-01  0.000000D+00  0.990994D+00  0.000000D+00
      7b  0.000000D+00  0.000000D+00 -0.494754D+00  0.000000D+00  0.112205D+01
      8a -0.265121D+00 -0.923815D+00  0.000000D+00  0.123359D+00  0.000000D+00
      8b  0.000000D+00  0.000000D+00  0.100654D+01  0.000000D+00  0.464596D+00
      9a -0.731334D+00  0.326009D+00  0.000000D+00 -0.527747D+00  0.000000D+00
      9b  0.000000D+00  0.000000D+00 -0.158688D+00  0.000000D+00 -0.816760D+00
     10a  0.799402D+00  0.352242D+00  0.000000D+00  0.198005D+00  0.000000D+00
     10b  0.000000D+00  0.000000D+00 -0.385387D+00  0.000000D+00  0.160354D+00
 bfr conversion (imaginary):
                 1             2             3             4             5 
      1a  0.000000D+00  0.000000D+00  0.000000D+00  0.000000D+00  0.000000D+00
      1b  0.000000D+00  0.000000D+00  0.000000D+00  0.000000D+00  0.000000D+00
      2a  0.000000D+00  0.000000D+00  0.000000D+00  0.000000D+00  0.000000D+00
      2b  0.000000D+00  0.000000D+00  0.000000D+00  0.000000D+00  0.000000D+00
      3a  0.000000D+00  0.000000D+00  0.000000D+00  0.000000D+00  0.000000D+00
      3b  0.000000D+00  0.000000D+00  0.000000D+00  0.000000D+00  0.000000D+00
      4a  0.000000D+00  0.000000D+00  0.000000D+00  0.000000D+00  0.000000D+00
      4b  0.000000D+00  0.000000D+00  0.000000D+00  0.000000D+00  0.000000D+00
      5a  0.000000D+00  0.000000D+00  0.000000D+00  0.000000D+00  0.000000D+00
      5b  0.000000D+00  0.000000D+00  0.000000D+00  0.000000D+00  0.000000D+00
      6a  0.000000D+00  0.000000D+00  0.000000D+00  0.000000D+00  0.000000D+00
      6b  0.000000D+00  0.000000D+00  0.000000D+00  0.000000D+00  0.000000D+00
      7a  0.000000D+00  0.000000D+00  0.000000D+00  0.000000D+00  0.000000D+00
      7b  0.000000D+00  0.000000D+00  0.000000D+00  0.000000D+00  0.000000D+00
      8a  0.000000D+00  0.000000D+00  0.000000D+00  0.000000D+00  0.000000D+00
      8b  0.000000D+00  0.000000D+00  0.000000D+00  0.000000D+00  0.000000D+00
      9a  0.000000D+00  0.000000D+00  0.000000D+00  0.000000D+00  0.000000D+00
      9b  0.000000D+00  0.000000D+00  0.000000D+00  0.000000D+00  0.000000D+00
     10a  0.000000D+00  0.000000D+00  0.000000D+00  0.000000D+00  0.000000D+00
     10b  0.000000D+00  0.000000D+00  0.000000D+00  0.000000D+00  0.000000D+00
                 6             7             8             9            10 
      1a  0.000000D+00  0.000000D+00  0.000000D+00  0.000000D+00  0.000000D+00
      1b  0.000000D+00  0.000000D+00  0.000000D+00  0.000000D+00  0.000000D+00
      2a  0.000000D+00  0.000000D+00  0.000000D+00  0.000000D+00  0.000000D+00
      2b  0.000000D+00  0.000000D+00  0.000000D+00  0.000000D+00  0.000000D+00
      3a  0.000000D+00  0.000000D+00  0.000000D+00  0.000000D+00  0.000000D+00
      3b  0.000000D+00  0.000000D+00  0.000000D+00  0.000000D+00  0.000000D+00
      4a  0.000000D+00  0.000000D+00  0.000000D+00  0.000000D+00  0.000000D+00
      4b  0.000000D+00  0.000000D+00  0.000000D+00  0.000000D+00  0.000000D+00
      5a  0.000000D+00  0.000000D+00  0.000000D+00  0.000000D+00  0.000000D+00
      5b  0.000000D+00  0.000000D+00  0.000000D+00  0.000000D+00  0.000000D+00
      6a  0.000000D+00  0.000000D+00  0.000000D+00  0.000000D+00  0.000000D+00
      6b  0.000000D+00  0.000000D+00  0.000000D+00  0.000000D+00  0.000000D+00
      7a  0.000000D+00  0.000000D+00  0.000000D+00  0.000000D+00  0.000000D+00
      7b  0.000000D+00  0.000000D+00  0.000000D+00  0.000000D+00  0.000000D+00
      8a  0.000000D+00  0.000000D+00  0.000000D+00  0.000000D+00  0.000000D+00
      8b  0.000000D+00  0.000000D+00  0.000000D+00  0.000000D+00  0.000000D+00
      9a  0.000000D+00  0.000000D+00  0.000000D+00  0.000000D+00  0.000000D+00
      9b  0.000000D+00  0.000000D+00  0.000000D+00  0.000000D+00  0.000000D+00
     10a  0.000000D+00  0.000000D+00  0.000000D+00  0.000000D+00  0.000000D+00
     10b  0.000000D+00  0.000000D+00  0.000000D+00  0.000000D+00  0.000000D+00
                11            12            13            14            15 
      1a  0.000000D+00  0.000000D+00  0.000000D+00  0.000000D+00  0.000000D+00
      1b  0.000000D+00  0.000000D+00  0.000000D+00  0.000000D+00  0.000000D+00
      2a  0.000000D+00  0.000000D+00  0.000000D+00  0.000000D+00  0.000000D+00
      2b  0.000000D+00  0.000000D+00  0.000000D+00  0.000000D+00  0.000000D+00
      3a  0.000000D+00  0.000000D+00  0.000000D+00  0.000000D+00  0.000000D+00
      3b  0.000000D+00  0.000000D+00  0.000000D+00  0.000000D+00  0.000000D+00
      4a  0.000000D+00  0.000000D+00  0.000000D+00  0.000000D+00  0.000000D+00
      4b  0.000000D+00  0.000000D+00  0.000000D+00  0.000000D+00  0.000000D+00
      5a  0.000000D+00  0.000000D+00  0.000000D+00  0.000000D+00  0.000000D+00
      5b  0.000000D+00  0.000000D+00  0.000000D+00  0.000000D+00  0.000000D+00
      6a  0.000000D+00  0.000000D+00  0.000000D+00  0.000000D+00  0.000000D+00
      6b  0.000000D+00  0.000000D+00  0.000000D+00  0.000000D+00  0.000000D+00
      7a  0.000000D+00  0.000000D+00  0.000000D+00  0.000000D+00  0.000000D+00
      7b  0.000000D+00  0.000000D+00  0.000000D+00  0.000000D+00  0.000000D+00
      8a  0.000000D+00  0.000000D+00  0.000000D+00  0.000000D+00  0.000000D+00
      8b  0.000000D+00  0.000000D+00  0.000000D+00  0.000000D+00  0.000000D+00
      9a  0.000000D+00  0.000000D+00  0.000000D+00  0.000000D+00  0.000000D+00
      9b  0.000000D+00  0.000000D+00  0.000000D+00  0.000000D+00  0.000000D+00
     10a  0.000000D+00  0.000000D+00  0.000000D+00  0.000000D+00  0.000000D+00
     10b  0.000000D+00  0.000000D+00  0.000000D+00  0.000000D+00  0.000000D+00
                16            17            18            19            20 
      1a  0.000000D+00  0.000000D+00  0.000000D+00  0.000000D+00  0.000000D+00
      1b  0.000000D+00  0.000000D+00  0.000000D+00  0.000000D+00  0.000000D+00
      2a  0.000000D+00  0.000000D+00  0.000000D+00  0.000000D+00  0.000000D+00
      2b  0.000000D+00  0.000000D+00  0.000000D+00  0.000000D+00  0.000000D+00
      3a  0.000000D+00  0.000000D+00  0.000000D+00  0.000000D+00  0.000000D+00
      3b  0.000000D+00  0.000000D+00  0.000000D+00  0.000000D+00  0.000000D+00
      4a  0.000000D+00  0.000000D+00  0.000000D+00  0.000000D+00  0.000000D+00
      4b  0.000000D+00  0.000000D+00  0.000000D+00  0.000000D+00  0.000000D+00
      5a  0.000000D+00  0.000000D+00  0.000000D+00  0.000000D+00  0.000000D+00
      5b  0.000000D+00  0.000000D+00  0.000000D+00  0.000000D+00  0.000000D+00
      6a  0.000000D+00  0.000000D+00  0.000000D+00  0.000000D+00  0.000000D+00
      6b  0.000000D+00  0.000000D+00  0.000000D+00  0.000000D+00  0.000000D+00
      7a  0.000000D+00  0.000000D+00  0.000000D+00  0.000000D+00  0.000000D+00
      7b  0.000000D+00  0.000000D+00  0.000000D+00  0.000000D+00  0.000000D+00
      8a  0.000000D+00  0.000000D+00  0.000000D+00  0.000000D+00  0.000000D+00
      8b  0.000000D+00  0.000000D+00  0.000000D+00  0.000000D+00  0.000000D+00
      9a  0.000000D+00  0.000000D+00  0.000000D+00  0.000000D+00  0.000000D+00
      9b  0.000000D+00  0.000000D+00  0.000000D+00  0.000000D+00  0.000000D+00
     10a  0.000000D+00  0.000000D+00  0.000000D+00  0.000000D+00  0.000000D+00
     10b  0.000000D+00  0.000000D+00  0.000000D+00  0.000000D+00  0.000000D+00
 afr conversion (alpha, real):
                 1             2             3             4             5 
      1   0.264191D-01  0.000000D+00  0.000000D+00  0.230245D+00  0.452456D+00
      2   0.402571D-01  0.000000D+00  0.000000D+00  0.218456D+00  0.204513D+00
      3   0.766587D-01  0.000000D+00  0.000000D+00  0.324283D+00  0.181993D+00
      4   0.110190D+00  0.000000D+00  0.000000D+00  0.264993D+00 -0.158396D+00
      5   0.127009D+00  0.000000D+00  0.000000D+00  0.173620D+00 -0.237952D+00
      6   0.279646D+00  0.000000D+00  0.000000D+00  0.511645D-02 -0.379696D+00
      7   0.280490D+00  0.000000D+00  0.000000D+00 -0.794231D-01 -0.203631D+00
      8   0.278231D+00  0.000000D+00  0.000000D+00 -0.229528D+00  0.219972D+00
      9   0.234389D+00  0.000000D+00  0.000000D+00 -0.249208D+00  0.415393D+00
     10   0.438130D-01  0.000000D+00  0.000000D+00 -0.769743D-01  0.201441D+00
                 6             7             8             9            10 
      1   0.000000D+00  0.000000D+00  0.706051D+00 -0.313224D-01  0.000000D+00
      2   0.000000D+00  0.000000D+00 -0.269886D-01 -0.618193D-01  0.000000D+00
      3   0.000000D+00  0.000000D+00 -0.208919D+00  0.792000D-01  0.000000D+00
      4   0.000000D+00  0.000000D+00 -0.517888D+00 -0.159683D+00  0.000000D+00
      5   0.000000D+00  0.000000D+00 -0.237387D+00  0.307561D+00  0.000000D+00
      6   0.000000D+00  0.000000D+00  0.429958D+00 -0.578744D+00  0.000000D+00
      7   0.000000D+00  0.000000D+00  0.467499D+00  0.690658D+00  0.000000D+00
      8   0.000000D+00  0.000000D+00  0.530850D-02 -0.679951D+00  0.000000D+00
      9   0.000000D+00  0.000000D+00 -0.335342D+00  0.578521D+00  0.000000D+00
     10   0.000000D+00  0.000000D+00 -0.310004D+00 -0.210440D+00  0.000000D+00
                11            12            13            14            15 
      1   0.000000D+00 -0.372470D+00  0.000000D+00 -0.606160D+00  0.000000D+00
      2   0.000000D+00  0.730983D+00  0.000000D+00  0.152115D+00  0.000000D+00
      3   0.000000D+00 -0.237338D+00  0.000000D+00  0.850206D+00  0.000000D+00
      4   0.000000D+00  0.328199D+00  0.000000D+00 -0.581906D+00  0.000000D+00
      5   0.000000D+00 -0.703638D+00  0.000000D+00  0.159639D-02  0.000000D+00
      6   0.000000D+00  0.106032D+00  0.000000D+00 -0.376815D+00  0.000000D+00
      7   0.000000D+00  0.114254D+00  0.000000D+00  0.198090D+00  0.000000D+00
      8   0.000000D+00 -0.400028D-01  0.000000D+00  0.856296D+00  0.000000D+00
      9   0.000000D+00  0.445584D+00  0.000000D+00 -0.446244D+00  0.000000D+00
     10   0.000000D+00 -0.604477D+00  0.000000D+00 -0.416523D+00  0.000000D+00
                16            17            18            19            20 
      1  -0.302824D+00 -0.385387D+00  0.000000D+00  0.160354D+00  0.000000D+00
      2   0.841778D+00 -0.158688D+00  0.000000D+00 -0.816760D+00  0.000000D+00
      3  -0.335268D+00  0.100654D+01  0.000000D+00  0.464596D+00  0.000000D+00
      4  -0.311761D+00 -0.494754D+00  0.000000D+00  0.112205D+01  0.000000D+00
      5  -0.293027D-01 -0.706212D+00  0.000000D+00 -0.110014D+01  0.000000D+00
      6  -0.168329D+00  0.105354D+01  0.000000D+00 -0.652017D+00  0.000000D+00
      7   0.767703D+00 -0.521643D-01  0.000000D+00  0.990994D+00  0.000000D+00
      8  -0.265121D+00 -0.923815D+00  0.000000D+00  0.123359D+00  0.000000D+00
      9  -0.731334D+00  0.326009D+00  0.000000D+00 -0.527747D+00  0.000000D+00
     10   0.799402D+00  0.352242D+00  0.000000D+00  0.198005D+00  0.000000D+00
 afr conversion (alpha, imaginary):
                 1             2             3             4             5 
      1   0.000000D+00  0.000000D+00  0.000000D+00  0.000000D+00  0.000000D+00
      2   0.000000D+00  0.000000D+00  0.000000D+00  0.000000D+00  0.000000D+00
      3   0.000000D+00  0.000000D+00  0.000000D+00  0.000000D+00  0.000000D+00
      4   0.000000D+00  0.000000D+00  0.000000D+00  0.000000D+00  0.000000D+00
      5   0.000000D+00  0.000000D+00  0.000000D+00  0.000000D+00  0.000000D+00
      6   0.000000D+00  0.000000D+00  0.000000D+00  0.000000D+00  0.000000D+00
      7   0.000000D+00  0.000000D+00  0.000000D+00  0.000000D+00  0.000000D+00
      8   0.000000D+00  0.000000D+00  0.000000D+00  0.000000D+00  0.000000D+00
      9   0.000000D+00  0.000000D+00  0.000000D+00  0.000000D+00  0.000000D+00
     10   0.000000D+00  0.000000D+00  0.000000D+00  0.000000D+00  0.000000D+00
                 6             7             8             9            10 
      1   0.000000D+00  0.000000D+00  0.000000D+00  0.000000D+00  0.000000D+00
      2   0.000000D+00  0.000000D+00  0.000000D+00  0.000000D+00  0.000000D+00
      3   0.000000D+00  0.000000D+00  0.000000D+00  0.000000D+00  0.000000D+00
      4   0.000000D+00  0.000000D+00  0.000000D+00  0.000000D+00  0.000000D+00
      5   0.000000D+00  0.000000D+00  0.000000D+00  0.000000D+00  0.000000D+00
      6   0.000000D+00  0.000000D+00  0.000000D+00  0.000000D+00  0.000000D+00
      7   0.000000D+00  0.000000D+00  0.000000D+00  0.000000D+00  0.000000D+00
      8   0.000000D+00  0.000000D+00  0.000000D+00  0.000000D+00  0.000000D+00
      9   0.000000D+00  0.000000D+00  0.000000D+00  0.000000D+00  0.000000D+00
     10   0.000000D+00  0.000000D+00  0.000000D+00  0.000000D+00  0.000000D+00
                11            12            13            14            15 
      1   0.000000D+00  0.000000D+00  0.000000D+00  0.000000D+00  0.000000D+00
      2   0.000000D+00  0.000000D+00  0.000000D+00  0.000000D+00  0.000000D+00
      3   0.000000D+00  0.000000D+00  0.000000D+00  0.000000D+00  0.000000D+00
      4   0.000000D+00  0.000000D+00  0.000000D+00  0.000000D+00  0.000000D+00
      5   0.000000D+00  0.000000D+00  0.000000D+00  0.000000D+00  0.000000D+00
      6   0.000000D+00  0.000000D+00  0.000000D+00  0.000000D+00  0.000000D+00
      7   0.000000D+00  0.000000D+00  0.000000D+00  0.000000D+00  0.000000D+00
      8   0.000000D+00  0.000000D+00  0.000000D+00  0.000000D+00  0.000000D+00
      9   0.000000D+00  0.000000D+00  0.000000D+00  0.000000D+00  0.000000D+00
     10   0.000000D+00  0.000000D+00  0.000000D+00  0.000000D+00  0.000000D+00
                16            17            18            19            20 
      1   0.000000D+00  0.000000D+00  0.000000D+00  0.000000D+00  0.000000D+00
      2   0.000000D+00  0.000000D+00  0.000000D+00  0.000000D+00  0.000000D+00
      3   0.000000D+00  0.000000D+00  0.000000D+00  0.000000D+00  0.000000D+00
      4   0.000000D+00  0.000000D+00  0.000000D+00  0.000000D+00  0.000000D+00
      5   0.000000D+00  0.000000D+00  0.000000D+00  0.000000D+00  0.000000D+00
      6   0.000000D+00  0.000000D+00  0.000000D+00  0.000000D+00  0.000000D+00
      7   0.000000D+00  0.000000D+00  0.000000D+00  0.000000D+00  0.000000D+00
      8   0.000000D+00  0.000000D+00  0.000000D+00  0.000000D+00  0.000000D+00
      9   0.000000D+00  0.000000D+00  0.000000D+00  0.000000D+00  0.000000D+00
     10   0.000000D+00  0.000000D+00  0.000000D+00  0.000000D+00  0.000000D+00
 afr conversion (beta, real):
                 1             2             3             4             5 
      1   0.000000D+00  0.438130D-01 -0.769743D-01  0.000000D+00  0.000000D+00
      2   0.000000D+00  0.234389D+00 -0.249208D+00  0.000000D+00  0.000000D+00
      3   0.000000D+00  0.278231D+00 -0.229528D+00  0.000000D+00  0.000000D+00
      4   0.000000D+00  0.280490D+00 -0.794231D-01  0.000000D+00  0.000000D+00
      5   0.000000D+00  0.279646D+00  0.511645D-02  0.000000D+00  0.000000D+00
      6   0.000000D+00  0.127009D+00  0.173620D+00  0.000000D+00  0.000000D+00
      7   0.000000D+00  0.110190D+00  0.264993D+00  0.000000D+00  0.000000D+00
      8   0.000000D+00  0.766587D-01  0.324283D+00  0.000000D+00  0.000000D+00
      9   0.000000D+00  0.402571D-01  0.218456D+00  0.000000D+00  0.000000D+00
     10   0.000000D+00  0.264191D-01  0.230245D+00  0.000000D+00  0.000000D+00
                 6             7             8             9            10 
      1   0.201441D+00 -0.310004D+00  0.000000D+00  0.000000D+00 -0.210440D+00
      2   0.415393D+00 -0.335342D+00  0.000000D+00  0.000000D+00  0.578521D+00
      3   0.219972D+00  0.530845D-02  0.000000D+00  0.000000D+00 -0.679951D+00
      4  -0.203631D+00  0.467499D+00  0.000000D+00  0.000000D+00  0.690658D+00
      5  -0.379696D+00  0.429958D+00  0.000000D+00  0.000000D+00 -0.578744D+00
      6  -0.237952D+00 -0.237387D+00  0.000000D+00  0.000000D+00  0.307561D+00
      7  -0.158396D+00 -0.517888D+00  0.000000D+00  0.000000D+00 -0.159683D+00
      8   0.181993D+00 -0.208919D+00  0.000000D+00  0.000000D+00  0.792000D-01
      9   0.204513D+00 -0.269886D-01  0.000000D+00  0.000000D+00 -0.618193D-01
     10   0.452456D+00  0.706051D+00  0.000000D+00  0.000000D+00 -0.313224D-01
                11            12            13            14            15 
      1  -0.604477D+00  0.000000D+00 -0.416523D+00  0.000000D+00  0.799402D+00
      2   0.445584D+00  0.000000D+00 -0.446244D+00  0.000000D+00 -0.731334D+00
      3  -0.400028D-01  0.000000D+00  0.856296D+00  0.000000D+00 -0.265121D+00
      4   0.114254D+00  0.000000D+00  0.198090D+00  0.000000D+00  0.767703D+00
      5   0.106032D+00  0.000000D+00 -0.376815D+00  0.000000D+00 -0.168329D+00
      6  -0.703638D+00  0.000000D+00  0.159640D-02  0.000000D+00 -0.293027D-01
      7   0.328199D+00  0.000000D+00 -0.581906D+00  0.000000D+00 -0.311761D+00
      8  -0.237338D+00  0.000000D+00  0.850206D+00  0.000000D+00 -0.335268D+00
      9   0.730983D+00  0.000000D+00  0.152115D+00  0.000000D+00  0.841778D+00
     10  -0.372470D+00  0.000000D+00 -0.606160D+00  0.000000D+00 -0.302824D+00
                16            17            18            19            20 
      1   0.000000D+00  0.000000D+00  0.352242D+00  0.000000D+00  0.198005D+00
      2   0.000000D+00  0.000000D+00  0.326009D+00  0.000000D+00 -0.527747D+00
      3   0.000000D+00  0.000000D+00 -0.923815D+00  0.000000D+00  0.123359D+00
      4   0.000000D+00  0.000000D+00 -0.521643D-01  0.000000D+00  0.990994D+00
      5   0.000000D+00  0.000000D+00  0.105354D+01  0.000000D+00 -0.652017D+00
      6   0.000000D+00  0.000000D+00 -0.706212D+00  0.000000D+00 -0.110014D+01
      7   0.000000D+00  0.000000D+00 -0.494754D+00  0.000000D+00  0.112205D+01
      8   0.000000D+00  0.000000D+00  0.100654D+01  0.000000D+00  0.464596D+00
      9   0.000000D+00  0.000000D+00 -0.158688D+00  0.000000D+00 -0.816760D+00
     10   0.000000D+00  0.000000D+00 -0.385387D+00  0.000000D+00  0.160354D+00
 afr conversion (beta, imaginary):
                 1             2             3             4             5 
      1   0.000000D+00  0.000000D+00  0.000000D+00  0.000000D+00  0.000000D+00
      2   0.000000D+00  0.000000D+00  0.000000D+00  0.000000D+00  0.000000D+00
      3   0.000000D+00  0.000000D+00  0.000000D+00  0.000000D+00  0.000000D+00
      4   0.000000D+00  0.000000D+00  0.000000D+00  0.000000D+00  0.000000D+00
      5   0.000000D+00  0.000000D+00  0.000000D+00  0.000000D+00  0.000000D+00
      6   0.000000D+00  0.000000D+00  0.000000D+00  0.000000D+00  0.000000D+00
      7   0.000000D+00  0.000000D+00  0.000000D+00  0.000000D+00  0.000000D+00
      8   0.000000D+00  0.000000D+00  0.000000D+00  0.000000D+00  0.000000D+00
      9   0.000000D+00  0.000000D+00  0.000000D+00  0.000000D+00  0.000000D+00
     10   0.000000D+00  0.000000D+00  0.000000D+00  0.000000D+00  0.000000D+00
                 6             7             8             9            10 
      1   0.000000D+00  0.000000D+00  0.000000D+00  0.000000D+00  0.000000D+00
      2   0.000000D+00  0.000000D+00  0.000000D+00  0.000000D+00  0.000000D+00
      3   0.000000D+00  0.000000D+00  0.000000D+00  0.000000D+00  0.000000D+00
      4   0.000000D+00  0.000000D+00  0.000000D+00  0.000000D+00  0.000000D+00
      5   0.000000D+00  0.000000D+00  0.000000D+00  0.000000D+00  0.000000D+00
      6   0.000000D+00  0.000000D+00  0.000000D+00  0.000000D+00  0.000000D+00
      7   0.000000D+00  0.000000D+00  0.000000D+00  0.000000D+00  0.000000D+00
      8   0.000000D+00  0.000000D+00  0.000000D+00  0.000000D+00  0.000000D+00
      9   0.000000D+00  0.000000D+00  0.000000D+00  0.000000D+00  0.000000D+00
     10   0.000000D+00  0.000000D+00  0.000000D+00  0.000000D+00  0.000000D+00
                11            12            13            14            15 
      1   0.000000D+00  0.000000D+00  0.000000D+00  0.000000D+00  0.000000D+00
      2   0.000000D+00  0.000000D+00  0.000000D+00  0.000000D+00  0.000000D+00
      3   0.000000D+00  0.000000D+00  0.000000D+00  0.000000D+00  0.000000D+00
      4   0.000000D+00  0.000000D+00  0.000000D+00  0.000000D+00  0.000000D+00
      5   0.000000D+00  0.000000D+00  0.000000D+00  0.000000D+00  0.000000D+00
      6   0.000000D+00  0.000000D+00  0.000000D+00  0.000000D+00  0.000000D+00
      7   0.000000D+00  0.000000D+00  0.000000D+00  0.000000D+00  0.000000D+00
      8   0.000000D+00  0.000000D+00  0.000000D+00  0.000000D+00  0.000000D+00
      9   0.000000D+00  0.000000D+00  0.000000D+00  0.000000D+00  0.000000D+00
     10   0.000000D+00  0.000000D+00  0.000000D+00  0.000000D+00  0.000000D+00
                16            17            18            19            20 
      1   0.000000D+00  0.000000D+00  0.000000D+00  0.000000D+00  0.000000D+00
      2   0.000000D+00  0.000000D+00  0.000000D+00  0.000000D+00  0.000000D+00
      3   0.000000D+00  0.000000D+00  0.000000D+00  0.000000D+00  0.000000D+00
      4   0.000000D+00  0.000000D+00  0.000000D+00  0.000000D+00  0.000000D+00
      5   0.000000D+00  0.000000D+00  0.000000D+00  0.000000D+00  0.000000D+00
      6   0.000000D+00  0.000000D+00  0.000000D+00  0.000000D+00  0.000000D+00
      7   0.000000D+00  0.000000D+00  0.000000D+00  0.000000D+00  0.000000D+00
      8   0.000000D+00  0.000000D+00  0.000000D+00  0.000000D+00  0.000000D+00
      9   0.000000D+00  0.000000D+00  0.000000D+00  0.000000D+00  0.000000D+00
     10   0.000000D+00  0.000000D+00  0.000000D+00  0.000000D+00  0.000000D+00
 jaja in hckghf.F, ISPECT =                     548
Spin block MO for GHF transformation
NOA =   10   NOB =   10
NVA =   10   NVB =   10
 NOAvA in Hack                     100
 jaja in tranN3.F, ISPECT =                     548
 in l802/tranN3.F, LSPECT =                      800
 NMat, NBtSiz,MDV                    8372                   16000
                133954722
 TranN3:  NGot= 134217728 NBasic=    263006 NTTT=       550 NMat=      8372.
 Defined bucket =                      51                   10000
 Defined bucket =                      52                   10000
 Defined bucket =                      53                   10000
 Defined bucket =                      55                   10000
 Defined bucket =                      57                   10000
 Defined bucket =                      58                   10000
 Defined bucket =                      60                   10000
 Defined bucket =                      72                   10000
 Defined bucket =                      73                   10000
 Defined bucket =                      74                   10000
 Defined bucket =                      75                   10000
 Defined bucket =                      76                   10000
 (IK/LS) integrals will be saved in memory.
 TrCghf made   2 passes through the AO integrals.
 jaja DoHack is true or false? F
 jaja in hckghf.F, NBasis=                      10
 jaja in hckGHF/FixOG, LC =                      800
 jaja in hckGHF/FixOG, IRwC=                      548
 bfr conversion (alpha, real):
                 1             2             3             4             5 
[...]
      6b-0.101466D+00  0.262173D-02  0.128648D-01 -0.136219D+00  0.475214D-01
      7a 0.290960D+00 -0.621405D-01 -0.152378D+00  0.602762D-01 -0.275659D+00
      7b 0.217705D-01  0.532630D-01  0.575947D-01 -0.328706D-01  0.378368D-01
      8a 0.173625D+00 -0.306268D-01  0.517414D-01  0.489694D-01 -0.375104D-01
      8b 0.181162D-01  0.770456D-01  0.266084D-01  0.767153D-01 -0.515698D-02
      9a-0.445574D-01  0.795803D-01  0.133902D+00 -0.204969D-01  0.200511D+00
      9b 0.929411D-01  0.327774D-02 -0.125611D-01  0.930735D-01 -0.813985D-01
     10a-0.152879D+00  0.343158D-01  0.709989D-01 -0.359132D-01  0.151793D+00
     10b-0.601824D-01 -0.270565D-01 -0.220805D-01  0.550421D-02  0.369180D-01
                3b            4a            4b            5a            5b
      3b 0.414114D+00
      4a-0.203800D+00  0.746633D+00
      4b-0.366245D-01  0.722775D-01  0.516289D+00
      5a-0.719161D-01  0.415452D+00  0.904412D-01  0.421213D+00
      5b 0.104654D-01  0.549184D-01  0.386383D+00  0.164540D+00  0.611261D+00
      6a-0.241403D-02 -0.151459D+00  0.124065D+00  0.255322D-01  0.431448D-02
      6b-0.159550D+00  0.100008D+00  0.128178D-01  0.339204D-01  0.868880D-01
      7a 0.107221D+00 -0.406668D+00 -0.405365D-02  0.371279D-01 -0.740132D-01
      7b-0.125237D+00  0.738234D-02 -0.190360D+00 -0.998795D-01 -0.495613D-01
      8a-0.133685D-01 -0.133778D+00 -0.434675D-01 -0.281068D+00 -0.773186D-02
      8b-0.193760D-01 -0.696739D-01 -0.180594D+00  0.787654D-02 -0.187021D+00
      9a-0.202010D-02 -0.325975D-02 -0.122509D+00 -0.998306D-01 -0.345499D-01
      9b 0.126942D-01 -0.807174D-01 -0.712066D-01 -0.408624D-01 -0.124299D+00
     10a-0.233433D-01  0.171139D+00  0.443451D-02 -0.237842D-01  0.223733D-01
     10b 0.841277D-01  0.446403D-01  0.102318D+00  0.617659D-01 -0.111005D-01
                6a            6b            7a            7b            8a
      6a 0.991562D+00
      6b-0.256948D+00  0.319208D+00
      7a 0.494319D+00 -0.944019D-01  0.872802D+00
      7b-0.224380D-01  0.270409D+00 -0.125361D+00  0.496270D+00
      8a 0.650594D-01  0.134084D-01 -0.204986D+00  0.205600D+00  0.596241D+00
      8b-0.113842D-01  0.104231D+00  0.210675D+00  0.180668D+00 -0.126467D+00
      9a-0.757421D+00  0.251952D+00 -0.197112D+00  0.512508D-01  0.286512D+00
      9b 0.300748D+00 -0.957542D-01  0.125788D+00  0.790163D-01 -0.376000D-01
     10a-0.364646D+00  0.109526D-01 -0.393024D+00 -0.354149D-01  0.199692D+00
     10b-0.158484D+00 -0.231845D+00 -0.637407D-01 -0.352996D+00 -0.884597D-01
                8b            9a            9b           10a           10b
      8b 0.357977D+00
      9a-0.181197D-01  0.105396D+01
      9b 0.194570D+00 -0.368221D+00  0.288220D+00
     10a-0.485399D-01  0.375971D+00 -0.688808D-01  0.393387D+00
     10b 0.131381D+00  0.796844D-01  0.175632D+00  0.390007D+00  0.101534D+01
 jaja lower-tri density matrix (imaginary):
                1a            1b            2a            2b            3a
      1a 0.000000D+00
      1b 0.000000D+00  0.000000D+00
      2a 0.000000D+00  0.000000D+00  0.000000D+00
      2b 0.000000D+00  0.000000D+00  0.000000D+00  0.000000D+00
      3a 0.000000D+00  0.000000D+00  0.000000D+00  0.000000D+00  0.000000D+00
      3b 0.000000D+00  0.000000D+00  0.000000D+00  0.000000D+00  0.000000D+00
      4a 0.000000D+00  0.000000D+00  0.000000D+00  0.000000D+00  0.000000D+00
      4b 0.000000D+00  0.000000D+00  0.000000D+00  0.000000D+00  0.000000D+00
      5a 0.000000D+00  0.000000D+00  0.000000D+00  0.000000D+00  0.000000D+00
      5b 0.000000D+00  0.000000D+00  0.000000D+00  0.000000D+00  0.000000D+00
      6a 0.000000D+00  0.000000D+00  0.000000D+00  0.000000D+00  0.000000D+00
      6b 0.000000D+00  0.000000D+00  0.000000D+00  0.000000D+00  0.000000D+00
      7a 0.000000D+00  0.000000D+00  0.000000D+00  0.000000D+00  0.000000D+00
      7b 0.000000D+00  0.000000D+00  0.000000D+00  0.000000D+00  0.000000D+00
      8a 0.000000D+00  0.000000D+00  0.000000D+00  0.000000D+00  0.000000D+00
      8b 0.000000D+00  0.000000D+00  0.000000D+00  0.000000D+00  0.000000D+00
      9a 0.000000D+00  0.000000D+00  0.000000D+00  0.000000D+00  0.000000D+00
      9b 0.000000D+00  0.000000D+00  0.000000D+00  0.000000D+00  0.000000D+00
     10a 0.000000D+00  0.000000D+00  0.000000D+00  0.000000D+00  0.000000D+00
     10b 0.000000D+00  0.000000D+00  0.000000D+00  0.000000D+00  0.000000D+00
                3b            4a            4b            5a            5b
      3b 0.000000D+00
      4a 0.000000D+00  0.000000D+00
      4b 0.000000D+00  0.000000D+00  0.000000D+00
      5a 0.000000D+00  0.000000D+00  0.000000D+00  0.000000D+00
      5b 0.000000D+00  0.000000D+00  0.000000D+00  0.000000D+00  0.000000D+00
      6a 0.000000D+00  0.000000D+00  0.000000D+00  0.000000D+00  0.000000D+00
      6b 0.000000D+00  0.000000D+00  0.000000D+00  0.000000D+00  0.000000D+00
      7a 0.000000D+00  0.000000D+00  0.000000D+00  0.000000D+00  0.000000D+00
      7b 0.000000D+00  0.000000D+00  0.000000D+00  0.000000D+00  0.000000D+00
      8a 0.000000D+00  0.000000D+00  0.000000D+00  0.000000D+00  0.000000D+00
      8b 0.000000D+00  0.000000D+00  0.000000D+00  0.000000D+00  0.000000D+00
      9a 0.000000D+00  0.000000D+00  0.000000D+00  0.000000D+00  0.000000D+00
      9b 0.000000D+00  0.000000D+00  0.000000D+00  0.000000D+00  0.000000D+00
     10a 0.000000D+00  0.000000D+00  0.000000D+00  0.000000D+00  0.000000D+00
     10b 0.000000D+00  0.000000D+00  0.000000D+00  0.000000D+00  0.000000D+00
                6a            6b            7a            7b            8a
      6a 0.000000D+00
      6b 0.000000D+00  0.000000D+00
      7a 0.000000D+00  0.000000D+00  0.000000D+00
      7b 0.000000D+00  0.000000D+00  0.000000D+00  0.000000D+00
      8a 0.000000D+00  0.000000D+00  0.000000D+00  0.000000D+00  0.000000D+00
      8b 0.000000D+00  0.000000D+00  0.000000D+00  0.000000D+00  0.000000D+00
      9a 0.000000D+00  0.000000D+00  0.000000D+00  0.000000D+00  0.000000D+00
      9b 0.000000D+00  0.000000D+00  0.000000D+00  0.000000D+00  0.000000D+00
     10a 0.000000D+00  0.000000D+00  0.000000D+00  0.000000D+00  0.000000D+00
     10b 0.000000D+00  0.000000D+00  0.000000D+00  0.000000D+00  0.000000D+00
                8b            9a            9b           10a           10b
      8b 0.000000D+00
      9a 0.000000D+00  0.000000D+00
      9b 0.000000D+00  0.000000D+00  0.000000D+00
     10a 0.000000D+00  0.000000D+00  0.000000D+00  0.000000D+00
     10b 0.000000D+00  0.000000D+00  0.000000D+00  0.000000D+00  0.000000D+00
 jaja non-ortho density matrix               [Gau-style] (real):
                 1             2             3             4             5 
      1a  0.159849D+01 -0.499513D+00  0.279475D+00  0.531552D-01  0.106088D+00
      1b -0.499513D+00  0.306561D+00  0.150476D-01  0.231821D+00  0.304358D-01
      2a  0.279475D+00  0.150476D-01  0.288687D+00  0.253301D+00  0.264860D+00
      2b  0.531552D-01  0.231821D+00  0.253301D+00  0.702266D+00  0.437389D-01
      3a  0.106088D+00  0.304358D-01  0.264860D+00  0.437389D-01  0.424055D+00
      3b  0.185569D+00  0.933023D-01  0.829575D-01  0.319417D+00  0.557582D-01
      4a -0.701776D+00  0.155572D+00  0.671732D-01 -0.992812D-01  0.288533D+00
      4b -0.254177D-01 -0.192304D+00 -0.122059D+00 -0.123756D+00 -0.141685D+00
      5a -0.474519D+00  0.781884D-01 -0.883149D-01 -0.190830D+00  0.117473D+00
      5b  0.628335D-01 -0.221507D+00 -0.169892D+00 -0.401116D+00 -0.148500D-01
      6a  0.982840D-01 -0.827515D-01 -0.189930D+00  0.521919D-01 -0.334515D+00
      6b -0.101466D+00  0.262173D-02  0.128648D-01 -0.136219D+00  0.475214D-01
      7a  0.290960D+00 -0.621405D-01 -0.152378D+00  0.602762D-01 -0.275659D+00
      7b  0.217705D-01  0.532630D-01  0.575947D-01 -0.328706D-01  0.378368D-01
      8a  0.173625D+00 -0.306268D-01  0.517414D-01  0.489694D-01 -0.375104D-01
      8b  0.181162D-01  0.770456D-01  0.266084D-01  0.767153D-01 -0.515698D-02
      9a -0.445574D-01  0.795803D-01  0.133902D+00 -0.204969D-01  0.200511D+00
      9b  0.929411D-01  0.327774D-02 -0.125611D-01  0.930735D-01 -0.813985D-01
     10a -0.152879D+00  0.343158D-01  0.709989D-01 -0.359132D-01  0.151793D+00
     10b -0.601824D-01 -0.270565D-01 -0.220805D-01  0.550421D-02  0.369180D-01
                 6             7             8             9            10 
      1a  0.185569D+00 -0.701776D+00 -0.254177D-01 -0.474519D+00  0.628335D-01
      1b  0.933023D-01  0.155572D+00 -0.192304D+00  0.781884D-01 -0.221507D+00
      2a  0.829575D-01  0.671732D-01 -0.122059D+00 -0.883149D-01 -0.169892D+00
      2b  0.319417D+00 -0.992812D-01 -0.123756D+00 -0.190830D+00 -0.401116D+00
      3a  0.557582D-01  0.288533D+00 -0.141685D+00  0.117473D+00 -0.148500D-01
      3b  0.414114D+00 -0.203800D+00 -0.366245D-01 -0.719161D-01  0.104654D-01
      4a -0.203800D+00  0.746633D+00  0.722775D-01  0.415452D+00  0.549184D-01
      4b -0.366245D-01  0.722775D-01  0.516289D+00  0.904412D-01  0.386383D+00
      5a -0.719161D-01  0.415452D+00  0.904412D-01  0.421213D+00  0.164540D+00
      5b  0.104654D-01  0.549184D-01  0.386383D+00  0.164540D+00  0.611261D+00
      6a -0.241403D-02 -0.151459D+00  0.124065D+00  0.255322D-01  0.431448D-02
      6b -0.159550D+00  0.100008D+00  0.128178D-01  0.339204D-01  0.868880D-01
      7a  0.107221D+00 -0.406668D+00 -0.405365D-02  0.371279D-01 -0.740132D-01
      7b -0.125237D+00  0.738234D-02 -0.190360D+00 -0.998795D-01 -0.495613D-01
      8a -0.133685D-01 -0.133778D+00 -0.434675D-01 -0.281068D+00 -0.773186D-02
      8b -0.193760D-01 -0.696739D-01 -0.180594D+00  0.787654D-02 -0.187021D+00
      9a -0.202010D-02 -0.325975D-02 -0.122509D+00 -0.998306D-01 -0.345499D-01
      9b  0.126942D-01 -0.807174D-01 -0.712066D-01 -0.408624D-01 -0.124299D+00
     10a -0.233433D-01  0.171139D+00  0.443451D-02 -0.237842D-01  0.223733D-01
     10b  0.841277D-01  0.446403D-01  0.102318D+00  0.617659D-01 -0.111005D-01
                11            12            13            14            15 
      1a  0.982840D-01 -0.101466D+00  0.290960D+00  0.217705D-01  0.173625D+00
      1b -0.827515D-01  0.262173D-02 -0.621405D-01  0.532630D-01 -0.306268D-01
      2a -0.189930D+00  0.128648D-01 -0.152378D+00  0.575947D-01  0.517414D-01
      2b  0.521919D-01 -0.136219D+00  0.602762D-01 -0.328706D-01  0.489694D-01
      3a -0.334515D+00  0.475214D-01 -0.275659D+00  0.378368D-01 -0.375104D-01
      3b -0.241403D-02 -0.159550D+00  0.107221D+00 -0.125237D+00 -0.133685D-01
      4a -0.151459D+00  0.100008D+00 -0.406668D+00  0.738234D-02 -0.133778D+00
      4b  0.124065D+00  0.128178D-01 -0.405365D-02 -0.190360D+00 -0.434675D-01
      5a  0.255322D-01  0.339204D-01  0.371279D-01 -0.998795D-01 -0.281068D+00
      5b  0.431448D-02  0.868880D-01 -0.740132D-01 -0.495613D-01 -0.773186D-02
      6a  0.991562D+00 -0.256948D+00  0.494319D+00 -0.224380D-01  0.650594D-01
      6b -0.256948D+00  0.319208D+00 -0.944019D-01  0.270409D+00  0.134084D-01
      7a  0.494319D+00 -0.944019D-01  0.872802D+00 -0.125361D+00 -0.204986D+00
      7b -0.224380D-01  0.270409D+00 -0.125361D+00  0.496270D+00  0.205600D+00
      8a  0.650594D-01  0.134084D-01 -0.204986D+00  0.205600D+00  0.596241D+00
      8b -0.113842D-01  0.104231D+00  0.210675D+00  0.180668D+00 -0.126467D+00
      9a -0.757421D+00  0.251952D+00 -0.197112D+00  0.512508D-01  0.286512D+00
      9b  0.300748D+00 -0.957542D-01  0.125788D+00  0.790163D-01 -0.376000D-01
     10a -0.364646D+00  0.109526D-01 -0.393024D+00 -0.354149D-01  0.199692D+00
     10b -0.158484D+00 -0.231845D+00 -0.637407D-01 -0.352996D+00 -0.884597D-01
                16            17            18            19            20 
      1a  0.181162D-01 -0.445574D-01  0.929411D-01 -0.152879D+00 -0.601824D-01
      1b  0.770456D-01  0.795803D-01  0.327774D-02  0.343158D-01 -0.270565D-01
      2a  0.266084D-01  0.133902D+00 -0.125611D-01  0.709989D-01 -0.220805D-01
      2b  0.767153D-01 -0.204969D-01  0.930735D-01 -0.359132D-01  0.550421D-02
      3a -0.515698D-02  0.200511D+00 -0.813985D-01  0.151793D+00  0.369180D-01
      3b -0.193760D-01 -0.202010D-02  0.126942D-01 -0.233433D-01  0.841277D-01
      4a -0.696739D-01 -0.325975D-02 -0.807174D-01  0.171139D+00  0.446403D-01
      4b -0.180594D+00 -0.122509D+00 -0.712066D-01  0.443451D-02  0.102318D+00
      5a  0.787654D-02 -0.998306D-01 -0.408624D-01 -0.237842D-01  0.617659D-01
      5b -0.187021D+00 -0.345499D-01 -0.124299D+00  0.223733D-01 -0.111005D-01
      6a -0.113842D-01 -0.757421D+00  0.300748D+00 -0.364646D+00 -0.158484D+00
      6b  0.104231D+00  0.251952D+00 -0.957542D-01  0.109526D-01 -0.231845D+00
      7a  0.210675D+00 -0.197112D+00  0.125788D+00 -0.393024D+00 -0.637407D-01
      7b  0.180668D+00  0.512508D-01  0.790163D-01 -0.354149D-01 -0.352996D+00
      8a -0.126467D+00  0.286512D+00 -0.376000D-01  0.199692D+00 -0.884597D-01
      8b  0.357977D+00 -0.181197D-01  0.194570D+00 -0.485399D-01  0.131381D+00
      9a -0.181197D-01  0.105396D+01 -0.368221D+00  0.375971D+00  0.796844D-01
      9b  0.194570D+00 -0.368221D+00  0.288220D+00 -0.688808D-01  0.175632D+00
     10a -0.485399D-01  0.375971D+00 -0.688808D-01  0.393387D+00  0.390007D+00
     10b  0.131381D+00  0.796844D-01  0.175632D+00  0.390007D+00  0.101534D+01
 jaja non-ortho density matrix               [Gau-style] (imaginary):
                 1             2             3             4             5 
      1a  0.000000D+00  0.000000D+00  0.000000D+00  0.000000D+00  0.000000D+00
      1b  0.000000D+00  0.000000D+00  0.000000D+00  0.000000D+00  0.000000D+00
      2a  0.000000D+00  0.000000D+00  0.000000D+00  0.000000D+00  0.000000D+00
      2b  0.000000D+00  0.000000D+00  0.000000D+00  0.000000D+00  0.000000D+00
      3a  0.000000D+00  0.000000D+00  0.000000D+00  0.000000D+00  0.000000D+00
      3b  0.000000D+00  0.000000D+00  0.000000D+00  0.000000D+00  0.000000D+00
      4a  0.000000D+00  0.000000D+00  0.000000D+00  0.000000D+00  0.000000D+00
      4b  0.000000D+00  0.000000D+00  0.000000D+00  0.000000D+00  0.000000D+00
      5a  0.000000D+00  0.000000D+00  0.000000D+00  0.000000D+00  0.000000D+00
      5b  0.000000D+00  0.000000D+00  0.000000D+00  0.000000D+00  0.000000D+00
      6a  0.000000D+00  0.000000D+00  0.000000D+00  0.000000D+00  0.000000D+00
      6b  0.000000D+00  0.000000D+00  0.000000D+00  0.000000D+00  0.000000D+00
      7a  0.000000D+00  0.000000D+00  0.000000D+00  0.000000D+00  0.000000D+00
      7b  0.000000D+00  0.000000D+00  0.000000D+00  0.000000D+00  0.000000D+00
      8a  0.000000D+00  0.000000D+00  0.000000D+00  0.000000D+00  0.000000D+00
      8b  0.000000D+00  0.000000D+00  0.000000D+00  0.000000D+00  0.000000D+00
      9a  0.000000D+00  0.000000D+00  0.000000D+00  0.000000D+00  0.000000D+00
      9b  0.000000D+00  0.000000D+00  0.000000D+00  0.000000D+00  0.000000D+00
     10a  0.000000D+00  0.000000D+00  0.000000D+00  0.000000D+00  0.000000D+00
     10b  0.000000D+00  0.000000D+00  0.000000D+00  0.000000D+00  0.000000D+00
                 6             7             8             9            10 
      1a  0.000000D+00  0.000000D+00  0.000000D+00  0.000000D+00  0.000000D+00
      1b  0.000000D+00  0.000000D+00  0.000000D+00  0.000000D+00  0.000000D+00
      2a  0.000000D+00  0.000000D+00  0.000000D+00  0.000000D+00  0.000000D+00
      2b  0.000000D+00  0.000000D+00  0.000000D+00  0.000000D+00  0.000000D+00
      3a  0.000000D+00  0.000000D+00  0.000000D+00  0.000000D+00  0.000000D+00
      3b  0.000000D+00  0.000000D+00  0.000000D+00  0.000000D+00  0.000000D+00
      4a  0.000000D+00  0.000000D+00  0.000000D+00  0.000000D+00  0.000000D+00
      4b  0.000000D+00  0.000000D+00  0.000000D+00  0.000000D+00  0.000000D+00
      5a  0.000000D+00  0.000000D+00  0.000000D+00  0.000000D+00  0.000000D+00
      5b  0.000000D+00  0.000000D+00  0.000000D+00  0.000000D+00  0.000000D+00
      6a  0.000000D+00  0.000000D+00  0.000000D+00  0.000000D+00  0.000000D+00
      6b  0.000000D+00  0.000000D+00  0.000000D+00  0.000000D+00  0.000000D+00
      7a  0.000000D+00  0.000000D+00  0.000000D+00  0.000000D+00  0.000000D+00
      7b  0.000000D+00  0.000000D+00  0.000000D+00  0.000000D+00  0.000000D+00
      8a  0.000000D+00  0.000000D+00  0.000000D+00  0.000000D+00  0.000000D+00
      8b  0.000000D+00  0.000000D+00  0.000000D+00  0.000000D+00  0.000000D+00
      9a  0.000000D+00  0.000000D+00  0.000000D+00  0.000000D+00  0.000000D+00
      9b  0.000000D+00  0.000000D+00  0.000000D+00  0.000000D+00  0.000000D+00
     10a  0.000000D+00  0.000000D+00  0.000000D+00  0.000000D+00  0.000000D+00
     10b  0.000000D+00  0.000000D+00  0.000000D+00  0.000000D+00  0.000000D+00
                11            12            13            14            15 
      1a  0.000000D+00  0.000000D+00  0.000000D+00  0.000000D+00  0.000000D+00
      1b  0.000000D+00  0.000000D+00  0.000000D+00  0.000000D+00  0.000000D+00
      2a  0.000000D+00  0.000000D+00  0.000000D+00  0.000000D+00  0.000000D+00
      2b  0.000000D+00  0.000000D+00  0.000000D+00  0.000000D+00  0.000000D+00
      3a  0.000000D+00  0.000000D+00  0.000000D+00  0.000000D+00  0.000000D+00
      3b  0.000000D+00  0.000000D+00  0.000000D+00  0.000000D+00  0.000000D+00
      4a  0.000000D+00  0.000000D+00  0.000000D+00  0.000000D+00  0.000000D+00
      4b  0.000000D+00  0.000000D+00  0.000000D+00  0.000000D+00  0.000000D+00
      5a  0.000000D+00  0.000000D+00  0.000000D+00  0.000000D+00  0.000000D+00
      5b  0.000000D+00  0.000000D+00  0.000000D+00  0.000000D+00  0.000000D+00
      6a  0.000000D+00  0.000000D+00  0.000000D+00  0.000000D+00  0.000000D+00
      6b  0.000000D+00  0.000000D+00  0.000000D+00  0.000000D+00  0.000000D+00
      7a  0.000000D+00  0.000000D+00  0.000000D+00  0.000000D+00  0.000000D+00
      7b  0.000000D+00  0.000000D+00  0.000000D+00  0.000000D+00  0.000000D+00
      8a  0.000000D+00  0.000000D+00  0.000000D+00  0.000000D+00  0.000000D+00
      8b  0.000000D+00  0.000000D+00  0.000000D+00  0.000000D+00  0.000000D+00
      9a  0.000000D+00  0.000000D+00  0.000000D+00  0.000000D+00  0.000000D+00
      9b  0.000000D+00  0.000000D+00  0.000000D+00  0.000000D+00  0.000000D+00
     10a  0.000000D+00  0.000000D+00  0.000000D+00  0.000000D+00  0.000000D+00
     10b  0.000000D+00  0.000000D+00  0.000000D+00  0.000000D+00  0.000000D+00
                16            17            18            19            20 
      1a  0.000000D+00  0.000000D+00  0.000000D+00  0.000000D+00  0.000000D+00
      1b  0.000000D+00  0.000000D+00  0.000000D+00  0.000000D+00  0.000000D+00
      2a  0.000000D+00  0.000000D+00  0.000000D+00  0.000000D+00  0.000000D+00
      2b  0.000000D+00  0.000000D+00  0.000000D+00  0.000000D+00  0.000000D+00
      3a  0.000000D+00  0.000000D+00  0.000000D+00  0.000000D+00  0.000000D+00
      3b  0.000000D+00  0.000000D+00  0.000000D+00  0.000000D+00  0.000000D+00
      4a  0.000000D+00  0.000000D+00  0.000000D+00  0.000000D+00  0.000000D+00
      4b  0.000000D+00  0.000000D+00  0.000000D+00  0.000000D+00  0.000000D+00
      5a  0.000000D+00  0.000000D+00  0.000000D+00  0.000000D+00  0.000000D+00
      5b  0.000000D+00  0.000000D+00  0.000000D+00  0.000000D+00  0.000000D+00
      6a  0.000000D+00  0.000000D+00  0.000000D+00  0.000000D+00  0.000000D+00
      6b  0.000000D+00  0.000000D+00  0.000000D+00  0.000000D+00  0.000000D+00
      7a  0.000000D+00  0.000000D+00  0.000000D+00  0.000000D+00  0.000000D+00
      7b  0.000000D+00  0.000000D+00  0.000000D+00  0.000000D+00  0.000000D+00
      8a  0.000000D+00  0.000000D+00  0.000000D+00  0.000000D+00  0.000000D+00
      8b  0.000000D+00  0.000000D+00  0.000000D+00  0.000000D+00  0.000000D+00
      9a  0.000000D+00  0.000000D+00  0.000000D+00  0.000000D+00  0.000000D+00
      9b  0.000000D+00  0.000000D+00  0.000000D+00  0.000000D+00  0.000000D+00
     10a  0.000000D+00  0.000000D+00  0.000000D+00  0.000000D+00  0.000000D+00
     10b  0.000000D+00  0.000000D+00  0.000000D+00  0.000000D+00  0.000000D+00
FORTRAN STOP
