 Entering Gaussian System, Link 0=g09
 AtFile(1): H.gbs
            H     0
            S   10   1.00
               1000.000000000000            0.000068713567
                316.227766000000            0.000169141320
                100.000000000000            0.000823394812
                 31.622776600000            0.003425569236
                 10.000000000000            0.013951996000
                  3.162277660000            0.056909313560
                  1.000000000000            0.198286399900
                  0.316227766000            0.496922426700
                  0.100000000000            0.369846276400
                  0.031622776600            0.003752720039
            ****
 Initial command:
 /projects/guscus/apps/gau/g09-e1/g09/l1.exe "/users/lcj1/gaussian/h10/2rows_uhf/ag2bu3/triplet/mix/Gau-1970.inp" -scrdir="/users/lcj1/gaussian/h10/2rows_uhf/ag2bu3/triplet/mix/"
 Entering Link 1 = /projects/guscus/apps/gau/g09-e1/g09/l1.exe PID=      1971.
  
 Copyright (c) 1988,1990,1992,1993,1995,1998,2003,2009,2015,
            Gaussian, Inc.  All Rights Reserved.
  
 This is part of the Gaussian(R) 09 program.  It is based on
 the Gaussian(R) 03 system (copyright 2003, Gaussian, Inc.),
 the Gaussian(R) 98 system (copyright 1998, Gaussian, Inc.),
 the Gaussian(R) 94 system (copyright 1995, Gaussian, Inc.),
 the Gaussian 92(TM) system (copyright 1992, Gaussian, Inc.),
 the Gaussian 90(TM) system (copyright 1990, Gaussian, Inc.),
 the Gaussian 88(TM) system (copyright 1988, Gaussian, Inc.),
 the Gaussian 86(TM) system (copyright 1986, Carnegie Mellon
 University), and the Gaussian 82(TM) system (copyright 1983,
 Carnegie Mellon University). Gaussian is a federally registered
 trademark of Gaussian, Inc.
  
 This software contains proprietary and confidential information,
 including trade secrets, belonging to Gaussian, Inc.
  
 This software is provided under written license and may be
 used, copied, transmitted, or stored only in accord with that
 written license.
  
 The following legend is applicable only to US Government
 contracts under FAR:
  
                    RESTRICTED RIGHTS LEGEND
  
 Use, reproduction and disclosure by the US Government is
 subject to restrictions as set forth in subparagraphs (a)
 and (c) of the Commercial Computer Software - Restricted
 Rights clause in FAR 52.227-19.
  
 Gaussian, Inc.
 340 Quinnipiac St., Bldg. 40, Wallingford CT 06492
  
  
 ---------------------------------------------------------------
 Warning -- This program may not be used in any manner that
 competes with the business of Gaussian, Inc. or will provide
 assistance to any competitor of Gaussian, Inc.  The licensee
 of this program is prohibited from giving any competitor of
 Gaussian, Inc. access to this program.  By using this program,
 the user acknowledges that Gaussian, Inc. is engaged in the
 business of creating and licensing software in the field of
 computational chemistry and represents and warrants to the
 licensee that it is not a competitor of Gaussian, Inc. and that
 it will not use this program in any manner prohibited above.
 ---------------------------------------------------------------
  

 Cite this work as:
 Gaussian 09, Revision E.01,
 M. J. Frisch, G. W. Trucks, H. B. Schlegel, G. E. Scuseria, 
 M. A. Robb, J. R. Cheeseman, G. Scalmani, V. Barone, B. Mennucci, 
 G. A. Petersson, H. Nakatsuji, M. Caricato, X. Li, H. P. Hratchian, 
 A. F. Izmaylov, J. Bloino, G. Zheng, J. L. Sonnenberg, M. Hada, 
 M. Ehara, K. Toyota, R. Fukuda, J. Hasegawa, M. Ishida, T. Nakajima, 
 Y. Honda, O. Kitao, H. Nakai, T. Vreven, J. A. Montgomery, Jr., 
 J. E. Peralta, F. Ogliaro, M. Bearpark, J. J. Heyd, E. Brothers, 
 K. N. Kudin, V. N. Staroverov, T. Keith, R. Kobayashi, J. Normand, 
 K. Raghavachari, A. Rendell, J. C. Burant, S. S. Iyengar, J. Tomasi, 
 M. Cossi, N. Rega, J. M. Millam, M. Klene, J. E. Knox, J. B. Cross, 
 V. Bakken, C. Adamo, J. Jaramillo, R. Gomperts, R. E. Stratmann, 
 O. Yazyev, A. J. Austin, R. Cammi, C. Pomelli, J. W. Ochterski, 
 R. L. Martin, K. Morokuma, V. G. Zakrzewski, G. A. Voth, 
 P. Salvador, J. J. Dannenberg, S. Dapprich, A. D. Daniels, 
 O. Farkas, J. B. Foresman, J. V. Ortiz, J. Cioslowski, 
 and D. J. Fox, Gaussian, Inc., Wallingford CT, 2013.
 
 ******************************************
 Gaussian 09:  ES64L-G09RevE.01 30-Nov-2015
                23-Feb-2017 
 ******************************************
 %chk=h10.chk
 ----------------------------------------------------------------------
 #uhf/gen scf(tight,novaracc,noincfock,fulldiag, ) stable(crhf) guess=m
 ix geom=nocrowd test
 ----------------------------------------------------------------------
 1/38=1/1;
 2/12=1,17=6,18=5,40=1/2;
 3/5=7,16=1,25=1,30=1,116=2/1,2,3;
 4/13=-1/1;
 5/5=100002,16=1,32=2,38=1/2;
 8/6=1,10=90,11=11/1,4;
 9/8=4,13=1/2;
 6/7=2,8=2,9=2,10=2,28=1/1;
 99/5=1,9=1/99;
 ----------------------------------------------------------------------
 hf stability analysis of h10 triangular lattice, y= 0.5129460835266602
 7 alpha= 24.500000000000000
 ----------------------------------------------------------------------
 Symbolic Z-matrix:
 Charge =  0 Multiplicity = 3
 H
 H                    1     1.23693 
 H                    1     1.23693  2     131. 
 H                    2     1.23693  1     49.      3     0.       0
 H                    3     1.23693  1     180.     2     0.       0
 H                    4     1.23693  2     180.     1     0.       0
 H                    5     1.23693  3     180.     2     0.       0
 H                    6     1.23693  4     180.     1     0.       0
 H                    7     1.23693  5     180.     2     0.       0
 H                    8     1.23693  6     180.     1     0.       0
 
                          Input orientation:                          
 ---------------------------------------------------------------------
 Center     Atomic      Atomic             Coordinates (Angstroms)
 Number     Number       Type             X           Y           Z
 ---------------------------------------------------------------------
      1          1           0        0.000000    0.000000    0.000000
      2          1           0        0.000000    0.000000    1.236929
      3          1           0        0.933522    0.000000   -0.811498
      4          1           0        0.933522    0.000000    0.425431
      5          1           0        1.867044    0.000000   -1.622997
      6          1           0        1.867044    0.000000   -0.386068
      7          1           0        2.800566    0.000000   -2.434495
      8          1           0        2.800566    0.000000   -1.197566
      9          1           0        3.734088    0.000000   -3.245994
     10          1           0        3.734088    0.000000   -2.009065
 ---------------------------------------------------------------------
                    Distance matrix (angstroms):
                    1          2          3          4          5
     1  H    0.000000
     2  H    1.236929   0.000000
     3  H    1.236929   2.251115   0.000000
     4  H    1.025892   1.236929   1.236929   0.000000
     5  H    2.473858   3.415411   1.236929   2.251115   0.000000
     6  H    1.906542   2.473858   1.025892   1.236929   1.236929
     7  H    3.710787   4.617632   2.473858   3.415411   1.236929
     8  H    3.045872   3.710787   1.906542   2.473858   1.025892
     9  H    4.947716   5.834382   3.710787   4.617632   2.473858
    10  H    4.240254   4.947716   3.045872   3.710787   1.906542
                    6          7          8          9         10
     6  H    0.000000
     7  H    2.251115   0.000000
     8  H    1.236929   1.236929   0.000000
     9  H    3.415411   1.236929   2.251115   0.000000
    10  H    2.473858   1.025892   1.236929   1.236929   0.000000
 Stoichiometry    H10(3)
 Framework group  C2H[SGH(H10)]
 Deg. of freedom     9
 Full point group                 C2H     NOp   4
 Largest Abelian subgroup         C2H     NOp   4
 Largest concise Abelian subgroup C2      NOp   2
                         Standard orientation:                         
 ---------------------------------------------------------------------
 Center     Atomic      Atomic             Coordinates (Angstroms)
 Number     Number       Type             X           Y           Z
 ---------------------------------------------------------------------
      1          1           0        1.867044   -1.004532    0.000000
      2          1           0        1.867044   -2.241461    0.000000
      3          1           0        0.933522   -0.193034    0.000000
      4          1           0        0.933522   -1.429963    0.000000
      5          1           0       -0.000000    0.618464   -0.000000
      6          1           0       -0.000000   -0.618464   -0.000000
      7          1           0       -0.933522    1.429963    0.000000
      8          1           0       -0.933522    0.193034    0.000000
      9          1           0       -1.867044    2.241461    0.000000
     10          1           0       -1.867044    1.004532    0.000000
 ---------------------------------------------------------------------
 Rotational constants (GHZ):    243.4439927     15.4937420     14.5666618
 General basis read from cards:  (5D, 7F)
 There are     5 symmetry adapted cartesian basis functions of AG  symmetry.
 There are     0 symmetry adapted cartesian basis functions of BG  symmetry.
 There are     0 symmetry adapted cartesian basis functions of AU  symmetry.
 There are     5 symmetry adapted cartesian basis functions of BU  symmetry.
 There are     5 symmetry adapted basis functions of AG  symmetry.
 There are     0 symmetry adapted basis functions of BG  symmetry.
 There are     0 symmetry adapted basis functions of AU  symmetry.
 There are     5 symmetry adapted basis functions of BU  symmetry.
    10 basis functions,   100 primitive gaussians,    10 cartesian basis functions
     6 alpha electrons        4 beta electrons
       nuclear repulsion energy        12.7226122899 Hartrees.
 NAtoms=   10 NActive=   10 NUniq=    5 SFac= 4.00D+00 NAtFMM=   60 NAOKFM=F Big=F
 Integral buffers will be    131072 words long.
 Regular integral format.
 Two-electron integral symmetry is turned on.
 One-electron integrals computed using PRISM.
 NBasis=    10 RedAO= T EigKep=  1.92D-01  NBF=     5     0     0     5
 NBsUse=    10 1.00D-06 EigRej= -1.00D+00 NBFU=     5     0     0     5
 ExpMin= 3.16D-02 ExpMax= 1.00D+03 ExpMxC= 1.00D+01 IAcc=3 IRadAn=         5 AccDes= 0.00D+00
 Harris functional with IExCor=  205 and IRadAn=       5 diagonalized for initial guess.
 HarFok:  IExCor=  205 AccDes= 0.00D+00 IRadAn=         5 IDoV= 1 UseB2=F ITyADJ=14
 ICtDFT=  3500011 ScaDFX=  1.000000  1.000000  1.000000  1.000000
 FoFCou: FMM=F IPFlag=           0 FMFlag=      100000 FMFlg1=           0
         NFxFlg=           0 DoJE=T BraDBF=F KetDBF=T FulRan=T
         wScrn=  0.000000 ICntrl=     500 IOpCl=  0 I1Cent=   200000004 NGrid=           0
         NMat0=    1 NMatS0=      1 NMatT0=    0 NMatD0=    1 NMtDS0=    0 NMtDT0=    0
 Petite list used in FoFCou.
 Mixing orbitals, IMix= 1 IMixAn=  0 NRI=1 NE=    6 Coef=  7.07106781D-01  7.07106781D-01
 Mixing orbitals, IMix= 1 IMixAn=  0 NRI=1 NE=    4 Coef= -7.07106781D-01  7.07106781D-01
 Initial guess orbital symmetries:
 Alpha Orbitals:
       Occupied  (AG) (BU) (AG) (BU) (BU) (AG)
       Virtual   (AG) (BU) (BU) (AG)
 Beta  Orbitals:
       Occupied  (AG) (BU) (AG) (BU)
       Virtual   (BU) (AG) (AG) (BU) (BU) (AG)
 The electronic state of the initial guess is 3-BU.
 Initial guess <Sx>= 0.0000 <Sy>= 0.0000 <Sz>= 1.0000 <S**2>= 2.0000 S= 1.0000
 Keep R1 and R2 ints in memory in symmetry-blocked form, NReq=878459.
 Requested convergence on RMS density matrix=1.00D-08 within 128 cycles.
 Requested convergence on MAX density matrix=1.00D-06.
 Requested convergence on             energy=1.00D-06.
 No special actions if energy rises.
 An orbital has undefined symmetry, so N**3 symmetry is turned off.
 Rare condition: small coef for last iteration:  0.000D+00
 Rare condition: small coef for last iteration:  0.000D+00
 Rare condition: small coef for last iteration:  0.000D+00
 Rare condition: small coef for last iteration:  0.000D+00
 Rare condition: small coef for last iteration:  0.000D+00
 Rare condition: small coef for last iteration:  0.000D+00
 Rare condition: small coef for last iteration:  0.000D+00
 Rare condition: small coef for last iteration:  0.000D+00
 Rare condition: small coef for last iteration:  0.000D+00
 Rare condition: small coef for last iteration:  0.000D+00
 Rare condition: small coef for last iteration:  0.000D+00
 Rare condition: small coef for last iteration:  0.000D+00
 Rare condition: small coef for last iteration:  0.000D+00
 Rare condition: small coef for last iteration:  0.000D+00
 SCF Done:  E(UHF) =  -4.85412510313     A.U. after   59 cycles
            NFock= 59  Conv=0.45D-08     -V/T= 1.9174
 <Sx>= 0.0000 <Sy>= 0.0000 <Sz>= 1.0000 <S**2>= 2.4127 S= 1.1318
 <L.S>= 0.000000000000E+00
 Annihilation of the first spin contaminant:
 S**2 before annihilation     2.4127,   after     2.0732
 Range of M.O.s used for correlation:     1    10
 NBasis=    10 NAE=     6 NBE=     4 NFC=     0 NFV=     0
 NROrb=     10 NOA=     6 NOB=     4 NVA=     4 NVB=     6
 Semi-Direct transformation.
 ModeAB=           2 MOrb=             6 LenV=     134108512
 LASXX=         1146 LTotXX=        1146 LenRXX=        1146
 LTotAB=        1971 MaxLAS=        3300 LenRXY=        3300
 NonZer=        3300 LenScr=      655360 LnRSAI=           0
 LnScr1=           0 LExtra=           0 Total=       659806
 MaxDsk=          -1 SrtSym=           F ITran=            3
 JobTyp=1 Pass  1:  I=   1 to   6.
 (rs|ai) integrals will be sorted in core.
 ModeAB=           2 MOrb=             4 LenV=     134108512
 LASXX=          831 LTotXX=         831 LenRXX=        2200
 LTotAB=         100 MaxLAS=        2200 LenRXY=         100
 NonZer=        2200 LenScr=      655360 LnRSAI=           0
 LnScr1=           0 LExtra=           0 Total=       657660
 MaxDsk=          -1 SrtSym=           F ITran=            3
 JobTyp=2 Pass  1:  I=   1 to   4.
 (rs|ai) integrals will be sorted in core.
 SymMOI:  orbitals are not symmetric.
 Spin components of T(2) and E(2):
     alpha-alpha T2 =       0.2522843597D-02 E2=     -0.3600319485D-02
     alpha-beta  T2 =       0.3162954130D-01 E2=     -0.4860850909D-01
     beta-beta   T2 =       0.1396833579D-02 E2=     -0.2289809849D-02
 ANorm=    0.1017619388D+01
 E2 =    -0.5449863842D-01 EUMP2 =    -0.49086237415562D+01
 (S**2,0)=  0.24127D+01           (S**2,1)=  0.22984D+01
 E(PUHF)=      -0.48763438733D+01        E(PMP2)=      -0.49280806856D+01
 Second order stability test of a single determinant UHF wave function:
 Stabil:  MDV=134217728
 ***********************************************************************
 Matrix         Lowest Root    Major Pairs
 ***********************************************************************
 Internal UHF     0.0473403    Stable
 RUHF --> CUHF (A)0.168204     Stable
 RUHF --> CUHF (B)0.0950516    Stable

 RUHF --> GHF    -0.0158391    6A=5B 5A=6B 5A=7B 4B=7A 4A=7B 4A=6B 3B=8A 3A=8B 6A
 =9B 3B=9A 4B=10A
 Not stable.
 ***********************************************************************

 **********************************************************************

            Population analysis using the SCF density.

 **********************************************************************

 Orbital symmetries:
 Alpha Orbitals:
       Occupied  (AG) (BU) (AG) (BU) (BU) (AG)
       Virtual   (AG) (BU) (BU) (AG)
 Beta  Orbitals:
       Occupied  (AG) (BU) (AG) (BU)
       Virtual   (BU) (AG) (AG) (BU) (BU) (AG)
 The electronic state is 3-BU.
 Alpha  occ. eigenvalues --   -0.86638  -0.76764  -0.62080  -0.41402  -0.36708
 Alpha  occ. eigenvalues --   -0.29292
 Alpha virt. eigenvalues --    0.15385   0.18709   0.36528   0.54436
  Beta  occ. eigenvalues --   -0.81397  -0.71306  -0.51884  -0.33665
  Beta virt. eigenvalues --    0.04285   0.13163   0.21931   0.31255   0.45001
  Beta virt. eigenvalues --    0.59134
          Condensed to atoms (all electrons):
               1          2          3          4          5          6
     1  H    0.996436  -0.127152   0.133616   0.110467  -0.010709  -0.144853
     2  H   -0.127152   1.151618  -0.115482   0.190427   0.004527  -0.008398
     3  H    0.133616  -0.115482   1.176910  -0.095008   0.050318   0.079395
     4  H    0.110467   0.190427  -0.095008   0.620206  -0.051878   0.097750
     5  H   -0.010709   0.004527   0.050318  -0.051878   1.079191  -0.108904
     6  H   -0.144853  -0.008398   0.079395   0.097750  -0.108904   1.079191
     7  H    0.001809   0.000322   0.004226  -0.001875   0.097750  -0.051878
     8  H   -0.002477   0.005023  -0.158547   0.004226   0.079395   0.050318
     9  H   -0.000481  -0.000016   0.005023   0.000322  -0.008398   0.004527
    10  H    0.002097  -0.000481  -0.002477   0.001809  -0.144853  -0.010709
               7          8          9         10
     1  H    0.001809  -0.002477  -0.000481   0.002097
     2  H    0.000322   0.005023  -0.000016  -0.000481
     3  H    0.004226  -0.158547   0.005023  -0.002477
     4  H   -0.001875   0.004226   0.000322   0.001809
     5  H    0.097750   0.079395  -0.008398  -0.144853
     6  H   -0.051878   0.050318   0.004527  -0.010709
     7  H    0.620206  -0.095008   0.190427   0.110467
     8  H   -0.095008   1.176910  -0.115482   0.133616
     9  H    0.190427  -0.115482   1.151618  -0.127152
    10  H    0.110467   0.133616  -0.127152   0.996436
          Atomic-Atomic Spin Densities.
               1          2          3          4          5          6
     1  H    0.768244  -0.235858   0.221707  -0.153668   0.005430  -0.120934
     2  H   -0.235858   0.832488  -0.023697  -0.026518   0.008134   0.005542
     3  H    0.221707  -0.023697  -0.570256   0.073989  -0.045198  -0.114314
     4  H   -0.153668  -0.026518   0.073989  -0.244073  -0.019249   0.162951
     5  H    0.005430   0.008134  -0.045198  -0.019249   0.864555  -0.207555
     6  H   -0.120934   0.005542  -0.114314   0.162951  -0.207555   0.864555
     7  H    0.000498   0.000463  -0.007300  -0.002772   0.162951  -0.019249
     8  H   -0.001136  -0.002200   0.101534  -0.007300  -0.114314  -0.045198
     9  H   -0.000533   0.000045  -0.002200   0.000463   0.005542   0.008134
    10  H    0.001574  -0.000533  -0.001136   0.000498  -0.120934   0.005430
               7          8          9         10
     1  H    0.000498  -0.001136  -0.000533   0.001574
     2  H    0.000463  -0.002200   0.000045  -0.000533
     3  H   -0.007300   0.101534  -0.002200  -0.001136
     4  H   -0.002772  -0.007300   0.000463   0.000498
     5  H    0.162951  -0.114314   0.005542  -0.120934
     6  H   -0.019249  -0.045198   0.008134   0.005430
     7  H   -0.244073   0.073989  -0.026518  -0.153668
     8  H    0.073989  -0.570256  -0.023697   0.221707
     9  H   -0.026518  -0.023697   0.832488  -0.235858
    10  H   -0.153668   0.221707  -0.235858   0.768244
 Mulliken charges and spin densities:
               1          2
     1  H    0.041246   0.485324
     2  H   -0.100389   0.557865
     3  H   -0.077974  -0.366871
     4  H    0.123554  -0.215680
     5  H    0.013562   0.539361
     6  H    0.013562   0.539361
     7  H    0.123554  -0.215680
     8  H   -0.077974  -0.366871
     9  H   -0.100389   0.557865
    10  H    0.041246   0.485324
 Sum of Mulliken charges =  -0.00000   2.00000
 Mulliken charges and spin densities with hydrogens summed into heavy atoms:
               1          2
 Electronic spatial extent (au):  <R**2>=            157.5552
 Charge=             -0.0000 electrons
 Dipole moment (field-independent basis, Debye):
    X=             -0.0000    Y=              0.0000    Z=             -0.0000  Tot=              0.0000
 Quadrupole moment (field-independent basis, Debye-Ang):
   XX=            -15.7995   YY=            -17.8886   ZZ=            -12.8794
   XY=              2.5368   XZ=              0.0000   YZ=             -0.0000
 Traceless Quadrupole moment (field-independent basis, Debye-Ang):
   XX=             -0.2770   YY=             -2.3661   ZZ=              2.6431
   XY=              2.5368   XZ=              0.0000   YZ=             -0.0000
 Octapole moment (field-independent basis, Debye-Ang**2):
  XXX=             -0.0000  YYY=              0.0000  ZZZ=             -0.0000  XYY=             -0.0000
  XXY=              0.0000  XXZ=             -0.0000  XZZ=             -0.0000  YZZ=              0.0000
  YYZ=             -0.0000  XYZ=              0.0000
 Hexadecapole moment (field-independent basis, Debye-Ang**3):
 XXXX=           -164.1471 YYYY=           -201.9113 ZZZZ=            -15.5388 XXXY=             72.6075
 XXXZ=              0.0000 YYYX=             90.7509 YYYZ=             -0.0000 ZZZX=              0.0000
 ZZZY=             -0.0000 XXYY=            -71.6673 XXZZ=            -28.8570 YYZZ=            -29.4156
 XXYZ=             -0.0000 YYXZ=              0.0000 ZZXY=             20.6754
 N-N= 1.272261228989D+01 E-N=-3.473352940430D+01  KE= 5.291406084984D+00
 Symmetry AG   KE= 2.370103118601D+00
 Symmetry BG   KE= 0.000000000000D+00
 Symmetry AU   KE= 0.000000000000D+00
 Symmetry BU   KE= 2.921302966383D+00
                          Isotropic Fermi Contact Couplings
        Atom                 a.u.       MegaHertz       Gauss      10(-4) cm-1
     1  H(1)               0.20662     461.78139     164.77508     154.03369
     2  H(1)               0.22737     508.15839     181.32354     169.50339
     3  H(1)              -0.15749    -351.99043    -125.59894    -117.41137
     4  H(1)              -0.07311    -163.40603     -58.30733     -54.50638
     5  H(1)               0.23228     519.13284     185.23950     173.16408
     6  H(1)               0.23228     519.13284     185.23950     173.16408
     7  H(1)              -0.07311    -163.40603     -58.30733     -54.50638
     8  H(1)              -0.15749    -351.99043    -125.59894    -117.41137
     9  H(1)               0.22737     508.15839     181.32354     169.50339
    10  H(1)               0.20662     461.78139     164.77508     154.03369
 --------------------------------------------------------
       Center         ----  Spin Dipole Couplings  ----
                      3XX-RR        3YY-RR        3ZZ-RR
 --------------------------------------------------------
     1   Atom       -0.042709      0.038266      0.004443
     2   Atom       -0.017225      0.017579     -0.000355
     3   Atom        0.100895      0.004166     -0.105061
     4   Atom        0.104182     -0.014116     -0.090066
     5   Atom       -0.077444      0.044507      0.032937
     6   Atom       -0.077444      0.044507      0.032937
     7   Atom        0.104182     -0.014116     -0.090066
     8   Atom        0.100895      0.004166     -0.105061
     9   Atom       -0.017225      0.017579     -0.000355
    10   Atom       -0.042709      0.038266      0.004443
 --------------------------------------------------------
                        XY            XZ            YZ
 --------------------------------------------------------
     1   Atom       -0.029760      0.000000     -0.000000
     2   Atom        0.024230     -0.000000      0.000000
     3   Atom       -0.042184      0.000000     -0.000000
     4   Atom       -0.047802      0.000000     -0.000000
     5   Atom       -0.020297      0.000000      0.000000
     6   Atom       -0.020297     -0.000000     -0.000000
     7   Atom       -0.047802     -0.000000      0.000000
     8   Atom       -0.042184     -0.000000      0.000000
     9   Atom        0.024230      0.000000      0.000000
    10   Atom       -0.029760     -0.000000     -0.000000
 --------------------------------------------------------


 ---------------------------------------------------------------------------------
              Anisotropic Spin Dipole Couplings in Principal Axis System
 ---------------------------------------------------------------------------------

       Atom             a.u.   MegaHertz   Gauss  10(-4) cm-1        Axes

              Baa    -0.0525   -27.995    -9.989    -9.338  0.9502  0.3117  0.0000
     1 H(1)   Bbb     0.0044     2.371     0.846     0.791  0.0000  0.0000  1.0000
              Bcc     0.0480    25.625     9.144     8.548 -0.3117  0.9502  0.0000
 
              Baa    -0.0297   -15.822    -5.646    -5.278  0.8898 -0.4564  0.0000
     2 H(1)   Bbb    -0.0004    -0.189    -0.068    -0.063  0.0000  0.0000  1.0000
              Bcc     0.0300    16.011     5.713     5.341  0.4564  0.8898  0.0000
 
              Baa    -0.1051   -56.056   -20.002   -18.698  0.0000  0.0000  1.0000
     3 H(1)   Bbb    -0.0116    -6.214    -2.217    -2.073  0.3510  0.9364  0.0000
              Bcc     0.1167    62.269    22.219    20.771  0.9364 -0.3510  0.0000
 
              Baa    -0.0901   -48.055   -17.147   -16.029  0.0000  0.0000  1.0000
     4 H(1)   Bbb    -0.0310   -16.549    -5.905    -5.520  0.3333  0.9428  0.0000
              Bcc     0.1211    64.604    23.052    21.550  0.9428 -0.3333  0.0000
 
              Baa    -0.0807   -43.075   -15.370   -14.368  0.9871  0.1600  0.0000
     5 H(1)   Bbb     0.0329    17.574     6.271     5.862  0.0000  0.0000  1.0000
              Bcc     0.0478    25.502     9.100     8.506 -0.1600  0.9871 -0.0000
 
              Baa    -0.0807   -43.075   -15.370   -14.368  0.9871  0.1600  0.0000
     6 H(1)   Bbb     0.0329    17.574     6.271     5.862  0.0000  0.0000  1.0000
              Bcc     0.0478    25.502     9.100     8.506 -0.1600  0.9871 -0.0000
 
              Baa    -0.0901   -48.055   -17.147   -16.029  0.0000  0.0000  1.0000
     7 H(1)   Bbb    -0.0310   -16.549    -5.905    -5.520  0.3333  0.9428  0.0000
              Bcc     0.1211    64.604    23.052    21.550  0.9428 -0.3333  0.0000
 
              Baa    -0.1051   -56.056   -20.002   -18.698  0.0000  0.0000  1.0000
     8 H(1)   Bbb    -0.0116    -6.214    -2.217    -2.073  0.3510  0.9364  0.0000
              Bcc     0.1167    62.269    22.219    20.771  0.9364 -0.3510  0.0000
 
              Baa    -0.0297   -15.822    -5.646    -5.278  0.8898 -0.4564  0.0000
     9 H(1)   Bbb    -0.0004    -0.189    -0.068    -0.063  0.0000  0.0000  1.0000
              Bcc     0.0300    16.011     5.713     5.341  0.4564  0.8898  0.0000
 
              Baa    -0.0525   -27.995    -9.989    -9.338  0.9502  0.3117  0.0000
    10 H(1)   Bbb     0.0044     2.371     0.846     0.791  0.0000  0.0000  1.0000
              Bcc     0.0480    25.625     9.144     8.548 -0.3117  0.9502 -0.0000
 

 ---------------------------------------------------------------------------------


 Test job not archived.
 1\1\GINC-SULU\Stability\UHF\Gen\H10(3)\LCJ1\23-Feb-2017\0\\#uhf/gen sc
 f(tight,novaracc,noincfock,fulldiag, ) stable(crhf) guess=mix geom=noc
 rowd test\\hf stability analysis of h10 triangular lattice, y= 0.51294
 608352666027 alpha= 24.500000000000000\\0,3\H\H,1,1.2369289329\H,1,1.2
 369289329,2,131.\H,2,1.2369289329,1,49.,3,0.,0\H,3,1.2369289329,1,180.
 ,2,0.,0\H,4,1.2369289329,2,180.,1,0.,0\H,5,1.2369289329,3,180.,2,0.,0\
 H,6,1.2369289329,4,180.,1,0.,0\H,7,1.2369289329,5,180.,2,0.,0\H,8,1.23
 69289329,6,180.,1,0.,0\\Version=ES64L-G09RevE.01\State=3-BU\HF=-4.8541
 251\MP2=-4.9086237\PUHF=-4.8763439\PMP2-0=-4.9280807\S2=2.41269\S2-1=2
 .298357\S2A=2.073208\RMSD=4.547e-09\Dipole=0.,0.,0.\Quadrupole=-0.2059
 554,1.9650744,-1.7591189,0.,1.8860541,0.\PG=C02H [SGH(H10)]\\@


 WE HAVE LEARNED THAT NOTHING IS SIMPLE AND
 RATIONAL EXCEPT WHAT WE OURSELVES HAVE INVENTED;
 THAT GOD THINKS IN TERMS NEITHER OF EUCLID OR RIEMANN; THAT SCIENCE HAS "EXPLAINED" NOTHING;
 THAT THE MORE WE KNOW THE MORE FANTASTIC THE WORLD BECOMES
 AND THE PROFOUNDER THE SURROUNDING DARKNESS.
   --  ALDOUS HUXLEY
 Job cpu time:       0 days  0 hours  0 minutes  1.6 seconds.
 File lengths (MBytes):  RWF=     94 Int=      0 D2E=      0 Chk=      2 Scr=      2
 Normal termination of Gaussian 09 at Thu Feb 23 13:00:45 2017.
