 Entering Gaussian System, Link 0=g09
 AtFile(1): H.gbs
            H     0
            S   10   1.00
               1000.000000000000            0.000068713567
                316.227766000000            0.000169141320
                100.000000000000            0.000823394812
                 31.622776600000            0.003425569236
                 10.000000000000            0.013951996000
                  3.162277660000            0.056909313560
                  1.000000000000            0.198286399900
                  0.316227766000            0.496922426700
                  0.100000000000            0.369846276400
                  0.031622776600            0.003752720039
            ****
 Initial command:
 /projects/guscus/apps/gau/g09-e1/g09/l1.exe "/users/lcj1/gaussian/h10/2rows_uhf/ag2bu3/triplet/mix/Gau-11604.inp" -scrdir="/users/lcj1/gaussian/h10/2rows_uhf/ag2bu3/triplet/mix/"
 Entering Link 1 = /projects/guscus/apps/gau/g09-e1/g09/l1.exe PID=     11605.
  
 Copyright (c) 1988,1990,1992,1993,1995,1998,2003,2009,2015,
            Gaussian, Inc.  All Rights Reserved.
  
 This is part of the Gaussian(R) 09 program.  It is based on
 the Gaussian(R) 03 system (copyright 2003, Gaussian, Inc.),
 the Gaussian(R) 98 system (copyright 1998, Gaussian, Inc.),
 the Gaussian(R) 94 system (copyright 1995, Gaussian, Inc.),
 the Gaussian 92(TM) system (copyright 1992, Gaussian, Inc.),
 the Gaussian 90(TM) system (copyright 1990, Gaussian, Inc.),
 the Gaussian 88(TM) system (copyright 1988, Gaussian, Inc.),
 the Gaussian 86(TM) system (copyright 1986, Carnegie Mellon
 University), and the Gaussian 82(TM) system (copyright 1983,
 Carnegie Mellon University). Gaussian is a federally registered
 trademark of Gaussian, Inc.
  
 This software contains proprietary and confidential information,
 including trade secrets, belonging to Gaussian, Inc.
  
 This software is provided under written license and may be
 used, copied, transmitted, or stored only in accord with that
 written license.
  
 The following legend is applicable only to US Government
 contracts under FAR:
  
                    RESTRICTED RIGHTS LEGEND
  
 Use, reproduction and disclosure by the US Government is
 subject to restrictions as set forth in subparagraphs (a)
 and (c) of the Commercial Computer Software - Restricted
 Rights clause in FAR 52.227-19.
  
 Gaussian, Inc.
 340 Quinnipiac St., Bldg. 40, Wallingford CT 06492
  
  
 ---------------------------------------------------------------
 Warning -- This program may not be used in any manner that
 competes with the business of Gaussian, Inc. or will provide
 assistance to any competitor of Gaussian, Inc.  The licensee
 of this program is prohibited from giving any competitor of
 Gaussian, Inc. access to this program.  By using this program,
 the user acknowledges that Gaussian, Inc. is engaged in the
 business of creating and licensing software in the field of
 computational chemistry and represents and warrants to the
 licensee that it is not a competitor of Gaussian, Inc. and that
 it will not use this program in any manner prohibited above.
 ---------------------------------------------------------------
  

 Cite this work as:
 Gaussian 09, Revision E.01,
 M. J. Frisch, G. W. Trucks, H. B. Schlegel, G. E. Scuseria, 
 M. A. Robb, J. R. Cheeseman, G. Scalmani, V. Barone, B. Mennucci, 
 G. A. Petersson, H. Nakatsuji, M. Caricato, X. Li, H. P. Hratchian, 
 A. F. Izmaylov, J. Bloino, G. Zheng, J. L. Sonnenberg, M. Hada, 
 M. Ehara, K. Toyota, R. Fukuda, J. Hasegawa, M. Ishida, T. Nakajima, 
 Y. Honda, O. Kitao, H. Nakai, T. Vreven, J. A. Montgomery, Jr., 
 J. E. Peralta, F. Ogliaro, M. Bearpark, J. J. Heyd, E. Brothers, 
 K. N. Kudin, V. N. Staroverov, T. Keith, R. Kobayashi, J. Normand, 
 K. Raghavachari, A. Rendell, J. C. Burant, S. S. Iyengar, J. Tomasi, 
 M. Cossi, N. Rega, J. M. Millam, M. Klene, J. E. Knox, J. B. Cross, 
 V. Bakken, C. Adamo, J. Jaramillo, R. Gomperts, R. E. Stratmann, 
 O. Yazyev, A. J. Austin, R. Cammi, C. Pomelli, J. W. Ochterski, 
 R. L. Martin, K. Morokuma, V. G. Zakrzewski, G. A. Voth, 
 P. Salvador, J. J. Dannenberg, S. Dapprich, A. D. Daniels, 
 O. Farkas, J. B. Foresman, J. V. Ortiz, J. Cioslowski, 
 and D. J. Fox, Gaussian, Inc., Wallingford CT, 2013.
 
 ******************************************
 Gaussian 09:  ES64L-G09RevE.01 30-Nov-2015
                23-Feb-2017 
 ******************************************
 %chk=h10.chk
 ----------------------------------------------------------------------
 #uhf/gen scf(tight,novaracc,noincfock,fulldiag, ) stable(crhf) guess=m
 ix geom=nocrowd test
 ----------------------------------------------------------------------
 1/38=1/1;
 2/12=1,17=6,18=5,40=1/2;
 3/5=7,16=1,25=1,30=1,116=2/1,2,3;
 4/13=-1/1;
 5/5=100002,16=1,32=2,38=1/2;
 8/6=1,10=90,11=11/1,4;
 9/8=4,13=1/2;
 6/7=2,8=2,9=2,10=2,28=1/1;
 99/5=1,9=1/99;
 ----------------------------------------------------------------------
 hf stability analysis of h10 triangular lattice, y= 0.7868496627299574
 9 alpha= 47.000000000000000
 ----------------------------------------------------------------------
 Symbolic Z-matrix:
 Charge =  0 Multiplicity = 3
 H
 H                    1     1.07588 
 H                    1     1.07588  2     86. 
 H                    2     1.07588  1     94.      3     0.       0
 H                    3     1.07588  1     180.     2     0.       0
 H                    4     1.07588  2     180.     1     0.       0
 H                    5     1.07588  3     180.     2     0.       0
 H                    6     1.07588  4     180.     1     0.       0
 H                    7     1.07588  5     180.     2     0.       0
 H                    8     1.07588  6     180.     1     0.       0
 
                          Input orientation:                          
 ---------------------------------------------------------------------
 Center     Atomic      Atomic             Coordinates (Angstroms)
 Number     Number       Type             X           Y           Z
 ---------------------------------------------------------------------
      1          1           0        0.000000    0.000000    0.000000
      2          1           0        0.000000    0.000000    1.075881
      3          1           0        1.073260    0.000000    0.075050
      4          1           0        1.073260    0.000000    1.150931
      5          1           0        2.146521    0.000000    0.150099
      6          1           0        2.146521    0.000000    1.225980
      7          1           0        3.219781    0.000000    0.225149
      8          1           0        3.219781    0.000000    1.301030
      9          1           0        4.293041    0.000000    0.300199
     10          1           0        4.293041    0.000000    1.376080
 ---------------------------------------------------------------------
                    Distance matrix (angstroms):
                    1          2          3          4          5
     1  H    0.000000
     2  H    1.075881   0.000000
     3  H    1.075881   1.467498   0.000000
     4  H    1.573699   1.075881   1.075881   0.000000
     5  H    2.151762   2.337653   1.075881   1.467498   0.000000
     6  H    2.471959   2.151762   1.573699   1.075881   1.075881
     7  H    3.227643   3.330275   2.151762   2.337653   1.075881
     8  H    3.472703   3.227643   2.471959   2.151762   1.573699
     9  H    4.303525   4.362555   3.227643   3.330275   2.151762
    10  H    4.508193   4.303525   3.472703   3.227643   2.471959
                    6          7          8          9         10
     6  H    0.000000
     7  H    1.467498   0.000000
     8  H    1.075881   1.075881   0.000000
     9  H    2.337653   1.075881   1.467498   0.000000
    10  H    2.151762   1.573699   1.075881   1.075881   0.000000
 Stoichiometry    H10(3)
 Framework group  C2H[SGH(H10)]
 Deg. of freedom     9
 Full point group                 C2H     NOp   4
 Largest Abelian subgroup         C2H     NOp   4
 Largest concise Abelian subgroup C2      NOp   2
                         Standard orientation:                         
 ---------------------------------------------------------------------
 Center     Atomic      Atomic             Coordinates (Angstroms)
 Number     Number       Type             X           Y           Z
 ---------------------------------------------------------------------
      1          1           0        2.146521    0.688040    0.000000
      2          1           0        2.146521   -0.387841    0.000000
      3          1           0        1.073260    0.612990    0.000000
      4          1           0        1.073260   -0.462891    0.000000
      5          1           0        0.000000    0.537941    0.000000
      6          1           0       -0.000000   -0.537941    0.000000
      7          1           0       -1.073260    0.462891    0.000000
      8          1           0       -1.073260   -0.612990    0.000000
      9          1           0       -2.146521    0.387841    0.000000
     10          1           0       -2.146521   -0.688040    0.000000
 ---------------------------------------------------------------------
 Rotational constants (GHZ):    174.2542724     21.6457146     19.2539994
 General basis read from cards:  (5D, 7F)
 There are     5 symmetry adapted cartesian basis functions of AG  symmetry.
 There are     0 symmetry adapted cartesian basis functions of BG  symmetry.
 There are     0 symmetry adapted cartesian basis functions of AU  symmetry.
 There are     5 symmetry adapted cartesian basis functions of BU  symmetry.
 There are     5 symmetry adapted basis functions of AG  symmetry.
 There are     0 symmetry adapted basis functions of BG  symmetry.
 There are     0 symmetry adapted basis functions of AU  symmetry.
 There are     5 symmetry adapted basis functions of BU  symmetry.
    10 basis functions,   100 primitive gaussians,    10 cartesian basis functions
     6 alpha electrons        4 beta electrons
       nuclear repulsion energy        13.7414269781 Hartrees.
 NAtoms=   10 NActive=   10 NUniq=    5 SFac= 4.00D+00 NAtFMM=   60 NAOKFM=F Big=F
 Integral buffers will be    131072 words long.
 Regular integral format.
 Two-electron integral symmetry is turned on.
 One-electron integrals computed using PRISM.
 NBasis=    10 RedAO= T EigKep=  1.23D-01  NBF=     5     0     0     5
 NBsUse=    10 1.00D-06 EigRej= -1.00D+00 NBFU=     5     0     0     5
 ExpMin= 3.16D-02 ExpMax= 1.00D+03 ExpMxC= 1.00D+01 IAcc=3 IRadAn=         5 AccDes= 0.00D+00
 Harris functional with IExCor=  205 and IRadAn=       5 diagonalized for initial guess.
 HarFok:  IExCor=  205 AccDes= 0.00D+00 IRadAn=         5 IDoV= 1 UseB2=F ITyADJ=14
 ICtDFT=  3500011 ScaDFX=  1.000000  1.000000  1.000000  1.000000
 FoFCou: FMM=F IPFlag=           0 FMFlag=      100000 FMFlg1=           0
         NFxFlg=           0 DoJE=T BraDBF=F KetDBF=T FulRan=T
         wScrn=  0.000000 ICntrl=     500 IOpCl=  0 I1Cent=   200000004 NGrid=           0
         NMat0=    1 NMatS0=      1 NMatT0=    0 NMatD0=    1 NMtDS0=    0 NMtDT0=    0
 Petite list used in FoFCou.
 Mixing orbitals, IMix= 1 IMixAn=  0 NRI=1 NE=    6 Coef=  7.07106781D-01  7.07106781D-01
 Mixing orbitals, IMix= 1 IMixAn=  0 NRI=1 NE=    4 Coef= -7.07106781D-01  7.07106781D-01
 Initial guess orbital symmetries:
 Alpha Orbitals:
       Occupied  (AG) (BU) (AG) (BU) (AG) (BU)
       Virtual   (BU) (AG) (AG) (BU)
 Beta  Orbitals:
       Occupied  (AG) (BU) (AG) (?A)
       Virtual   (?A) (BU) (BU) (AG) (AG) (BU)
 Initial guess <Sx>= 0.0000 <Sy>= 0.0000 <Sz>= 1.0000 <S**2>= 2.0000 S= 1.0000
 Keep R1 and R2 ints in memory in symmetry-blocked form, NReq=879439.
 Requested convergence on RMS density matrix=1.00D-08 within 128 cycles.
 Requested convergence on MAX density matrix=1.00D-06.
 Requested convergence on             energy=1.00D-06.
 No special actions if energy rises.
 An orbital has undefined symmetry, so N**3 symmetry is turned off.
 Density matrix breaks symmetry, PCut= 1.00D-04
 Density matrix has no symmetry -- integrals replicated.
 Density matrix breaks symmetry, PCut= 1.00D-07
 Density matrix has no symmetry -- integrals replicated.
 Density matrix breaks symmetry, PCut= 1.00D-07
 Density matrix has no symmetry -- integrals replicated.
 Density matrix breaks symmetry, PCut= 1.00D-07
 Density matrix has no symmetry -- integrals replicated.
 Density matrix breaks symmetry, PCut= 1.00D-07
 Density matrix has no symmetry -- integrals replicated.
 Density matrix breaks symmetry, PCut= 1.00D-07
 Density matrix has no symmetry -- integrals replicated.
 Density matrix breaks symmetry, PCut= 1.00D-07
 Density matrix has no symmetry -- integrals replicated.
 Density matrix breaks symmetry, PCut= 1.00D-07
 Density matrix has no symmetry -- integrals replicated.
 Density matrix breaks symmetry, PCut= 1.00D-07
 Density matrix has no symmetry -- integrals replicated.
 Density matrix breaks symmetry, PCut= 1.00D-07
 Density matrix has no symmetry -- integrals replicated.
 Density matrix breaks symmetry, PCut= 1.00D-07
 Density matrix has no symmetry -- integrals replicated.
 Density matrix breaks symmetry, PCut= 1.00D-07
 Density matrix has no symmetry -- integrals replicated.
 Density matrix breaks symmetry, PCut= 1.00D-07
 Density matrix has no symmetry -- integrals replicated.
 Density matrix breaks symmetry, PCut= 1.00D-07
 Density matrix has no symmetry -- integrals replicated.
 Density matrix breaks symmetry, PCut= 1.00D-07
 Density matrix has no symmetry -- integrals replicated.
 Density matrix breaks symmetry, PCut= 1.00D-07
 Density matrix has no symmetry -- integrals replicated.
 Density matrix breaks symmetry, PCut= 1.00D-07
 Density matrix has no symmetry -- integrals replicated.
 Density matrix breaks symmetry, PCut= 1.00D-07
 Density matrix has no symmetry -- integrals replicated.
 Density matrix breaks symmetry, PCut= 1.00D-07
 Density matrix has no symmetry -- integrals replicated.
 SCF Done:  E(UHF) =  -4.92449972333     A.U. after   22 cycles
            NFock= 22  Conv=0.23D-08     -V/T= 1.9439
 <Sx>= 0.0000 <Sy>= 0.0000 <Sz>= 1.0000 <S**2>= 2.1426 S= 1.0468
 <L.S>= 0.000000000000E+00
 Annihilation of the first spin contaminant:
 S**2 before annihilation     2.1426,   after     2.0068
 Range of M.O.s used for correlation:     1    10
 NBasis=    10 NAE=     6 NBE=     4 NFC=     0 NFV=     0
 NROrb=     10 NOA=     6 NOB=     4 NVA=     4 NVB=     6
 Semi-Direct transformation.
 ModeAB=           2 MOrb=             6 LenV=     134107070
 LASXX=         1146 LTotXX=        1146 LenRXX=        1146
 LTotAB=        1971 MaxLAS=        3300 LenRXY=        3300
 NonZer=        3300 LenScr=      655360 LnRSAI=           0
 LnScr1=           0 LExtra=           0 Total=       659806
 MaxDsk=          -1 SrtSym=           F ITran=            3
 JobTyp=1 Pass  1:  I=   1 to   6.
 (rs|ai) integrals will be sorted in core.
 ModeAB=           2 MOrb=             4 LenV=     134107070
 LASXX=          831 LTotXX=         831 LenRXX=        2200
 LTotAB=         100 MaxLAS=        2200 LenRXY=         100
 NonZer=        2200 LenScr=      655360 LnRSAI=           0
 LnScr1=           0 LExtra=           0 Total=       657660
 MaxDsk=          -1 SrtSym=           F ITran=            3
 JobTyp=2 Pass  1:  I=   1 to   4.
 (rs|ai) integrals will be sorted in core.
 SymMOI:  orbitals are not symmetric.
 Spin components of T(2) and E(2):
     alpha-alpha T2 =       0.3321504836D-02 E2=     -0.4904733721D-02
     alpha-beta  T2 =       0.3995060009D-01 E2=     -0.6209671596D-01
     beta-beta   T2 =       0.3814410626D-02 E2=     -0.5110414561D-02
 ANorm=    0.1023272454D+01
 E2 =    -0.7211186424D-01 EUMP2 =    -0.49966115875784D+01
 (S**2,0)=  0.21426D+01           (S**2,1)=  0.20820D+01
 E(PUHF)=      -0.49350061747D+01        E(PMP2)=      -0.50049516660D+01
 Second order stability test of a single determinant UHF wave function:
 Stabil:  MDV=134217728
 ***********************************************************************
 Matrix         Lowest Root    Major Pairs
 ***********************************************************************
 Internal UHF     0.0870772    Stable
 RUHF --> CUHF (A)0.2179248    Stable
 RUHF --> CUHF (B)0.1615804    Stable

 RUHF --> GHF    -0.0578559    6A=5B 5A=6B 3B=7A 4B=8A 3A=7B 4A=8B 2B=9A 2A=9B 1B
 =10A 1A=10B
 Not stable.
 ***********************************************************************

 **********************************************************************

            Population analysis using the SCF density.

 **********************************************************************

 Orbital symmetries:
 Alpha Orbitals:
       Occupied  (AG) (BU) (AG) (BU) (AG) (BU)
       Virtual   (BU) (AG) (AG) (BU)
 Beta  Orbitals:
       Occupied  (AG) (BU) (AG) (BU)
       Virtual   (AG) (BU) (BU) (AG) (AG) (BU)
 The electronic state is 3-BU.
 Alpha  occ. eigenvalues --   -0.90456  -0.81620  -0.57771  -0.48824  -0.37104
 Alpha  occ. eigenvalues --   -0.34733
 Alpha virt. eigenvalues --    0.14657   0.30975   0.43951   0.87608
  Beta  occ. eigenvalues --   -0.84505  -0.66452  -0.49263  -0.40769
  Beta virt. eigenvalues --    0.02789   0.04845   0.22964   0.40407   0.59340
  Beta virt. eigenvalues --    0.94089
          Condensed to atoms (all electrons):
               1          2          3          4          5          6
     1  H    0.850541   0.209138   0.138430  -0.168922  -0.023077  -0.041637
     2  H    0.209138   0.835638  -0.169695   0.166987  -0.063424  -0.015413
     3  H    0.138430  -0.169695   1.041353  -0.065573   0.260357  -0.108258
     4  H   -0.168922   0.166987  -0.065573   1.055423  -0.099672   0.220640
     5  H   -0.023077  -0.063424   0.260357  -0.099672   0.918344  -0.044695
     6  H   -0.041637  -0.015413  -0.108258   0.220640  -0.044695   0.918344
     7  H    0.004678   0.007042  -0.046028  -0.049435   0.220640  -0.099672
     8  H    0.007282   0.003470  -0.039009  -0.046028  -0.108258   0.260357
     9  H   -0.000837   0.000709   0.003470   0.007042  -0.015413  -0.063424
    10  H    0.000158  -0.000837   0.007282   0.004678  -0.041637  -0.023077
               7          8          9         10
     1  H    0.004678   0.007282  -0.000837   0.000158
     2  H    0.007042   0.003470   0.000709  -0.000837
     3  H   -0.046028  -0.039009   0.003470   0.007282
     4  H   -0.049435  -0.046028   0.007042   0.004678
     5  H    0.220640  -0.108258  -0.015413  -0.041637
     6  H   -0.099672   0.260357  -0.063424  -0.023077
     7  H    1.055423  -0.065573   0.166987  -0.168922
     8  H   -0.065573   1.041353  -0.169695   0.138430
     9  H    0.166987  -0.169695   0.835638   0.209138
    10  H   -0.168922   0.138430   0.209138   0.850541
          Atomic-Atomic Spin Densities.
               1          2          3          4          5          6
     1  H    0.502912   0.019265  -0.012897  -0.203367   0.001006   0.004876
     2  H    0.019265   0.435949  -0.225210   0.019225  -0.004202   0.007326
     3  H   -0.012897  -0.225210   0.636092  -0.036250   0.019881   0.041176
     4  H   -0.203367   0.019225  -0.036250   0.655061   0.055710  -0.052360
     5  H    0.001006  -0.004202   0.019881   0.055710  -0.463317   0.084543
     6  H    0.004876   0.007326   0.041176  -0.052360   0.084543  -0.463317
     7  H    0.003557   0.011634  -0.076722  -0.007150  -0.052360   0.055710
     8  H    0.009636   0.001089  -0.005864  -0.076722   0.041176   0.019881
     9  H   -0.002146  -0.000159   0.001089   0.011634   0.007326  -0.004202
    10  H   -0.000523  -0.002146   0.009636   0.003557   0.004876   0.001006
               7          8          9         10
     1  H    0.003557   0.009636  -0.002146  -0.000523
     2  H    0.011634   0.001089  -0.000159  -0.002146
     3  H   -0.076722  -0.005864   0.001089   0.009636
     4  H   -0.007150  -0.076722   0.011634   0.003557
     5  H   -0.052360   0.041176   0.007326   0.004876
     6  H    0.055710   0.019881  -0.004202   0.001006
     7  H    0.655061  -0.036250   0.019225  -0.203367
     8  H   -0.036250   0.636092  -0.225210  -0.012897
     9  H    0.019225  -0.225210   0.435949   0.019265
    10  H   -0.203367  -0.012897   0.019265   0.502912
 Mulliken charges and spin densities:
               1          2
     1  H    0.024247   0.322319
     2  H    0.026385   0.262771
     3  H   -0.022329   0.350931
     4  H   -0.025139   0.369338
     5  H   -0.003164  -0.305360
     6  H   -0.003164  -0.305360
     7  H   -0.025139   0.369338
     8  H   -0.022329   0.350931
     9  H    0.026385   0.262771
    10  H    0.024247   0.322319
 Sum of Mulliken charges =  -0.00000   2.00000
 Mulliken charges and spin densities with hydrogens summed into heavy atoms:
               1          2
 Electronic spatial extent (au):  <R**2>=            123.8700
 Charge=             -0.0000 electrons
 Dipole moment (field-independent basis, Debye):
    X=              0.0000    Y=             -0.0000    Z=              0.0000  Tot=              0.0000
 Quadrupole moment (field-independent basis, Debye-Ang):
   XX=            -13.3410   YY=            -15.3208   ZZ=            -12.8519
   XY=              0.1612   XZ=              0.0000   YZ=             -0.0000
 Traceless Quadrupole moment (field-independent basis, Debye-Ang):
   XX=              0.4969   YY=             -1.4829   ZZ=              0.9860
   XY=              0.1612   XZ=              0.0000   YZ=             -0.0000
 Octapole moment (field-independent basis, Debye-Ang**2):
  XXX=              0.0000  YYY=             -0.0000  ZZZ=             -0.0000  XYY=             -0.0000
  XXY=             -0.0000  XXZ=             -0.0000  XZZ=              0.0000  YZZ=             -0.0000
  YYZ=             -0.0000  XYZ=              0.0000
 Hexadecapole moment (field-independent basis, Debye-Ang**3):
 XXXX=           -210.2561 YYYY=            -45.8759 ZZZZ=            -15.4458 XXXY=             -6.3942
 XXXZ=              0.0000 YYYX=             -6.4037 YYYZ=              0.0000 ZZZX=              0.0000
 ZZZY=              0.0000 XXYY=            -42.0732 XXZZ=            -36.0902 YYZZ=            -10.0806
 XXYZ=              0.0000 YYXZ=              0.0000 ZZXY=             -2.0824
 N-N= 1.374142697812D+01 E-N=-3.663423695166D+01  KE= 5.217350374668D+00
 Symmetry AG   KE= 2.358592549415D+00
 Symmetry BG   KE= 0.000000000000D+00
 Symmetry AU   KE= 0.000000000000D+00
 Symmetry BU   KE= 2.858757825254D+00
                          Isotropic Fermi Contact Couplings
        Atom                 a.u.       MegaHertz       Gauss      10(-4) cm-1
     1  H(1)               0.14033     313.62210     111.90816     104.61307
     2  H(1)               0.12035     268.98231      95.97957      89.72284
     3  H(1)               0.17143     383.14689     136.71633     127.80405
     4  H(1)               0.17716     395.94207     141.28197     132.07206
     5  H(1)              -0.12605    -281.71531    -100.52303     -93.97011
     6  H(1)              -0.12605    -281.71531    -100.52303     -93.97011
     7  H(1)               0.17716     395.94207     141.28197     132.07206
     8  H(1)               0.17143     383.14689     136.71633     127.80405
     9  H(1)               0.12035     268.98231      95.97957      89.72284
    10  H(1)               0.14033     313.62210     111.90816     104.61307
 --------------------------------------------------------
       Center         ----  Spin Dipole Couplings  ----
                      3XX-RR        3YY-RR        3ZZ-RR
 --------------------------------------------------------
     1   Atom        0.033290      0.014874     -0.048165
     2   Atom        0.033461      0.022827     -0.056288
     3   Atom       -0.019792      0.048660     -0.028868
     4   Atom       -0.026893      0.048015     -0.021123
     5   Atom        0.182814     -0.093305     -0.089509
     6   Atom        0.182814     -0.093305     -0.089509
     7   Atom       -0.026893      0.048015     -0.021123
     8   Atom       -0.019792      0.048660     -0.028868
     9   Atom        0.033461      0.022827     -0.056288
    10   Atom        0.033290      0.014874     -0.048165
 --------------------------------------------------------
                        XY            XZ            YZ
 --------------------------------------------------------
     1   Atom       -0.013715     -0.000000     -0.000000
     2   Atom        0.025291     -0.000000      0.000000
     3   Atom        0.020771     -0.000000     -0.000000
     4   Atom       -0.022114     -0.000000      0.000000
     5   Atom        0.014901     -0.000000     -0.000000
     6   Atom        0.014901     -0.000000      0.000000
     7   Atom       -0.022114     -0.000000     -0.000000
     8   Atom        0.020771     -0.000000      0.000000
     9   Atom        0.025291     -0.000000     -0.000000
    10   Atom       -0.013715      0.000000      0.000000
 --------------------------------------------------------


 ---------------------------------------------------------------------------------
              Anisotropic Spin Dipole Couplings in Principal Axis System
 ---------------------------------------------------------------------------------

       Atom             a.u.   MegaHertz   Gauss  10(-4) cm-1        Axes

              Baa    -0.0482   -25.698    -9.170    -8.572  0.0000  0.0000  1.0000
     1 H(1)   Bbb     0.0076     4.035     1.440     1.346  0.4704  0.8824 -0.0000
              Bcc     0.0406    21.663     7.730     7.226  0.8824 -0.4704  0.0000
 
              Baa    -0.0563   -30.032   -10.716   -10.018  0.0000  0.0000  1.0000
     2 H(1)   Bbb     0.0023     1.227     0.438     0.409 -0.6302  0.7764  0.0000
              Bcc     0.0540    28.805    10.278     9.608  0.7764  0.6302  0.0000
 
              Baa    -0.0289   -15.402    -5.496    -5.138  0.0000  0.0000  1.0000
     3 H(1)   Bbb    -0.0256   -13.660    -4.874    -4.556  0.9630 -0.2694  0.0000
              Bcc     0.0545    29.062    10.370     9.694  0.2694  0.9630 -0.0000
 
              Baa    -0.0329   -17.572    -6.270    -5.861  0.9647  0.2635  0.0000
     4 H(1)   Bbb    -0.0211   -11.270    -4.021    -3.759  0.0000  0.0000  1.0000
              Bcc     0.0541    28.842    10.292     9.621 -0.2635  0.9647  0.0000
 
              Baa    -0.0941   -50.211   -17.916   -16.748 -0.0537  0.9986 -0.0000
     5 H(1)   Bbb    -0.0895   -47.758   -17.041   -15.930  0.0000  0.0000  1.0000
              Bcc     0.1836    97.969    34.958    32.679  0.9986  0.0537  0.0000
 
              Baa    -0.0941   -50.211   -17.916   -16.748 -0.0537  0.9986  0.0000
     6 H(1)   Bbb    -0.0895   -47.758   -17.041   -15.930  0.0000  0.0000  1.0000
              Bcc     0.1836    97.969    34.958    32.679  0.9986  0.0537  0.0000
 
              Baa    -0.0329   -17.572    -6.270    -5.861  0.9647  0.2635  0.0000
     7 H(1)   Bbb    -0.0211   -11.270    -4.021    -3.759  0.0000  0.0000  1.0000
              Bcc     0.0541    28.842    10.292     9.621 -0.2635  0.9647 -0.0000
 
              Baa    -0.0289   -15.402    -5.496    -5.138  0.0000  0.0000  1.0000
     8 H(1)   Bbb    -0.0256   -13.660    -4.874    -4.556  0.9630 -0.2694  0.0000
              Bcc     0.0545    29.062    10.370     9.694  0.2694  0.9630  0.0000
 
              Baa    -0.0563   -30.032   -10.716   -10.018  0.0000  0.0000  1.0000
     9 H(1)   Bbb     0.0023     1.227     0.438     0.409 -0.6302  0.7764 -0.0000
              Bcc     0.0540    28.805    10.278     9.608  0.7764  0.6302  0.0000
 
              Baa    -0.0482   -25.698    -9.170    -8.572  0.0000  0.0000  1.0000
    10 H(1)   Bbb     0.0076     4.035     1.440     1.346  0.4704  0.8824  0.0000
              Bcc     0.0406    21.663     7.730     7.226  0.8824 -0.4704  0.0000
 

 ---------------------------------------------------------------------------------


 Test job not archived.
 1\1\GINC-SULU\Stability\UHF\Gen\H10(3)\LCJ1\23-Feb-2017\0\\#uhf/gen sc
 f(tight,novaracc,noincfock,fulldiag, ) stable(crhf) guess=mix geom=noc
 rowd test\\hf stability analysis of h10 triangular lattice, y= 0.78684
 966272995749 alpha= 47.000000000000000\\0,3\H\H,1,1.0758811287\H,1,1.0
 758811287,2,86.\H,2,1.0758811287,1,94.,3,0.,0\H,3,1.0758811287,1,180.,
 2,0.,0\H,4,1.0758811287,2,180.,1,0.,0\H,5,1.0758811287,3,180.,2,0.,0\H
 ,6,1.0758811287,4,180.,1,0.,0\H,7,1.0758811287,5,180.,2,0.,0\H,8,1.075
 8811287,6,180.,1,0.,0\\Version=ES64L-G09RevE.01\State=3-BU\HF=-4.92449
 97\MP2=-4.9966116\PUHF=-4.9350062\PMP2-0=-5.0049517\S2=2.142635\S2-1=2
 .081954\S2A=2.006758\RMSD=2.263e-09\Dipole=0.,0.,0.\Quadrupole=0.36942
 36,0.7330844,-1.1025079,0.,0.1198677,0.\PG=C02H [SGH(H10)]\\@


 STEINBACH'S GUIDELINES FOR SYSTEMS PROGRAMMING:
 NEVER TEST FOR AN ERROR CONDITION YOU DON'T KNOW HOW
 TO HANDLE.
 Job cpu time:       0 days  0 hours  0 minutes  1.5 seconds.
 File lengths (MBytes):  RWF=     94 Int=      0 D2E=      0 Chk=      2 Scr=      2
 Normal termination of Gaussian 09 at Thu Feb 23 13:06:01 2017.
