 Entering Gaussian System, Link 0=g09
 AtFile(1): H.gbs
            H     0
            S   10   1.00
               1000.000000000000            0.000068713567
                316.227766000000            0.000169141320
                100.000000000000            0.000823394812
                 31.622776600000            0.003425569236
                 10.000000000000            0.013951996000
                  3.162277660000            0.056909313560
                  1.000000000000            0.198286399900
                  0.316227766000            0.496922426700
                  0.100000000000            0.369846276400
                  0.031622776600            0.003752720039
            ****
 Initial command:
 /projects/guscus/apps/gau/g09-e1/g09/l1.exe "/users/lcj1/gaussian/h10/2rows_uhf/ag2bu3/triplet/mix/Gau-6746.inp" -scrdir="/users/lcj1/gaussian/h10/2rows_uhf/ag2bu3/triplet/mix/"
 Entering Link 1 = /projects/guscus/apps/gau/g09-e1/g09/l1.exe PID=      6750.
  
 Copyright (c) 1988,1990,1992,1993,1995,1998,2003,2009,2015,
            Gaussian, Inc.  All Rights Reserved.
  
 This is part of the Gaussian(R) 09 program.  It is based on
 the Gaussian(R) 03 system (copyright 2003, Gaussian, Inc.),
 the Gaussian(R) 98 system (copyright 1998, Gaussian, Inc.),
 the Gaussian(R) 94 system (copyright 1995, Gaussian, Inc.),
 the Gaussian 92(TM) system (copyright 1992, Gaussian, Inc.),
 the Gaussian 90(TM) system (copyright 1990, Gaussian, Inc.),
 the Gaussian 88(TM) system (copyright 1988, Gaussian, Inc.),
 the Gaussian 86(TM) system (copyright 1986, Carnegie Mellon
 University), and the Gaussian 82(TM) system (copyright 1983,
 Carnegie Mellon University). Gaussian is a federally registered
 trademark of Gaussian, Inc.
  
 This software contains proprietary and confidential information,
 including trade secrets, belonging to Gaussian, Inc.
  
 This software is provided under written license and may be
 used, copied, transmitted, or stored only in accord with that
 written license.
  
 The following legend is applicable only to US Government
 contracts under FAR:
  
                    RESTRICTED RIGHTS LEGEND
  
 Use, reproduction and disclosure by the US Government is
 subject to restrictions as set forth in subparagraphs (a)
 and (c) of the Commercial Computer Software - Restricted
 Rights clause in FAR 52.227-19.
  
 Gaussian, Inc.
 340 Quinnipiac St., Bldg. 40, Wallingford CT 06492
  
  
 ---------------------------------------------------------------
 Warning -- This program may not be used in any manner that
 competes with the business of Gaussian, Inc. or will provide
 assistance to any competitor of Gaussian, Inc.  The licensee
 of this program is prohibited from giving any competitor of
 Gaussian, Inc. access to this program.  By using this program,
 the user acknowledges that Gaussian, Inc. is engaged in the
 business of creating and licensing software in the field of
 computational chemistry and represents and warrants to the
 licensee that it is not a competitor of Gaussian, Inc. and that
 it will not use this program in any manner prohibited above.
 ---------------------------------------------------------------
  

 Cite this work as:
 Gaussian 09, Revision E.01,
 M. J. Frisch, G. W. Trucks, H. B. Schlegel, G. E. Scuseria, 
 M. A. Robb, J. R. Cheeseman, G. Scalmani, V. Barone, B. Mennucci, 
 G. A. Petersson, H. Nakatsuji, M. Caricato, X. Li, H. P. Hratchian, 
 A. F. Izmaylov, J. Bloino, G. Zheng, J. L. Sonnenberg, M. Hada, 
 M. Ehara, K. Toyota, R. Fukuda, J. Hasegawa, M. Ishida, T. Nakajima, 
 Y. Honda, O. Kitao, H. Nakai, T. Vreven, J. A. Montgomery, Jr., 
 J. E. Peralta, F. Ogliaro, M. Bearpark, J. J. Heyd, E. Brothers, 
 K. N. Kudin, V. N. Staroverov, T. Keith, R. Kobayashi, J. Normand, 
 K. Raghavachari, A. Rendell, J. C. Burant, S. S. Iyengar, J. Tomasi, 
 M. Cossi, N. Rega, J. M. Millam, M. Klene, J. E. Knox, J. B. Cross, 
 V. Bakken, C. Adamo, J. Jaramillo, R. Gomperts, R. E. Stratmann, 
 O. Yazyev, A. J. Austin, R. Cammi, C. Pomelli, J. W. Ochterski, 
 R. L. Martin, K. Morokuma, V. G. Zakrzewski, G. A. Voth, 
 P. Salvador, J. J. Dannenberg, S. Dapprich, A. D. Daniels, 
 O. Farkas, J. B. Foresman, J. V. Ortiz, J. Cioslowski, 
 and D. J. Fox, Gaussian, Inc., Wallingford CT, 2013.
 
 ******************************************
 Gaussian 09:  ES64L-G09RevE.01 30-Nov-2015
                23-Feb-2017 
 ******************************************
 %chk=h10.chk
 ----------------------------------------------------------------------
 #uhf/gen scf(tight,novaracc,noincfock,fulldiag, ) stable(crhf) guess=m
 ix geom=nocrowd test
 ----------------------------------------------------------------------
 1/38=1/1;
 2/12=1,17=6,18=5,40=1/2;
 3/5=7,16=1,25=1,30=1,116=2/1,2,3;
 4/13=-1/1;
 5/5=100002,16=1,32=2,38=1/2;
 8/6=1,10=90,11=11/1,4;
 9/8=4,13=1/2;
 6/7=2,8=2,9=2,10=2,28=1/1;
 99/5=1,9=1/99;
 ----------------------------------------------------------------------
 hf stability analysis of h10 triangular lattice, y= 0.6417319999662348
 7 alpha= 35.500000000000000
 ----------------------------------------------------------------------
 Symbolic Z-matrix:
 Charge =  0 Multiplicity = 3
 H
 H                    1     1.1051 
 H                    1     1.1051   2     109. 
 H                    2     1.1051   1     71.      3     0.       0
 H                    3     1.1051   1     180.     2     0.       0
 H                    4     1.1051   2     180.     1     0.       0
 H                    5     1.1051   3     180.     2     0.       0
 H                    6     1.1051   4     180.     1     0.       0
 H                    7     1.1051   5     180.     2     0.       0
 H                    8     1.1051   6     180.     1     0.       0
 
                          Input orientation:                          
 ---------------------------------------------------------------------
 Center     Atomic      Atomic             Coordinates (Angstroms)
 Number     Number       Type             X           Y           Z
 ---------------------------------------------------------------------
      1          1           0        0.000000    0.000000    0.000000
      2          1           0        0.000000    0.000000    1.105095
      3          1           0        1.044888    0.000000   -0.359784
      4          1           0        1.044888    0.000000    0.745311
      5          1           0        2.089776    0.000000   -0.719568
      6          1           0        2.089776    0.000000    0.385528
      7          1           0        3.134664    0.000000   -1.079351
      8          1           0        3.134664    0.000000    0.025744
      9          1           0        4.179552    0.000000   -1.439135
     10          1           0        4.179552    0.000000   -0.334040
 ---------------------------------------------------------------------
                    Distance matrix (angstroms):
                    1          2          3          4          5
     1  H    0.000000
     2  H    1.105095   0.000000
     3  H    1.105095   1.799350   0.000000
     4  H    1.283464   1.105095   1.105095   0.000000
     5  H    2.210190   2.774267   1.105095   1.799350   0.000000
     6  H    2.125040   2.210190   1.283464   1.105095   1.105095
     7  H    3.315285   3.820723   2.210190   2.774267   1.105095
     8  H    3.134770   3.315285   2.125040   2.210190   1.283464
     9  H    4.420380   4.893032   3.315285   3.820723   2.210190
    10  H    4.192879   4.420380   3.134770   3.315285   2.125040
                    6          7          8          9         10
     6  H    0.000000
     7  H    1.799350   0.000000
     8  H    1.105095   1.105095   0.000000
     9  H    2.774267   1.105095   1.799350   0.000000
    10  H    2.210190   1.283464   1.105095   1.105095   0.000000
 Stoichiometry    H10(3)
 Framework group  C2H[SGH(H10)]
 Deg. of freedom     9
 Full point group                 C2H     NOp   4
 Largest Abelian subgroup         C2H     NOp   4
 Largest concise Abelian subgroup C2      NOp   2
                         Standard orientation:                         
 ---------------------------------------------------------------------
 Center     Atomic      Atomic             Coordinates (Angstroms)
 Number     Number       Type             X           Y           Z
 ---------------------------------------------------------------------
      1          1           0        2.089776   -0.167020    0.000000
      2          1           0        2.089776   -1.272115    0.000000
      3          1           0        1.044888    0.192764   -0.000000
      4          1           0        1.044888   -0.912331    0.000000
      5          1           0        0.000000    0.552548   -0.000000
      6          1           0       -0.000000   -0.552548   -0.000000
      7          1           0       -1.044888    0.912331    0.000000
      8          1           0       -1.044888   -0.192764   -0.000000
      9          1           0       -2.089776    1.272115    0.000000
     10          1           0       -2.089776    0.167020   -0.000000
 ---------------------------------------------------------------------
 Rotational constants (GHZ):    186.4537200     20.2294615     18.2494692
 General basis read from cards:  (5D, 7F)
 There are     5 symmetry adapted cartesian basis functions of AG  symmetry.
 There are     0 symmetry adapted cartesian basis functions of BG  symmetry.
 There are     0 symmetry adapted cartesian basis functions of AU  symmetry.
 There are     5 symmetry adapted cartesian basis functions of BU  symmetry.
 There are     5 symmetry adapted basis functions of AG  symmetry.
 There are     0 symmetry adapted basis functions of BG  symmetry.
 There are     0 symmetry adapted basis functions of AU  symmetry.
 There are     5 symmetry adapted basis functions of BU  symmetry.
    10 basis functions,   100 primitive gaussians,    10 cartesian basis functions
     6 alpha electrons        4 beta electrons
       nuclear repulsion energy        13.5333941658 Hartrees.
 NAtoms=   10 NActive=   10 NUniq=    5 SFac= 4.00D+00 NAtFMM=   60 NAOKFM=F Big=F
 Integral buffers will be    131072 words long.
 Regular integral format.
 Two-electron integral symmetry is turned on.
 One-electron integrals computed using PRISM.
 NBasis=    10 RedAO= T EigKep=  1.48D-01  NBF=     5     0     0     5
 NBsUse=    10 1.00D-06 EigRej= -1.00D+00 NBFU=     5     0     0     5
 ExpMin= 3.16D-02 ExpMax= 1.00D+03 ExpMxC= 1.00D+01 IAcc=3 IRadAn=         5 AccDes= 0.00D+00
 Harris functional with IExCor=  205 and IRadAn=       5 diagonalized for initial guess.
 HarFok:  IExCor=  205 AccDes= 0.00D+00 IRadAn=         5 IDoV= 1 UseB2=F ITyADJ=14
 ICtDFT=  3500011 ScaDFX=  1.000000  1.000000  1.000000  1.000000
 FoFCou: FMM=F IPFlag=           0 FMFlag=      100000 FMFlg1=           0
         NFxFlg=           0 DoJE=T BraDBF=F KetDBF=T FulRan=T
         wScrn=  0.000000 ICntrl=     500 IOpCl=  0 I1Cent=   200000004 NGrid=           0
         NMat0=    1 NMatS0=      1 NMatT0=    0 NMatD0=    1 NMtDS0=    0 NMtDT0=    0
 Petite list used in FoFCou.
 Mixing orbitals, IMix= 1 IMixAn=  0 NRI=1 NE=    6 Coef=  7.07106781D-01  7.07106781D-01
 Mixing orbitals, IMix= 1 IMixAn=  0 NRI=1 NE=    4 Coef= -7.07106781D-01  7.07106781D-01
 Initial guess orbital symmetries:
 Alpha Orbitals:
       Occupied  (AG) (BU) (AG) (BU) (BU) (?A)
       Virtual   (?A) (AG) (AG) (BU)
 Beta  Orbitals:
       Occupied  (AG) (BU) (AG) (BU)
       Virtual   (BU) (AG) (BU) (AG) (AG) (BU)
 Initial guess <Sx>= 0.0000 <Sy>= 0.0000 <Sz>= 1.0000 <S**2>= 2.0000 S= 1.0000
 Keep R1 and R2 ints in memory in symmetry-blocked form, NReq=879425.
 Requested convergence on RMS density matrix=1.00D-08 within 128 cycles.
 Requested convergence on MAX density matrix=1.00D-06.
 Requested convergence on             energy=1.00D-06.
 No special actions if energy rises.
 An orbital has undefined symmetry, so N**3 symmetry is turned off.
 Density matrix breaks symmetry, PCut= 1.00D-04
 Density matrix has no symmetry -- integrals replicated.
 Density matrix breaks symmetry, PCut= 1.00D-07
 Density matrix has no symmetry -- integrals replicated.
 Density matrix breaks symmetry, PCut= 1.00D-07
 Density matrix has no symmetry -- integrals replicated.
 Density matrix breaks symmetry, PCut= 1.00D-07
 Density matrix has no symmetry -- integrals replicated.
 Density matrix breaks symmetry, PCut= 1.00D-07
 Density matrix has no symmetry -- integrals replicated.
 Density matrix breaks symmetry, PCut= 1.00D-07
 Density matrix has no symmetry -- integrals replicated.
 Density matrix breaks symmetry, PCut= 1.00D-07
 Density matrix has no symmetry -- integrals replicated.
 Density matrix breaks symmetry, PCut= 1.00D-07
 Density matrix has no symmetry -- integrals replicated.
 Density matrix breaks symmetry, PCut= 1.00D-07
 Density matrix has no symmetry -- integrals replicated.
 Density matrix breaks symmetry, PCut= 1.00D-07
 Density matrix has no symmetry -- integrals replicated.
 Density matrix breaks symmetry, PCut= 1.00D-07
 Density matrix has no symmetry -- integrals replicated.
 Density matrix breaks symmetry, PCut= 1.00D-07
 Density matrix has no symmetry -- integrals replicated.
 Density matrix breaks symmetry, PCut= 1.00D-07
 Density matrix has no symmetry -- integrals replicated.
 Density matrix breaks symmetry, PCut= 1.00D-07
 Density matrix has no symmetry -- integrals replicated.
 Density matrix breaks symmetry, PCut= 1.00D-07
 Density matrix has no symmetry -- integrals replicated.
 Density matrix breaks symmetry, PCut= 1.00D-07
 Density matrix has no symmetry -- integrals replicated.
 Density matrix breaks symmetry, PCut= 1.00D-07
 Density matrix has no symmetry -- integrals replicated.
 Density matrix breaks symmetry, PCut= 1.00D-07
 Density matrix has no symmetry -- integrals replicated.
 Density matrix breaks symmetry, PCut= 1.00D-07
 Density matrix has no symmetry -- integrals replicated.
 Density matrix breaks symmetry, PCut= 1.00D-07
 Density matrix has no symmetry -- integrals replicated.
 Density matrix breaks symmetry, PCut= 1.00D-07
 Density matrix has no symmetry -- integrals replicated.
 Density matrix breaks symmetry, PCut= 1.00D-07
 Density matrix has no symmetry -- integrals replicated.
 SCF Done:  E(UHF) =  -4.90907216190     A.U. after   23 cycles
            NFock= 23  Conv=0.58D-08     -V/T= 1.9491
 <Sx>= 0.0000 <Sy>= 0.0000 <Sz>= 1.0000 <S**2>= 2.1238 S= 1.0407
 <L.S>= 0.000000000000E+00
 Annihilation of the first spin contaminant:
 S**2 before annihilation     2.1238,   after     2.0056
 Range of M.O.s used for correlation:     1    10
 NBasis=    10 NAE=     6 NBE=     4 NFC=     0 NFV=     0
 NROrb=     10 NOA=     6 NOB=     4 NVA=     4 NVB=     6
 Semi-Direct transformation.
 ModeAB=           2 MOrb=             6 LenV=     134107126
 LASXX=         1146 LTotXX=        1146 LenRXX=        1146
 LTotAB=        1971 MaxLAS=        3300 LenRXY=        3300
 NonZer=        3300 LenScr=      655360 LnRSAI=           0
 LnScr1=           0 LExtra=           0 Total=       659806
 MaxDsk=          -1 SrtSym=           F ITran=            3
 JobTyp=1 Pass  1:  I=   1 to   6.
 (rs|ai) integrals will be sorted in core.
 ModeAB=           2 MOrb=             4 LenV=     134107126
 LASXX=          831 LTotXX=         831 LenRXX=        2200
 LTotAB=         100 MaxLAS=        2200 LenRXY=         100
 NonZer=        2200 LenScr=      655360 LnRSAI=           0
 LnScr1=           0 LExtra=           0 Total=       657660
 MaxDsk=          -1 SrtSym=           F ITran=            3
 JobTyp=2 Pass  1:  I=   1 to   4.
 (rs|ai) integrals will be sorted in core.
 SymMOI:  orbitals are not symmetric.
 Spin components of T(2) and E(2):
     alpha-alpha T2 =       0.3682956336D-02 E2=     -0.5396353144D-02
     alpha-beta  T2 =       0.4150251619D-01 E2=     -0.6330832625D-01
     beta-beta   T2 =       0.4428866825D-02 E2=     -0.5769673217D-02
 ANorm=    0.1024506876D+01
 E2 =    -0.7447435261D-01 EUMP2 =    -0.49835465145097D+01
 (S**2,0)=  0.21238D+01           (S**2,1)=  0.20683D+01
 E(PUHF)=      -0.49178576592D+01        E(PMP2)=      -0.49904215692D+01
 Second order stability test of a single determinant UHF wave function:
 Stabil:  MDV=134217728
 ***********************************************************************
 Matrix         Lowest Root    Major Pairs
 ***********************************************************************
 Internal UHF     0.0755264    Stable
 RUHF --> CUHF (A)0.2335021    Stable
 RUHF --> CUHF (B)0.1165123    Stable


 RUHF --> GHF    -0.0390641    6A=5B 5A=6B 3B=7A 4B=8A 4A=8B 3A=7B 6A=7B 3A=5B 2B
 =9A 2B=8A 4B=9A 2A=9B 1B=10A 1A=10B 4A=9B
 Not stable.
 ***********************************************************************

 **********************************************************************

            Population analysis using the SCF density.

 **********************************************************************

 Orbital symmetries:
 Alpha Orbitals:
       Occupied  (AG) (BU) (AG) (BU) (BU) (AG)
       Virtual   (BU) (AG) (AG) (BU)
 Beta  Orbitals:
       Occupied  (AG) (BU) (AG) (BU)
       Virtual   (BU) (AG) (BU) (AG) (AG) (BU)
 The electronic state is 3-BU.
 Alpha  occ. eigenvalues --   -0.89371  -0.80778  -0.58635  -0.46522  -0.35731
 Alpha  occ. eigenvalues --   -0.34545
 Alpha virt. eigenvalues --    0.15915   0.24185   0.47611   0.72519
  Beta  occ. eigenvalues --   -0.83522  -0.66981  -0.49004  -0.37880
  Beta virt. eigenvalues --    0.02416   0.03849   0.25576   0.35900   0.59446
  Beta virt. eigenvalues --    0.79119
          Condensed to atoms (all electrons):
               1          2          3          4          5          6
     1  H    0.864148   0.143291   0.234579  -0.151157  -0.008388  -0.107465
     2  H    0.143291   0.874498  -0.145085   0.139043  -0.013140  -0.033118
     3  H    0.234579  -0.145085   1.018465  -0.094752   0.179476  -0.091695
     4  H   -0.151157   0.139043  -0.094752   0.950565  -0.108362   0.305740
     5  H   -0.008388  -0.013140   0.179476  -0.108362   0.993713  -0.080137
     6  H   -0.107465  -0.033118  -0.091695   0.305740  -0.080137   0.993713
     7  H    0.001006   0.004881  -0.028721  -0.020043   0.305740  -0.108362
     8  H    0.002519   0.004264  -0.067788  -0.028721  -0.091695   0.179476
     9  H   -0.000554  -0.000174   0.004264   0.004881  -0.033118  -0.013140
    10  H    0.002030  -0.000554   0.002519   0.001006  -0.107465  -0.008388
               7          8          9         10
     1  H    0.001006   0.002519  -0.000554   0.002030
     2  H    0.004881   0.004264  -0.000174  -0.000554
     3  H   -0.028721  -0.067788   0.004264   0.002519
     4  H   -0.020043  -0.028721   0.004881   0.001006
     5  H    0.305740  -0.091695  -0.033118  -0.107465
     6  H   -0.108362   0.179476  -0.013140  -0.008388
     7  H    0.950565  -0.094752   0.139043  -0.151157
     8  H   -0.094752   1.018465  -0.145085   0.234579
     9  H    0.139043  -0.145085   0.874498   0.143291
    10  H   -0.151157   0.234579   0.143291   0.864148
          Atomic-Atomic Spin Densities.
               1          2          3          4          5          6
     1  H    0.414677  -0.021569   0.100646  -0.256672   0.005255  -0.026705
     2  H   -0.021569   0.608761  -0.146659  -0.024031   0.014374  -0.013130
     3  H    0.100646  -0.146659   0.529153  -0.040423  -0.172278   0.080705
     4  H   -0.256672  -0.024031  -0.040423   0.466950   0.025183   0.127444
     5  H    0.005255   0.014374  -0.172278   0.025183  -0.295138   0.051352
     6  H   -0.026705  -0.013130   0.080705   0.127444   0.051352  -0.295138
     7  H   -0.003620   0.005062  -0.058297  -0.001525   0.127444   0.025183
     8  H    0.013867   0.004716   0.000580  -0.058297   0.080705  -0.172278
     9  H   -0.001593  -0.000500   0.004716   0.005062  -0.013130   0.014374
    10  H    0.001137  -0.001593   0.013867  -0.003620  -0.026705   0.005255
               7          8          9         10
     1  H   -0.003620   0.013867  -0.001593   0.001137
     2  H    0.005062   0.004716  -0.000500  -0.001593
     3  H   -0.058297   0.000580   0.004716   0.013867
     4  H   -0.001525  -0.058297   0.005062  -0.003620
     5  H    0.127444   0.080705  -0.013130  -0.026705
     6  H    0.025183  -0.172278   0.014374   0.005255
     7  H    0.466950  -0.040423  -0.024031  -0.256672
     8  H   -0.040423   0.529153  -0.146659   0.100646
     9  H   -0.024031  -0.146659   0.608761  -0.021569
    10  H   -0.256672   0.100646  -0.021569   0.414677
 Mulliken charges and spin densities:
               1          2
     1  H    0.019992   0.225423
     2  H    0.026095   0.425432
     3  H   -0.011262   0.312012
     4  H    0.001800   0.240071
     5  H   -0.036624  -0.202938
     6  H   -0.036624  -0.202938
     7  H    0.001800   0.240071
     8  H   -0.011262   0.312012
     9  H    0.026095   0.425432
    10  H    0.019992   0.225423
 Sum of Mulliken charges =   0.00000   2.00000
 Mulliken charges and spin densities with hydrogens summed into heavy atoms:
               1          2
 Electronic spatial extent (au):  <R**2>=            128.6378
 Charge=              0.0000 electrons
 Dipole moment (field-independent basis, Debye):
    X=              0.0000    Y=              0.0000    Z=              0.0000  Tot=              0.0000
 Quadrupole moment (field-independent basis, Debye-Ang):
   XX=            -12.9874   YY=            -15.1469   ZZ=            -12.9064
   XY=             -1.1273   XZ=             -0.0000   YZ=             -0.0000
 Traceless Quadrupole moment (field-independent basis, Debye-Ang):
   XX=              0.6928   YY=             -1.4667   ZZ=              0.7739
   XY=             -1.1273   XZ=             -0.0000   YZ=             -0.0000
 Octapole moment (field-independent basis, Debye-Ang**2):
  XXX=              0.0000  YYY=             -0.0000  ZZZ=             -0.0000  XYY=              0.0000
  XXY=              0.0000  XXZ=             -0.0000  XZZ=              0.0000  YZZ=             -0.0000
  YYZ=             -0.0000  XYZ=              0.0000
 Hexadecapole moment (field-independent basis, Debye-Ang**3):
 XXXX=           -196.0809 YYYY=            -67.4048 ZZZZ=            -15.5565 XXXY=             27.3051
 XXXZ=             -0.0000 YYYX=             29.6888 YYYZ=              0.0000 ZZZX=             -0.0000
 ZZZY=              0.0000 XXYY=            -43.1588 XXZZ=            -34.4380 YYZZ=            -13.5780
 XXYZ=              0.0000 YYXZ=             -0.0000 ZZXY=              9.6517
 N-N= 1.353339416583D+01 E-N=-3.622775219030D+01  KE= 5.172501800948D+00
 Symmetry AG   KE= 2.343589204988D+00
 Symmetry BG   KE= 0.000000000000D+00
 Symmetry AU   KE= 0.000000000000D+00
 Symmetry BU   KE= 2.828912595960D+00
                          Isotropic Fermi Contact Couplings
        Atom                 a.u.       MegaHertz       Gauss      10(-4) cm-1
     1  H(1)               0.11040     246.74146      88.04348      82.30409
     2  H(1)               0.17228     385.04197     137.39255     128.43618
     3  H(1)               0.14501     324.07923     115.63952     108.10119
     4  H(1)               0.12379     276.66369      98.72048      92.28507
     5  H(1)              -0.08044    -179.78152     -64.15051     -59.96866
     6  H(1)              -0.08044    -179.78152     -64.15051     -59.96866
     7  H(1)               0.12379     276.66369      98.72048      92.28507
     8  H(1)               0.14501     324.07923     115.63952     108.10119
     9  H(1)               0.17228     385.04197     137.39255     128.43618
    10  H(1)               0.11040     246.74146      88.04348      82.30409
 --------------------------------------------------------
       Center         ----  Spin Dipole Couplings  ----
                      3XX-RR        3YY-RR        3ZZ-RR
 --------------------------------------------------------
     1   Atom        0.015795      0.041822     -0.057617
     2   Atom        0.018149      0.012326     -0.030474
     3   Atom       -0.003198      0.022384     -0.019185
     4   Atom        0.011227      0.036663     -0.047891
     5   Atom        0.124444     -0.051923     -0.072520
     6   Atom        0.124444     -0.051923     -0.072520
     7   Atom        0.011227      0.036663     -0.047891
     8   Atom       -0.003198      0.022384     -0.019185
     9   Atom        0.018149      0.012326     -0.030474
    10   Atom        0.015795      0.041822     -0.057617
 --------------------------------------------------------
                        XY            XZ            YZ
 --------------------------------------------------------
     1   Atom       -0.044086      0.000000     -0.000000
     2   Atom        0.002268     -0.000000     -0.000000
     3   Atom        0.023778     -0.000000     -0.000000
     4   Atom       -0.032774      0.000000     -0.000000
     5   Atom       -0.049233     -0.000000     -0.000000
     6   Atom       -0.049233      0.000000     -0.000000
     7   Atom       -0.032774     -0.000000      0.000000
     8   Atom        0.023778      0.000000     -0.000000
     9   Atom        0.002268      0.000000      0.000000
    10   Atom       -0.044086     -0.000000      0.000000
 --------------------------------------------------------


 ---------------------------------------------------------------------------------
              Anisotropic Spin Dipole Couplings in Principal Axis System
 ---------------------------------------------------------------------------------

       Atom             a.u.   MegaHertz   Gauss  10(-4) cm-1        Axes

              Baa    -0.0576   -30.742   -10.969   -10.254  0.0000  0.0000  1.0000
     1 H(1)   Bbb    -0.0172    -9.155    -3.267    -3.054  0.8010  0.5987  0.0000
              Bcc     0.0748    39.897    14.236    13.308 -0.5987  0.8010  0.0000
 
              Baa    -0.0305   -16.260    -5.802    -5.424  0.0000  0.0000  1.0000
     2 H(1)   Bbb     0.0115     6.161     2.198     2.055 -0.3249  0.9458 -0.0000
              Bcc     0.0189    10.099     3.604     3.369  0.9458  0.3249  0.0000
 
              Baa    -0.0192   -10.236    -3.653    -3.415  0.0000  0.0000  1.0000
     3 H(1)   Bbb    -0.0174    -9.288    -3.314    -3.098  0.8584 -0.5130  0.0000
              Bcc     0.0366    19.524     6.967     6.513  0.5130  0.8584  0.0000
 
              Baa    -0.0479   -25.552    -9.118    -8.523  0.0000  0.0000  1.0000
     4 H(1)   Bbb    -0.0112    -5.981    -2.134    -1.995  0.8252  0.5649  0.0000
              Bcc     0.0591    31.533    11.252    10.518 -0.5649  0.8252  0.0000
 
              Baa    -0.0725   -38.693   -13.807   -12.907  0.0000  0.0000  1.0000
     5 H(1)   Bbb    -0.0647   -34.540   -12.325   -11.521  0.2519  0.9678 -0.0000
              Bcc     0.1373    73.233    26.132    24.428  0.9678 -0.2519  0.0000
 
              Baa    -0.0725   -38.693   -13.807   -12.907  0.0000  0.0000  1.0000
     6 H(1)   Bbb    -0.0647   -34.540   -12.325   -11.521  0.2519  0.9678  0.0000
              Bcc     0.1373    73.233    26.132    24.428  0.9678 -0.2519  0.0000
 
              Baa    -0.0479   -25.552    -9.118    -8.523  0.0000  0.0000  1.0000
     7 H(1)   Bbb    -0.0112    -5.981    -2.134    -1.995  0.8252  0.5649  0.0000
              Bcc     0.0591    31.533    11.252    10.518 -0.5649  0.8252  0.0000
 
              Baa    -0.0192   -10.236    -3.653    -3.415  0.0000  0.0000  1.0000
     8 H(1)   Bbb    -0.0174    -9.288    -3.314    -3.098  0.8584 -0.5130  0.0000
              Bcc     0.0366    19.524     6.967     6.513  0.5130  0.8584  0.0000
 
              Baa    -0.0305   -16.260    -5.802    -5.424  0.0000  0.0000  1.0000
     9 H(1)   Bbb     0.0115     6.161     2.198     2.055 -0.3249  0.9458 -0.0000
              Bcc     0.0189    10.099     3.604     3.369  0.9458  0.3249  0.0000
 
              Baa    -0.0576   -30.742   -10.969   -10.254  0.0000  0.0000  1.0000
    10 H(1)   Bbb    -0.0172    -9.155    -3.267    -3.054  0.8010  0.5987  0.0000
              Bcc     0.0748    39.897    14.236    13.308 -0.5987  0.8010  0.0000
 

 ---------------------------------------------------------------------------------


 Test job not archived.
 1\1\GINC-SULU\Stability\UHF\Gen\H10(3)\LCJ1\23-Feb-2017\0\\#uhf/gen sc
 f(tight,novaracc,noincfock,fulldiag, ) stable(crhf) guess=mix geom=noc
 rowd test\\hf stability analysis of h10 triangular lattice, y= 0.64173
 199996623487 alpha= 35.500000000000000\\0,3\H\H,1,1.1050950889\H,1,1.1
 050950889,2,109.\H,2,1.1050950889,1,71.,3,0.,0\H,3,1.1050950889,1,180.
 ,2,0.,0\H,4,1.1050950889,2,180.,1,0.,0\H,5,1.1050950889,3,180.,2,0.,0\
 H,6,1.1050950889,4,180.,1,0.,0\H,7,1.1050950889,5,180.,2,0.,0\H,8,1.10
 50950889,6,180.,1,0.,0\\Version=ES64L-G09RevE.01\State=3-BU\HF=-4.9090
 722\MP2=-4.9835465\PUHF=-4.9178577\PMP2-0=-4.9904216\S2=2.123756\S2-1=
 2.068324\S2A=2.005568\RMSD=5.786e-09\Dipole=0.,0.,0.\Quadrupole=0.5151
 041,0.5753405,-1.0904446,0.,-0.8381103,0.\PG=C02H [SGH(H10)]\\@


 IT PROBABLY IS NOT POSSIBLE FOR A SCIENTIST TO INTERROGATE NATURE 
 FROM A WHOLLY DISINTERESTED VIEWPOINT.
 EVEN IF HE HAS NO PARTICULAR AXE TO GRIND, HE IS LIKELY TO HAVE 
 A DISTINCTIVE WAY OF VIEWING NATURE.

                                                   -- JOHN LOSEE
 Job cpu time:       0 days  0 hours  0 minutes  1.5 seconds.
 File lengths (MBytes):  RWF=     94 Int=      0 D2E=      0 Chk=      2 Scr=      2
 Normal termination of Gaussian 09 at Thu Feb 23 13:03:22 2017.
