 Entering Gaussian System, Link 0=g09
 AtFile(1): H.gbs
            H     0
            S   10   1.00
               1000.000000000000            0.000068713567
                316.227766000000            0.000169141320
                100.000000000000            0.000823394812
                 31.622776600000            0.003425569236
                 10.000000000000            0.013951996000
                  3.162277660000            0.056909313560
                  1.000000000000            0.198286399900
                  0.316227766000            0.496922426700
                  0.100000000000            0.369846276400
                  0.031622776600            0.003752720039
            ****
 Initial command:
 /projects/guscus/apps/gau/g09-e1/g09/l1.exe "/users/lcj1/gaussian/h10/2rows_uhf/ag2bu3/triplet/mix/Gau-19372.inp" -scrdir="/users/lcj1/gaussian/h10/2rows_uhf/ag2bu3/triplet/mix/"
 Entering Link 1 = /projects/guscus/apps/gau/g09-e1/g09/l1.exe PID=     19373.
  
 Copyright (c) 1988,1990,1992,1993,1995,1998,2003,2009,2015,
            Gaussian, Inc.  All Rights Reserved.
  
 This is part of the Gaussian(R) 09 program.  It is based on
 the Gaussian(R) 03 system (copyright 2003, Gaussian, Inc.),
 the Gaussian(R) 98 system (copyright 1998, Gaussian, Inc.),
 the Gaussian(R) 94 system (copyright 1995, Gaussian, Inc.),
 the Gaussian 92(TM) system (copyright 1992, Gaussian, Inc.),
 the Gaussian 90(TM) system (copyright 1990, Gaussian, Inc.),
 the Gaussian 88(TM) system (copyright 1988, Gaussian, Inc.),
 the Gaussian 86(TM) system (copyright 1986, Carnegie Mellon
 University), and the Gaussian 82(TM) system (copyright 1983,
 Carnegie Mellon University). Gaussian is a federally registered
 trademark of Gaussian, Inc.
  
 This software contains proprietary and confidential information,
 including trade secrets, belonging to Gaussian, Inc.
  
 This software is provided under written license and may be
 used, copied, transmitted, or stored only in accord with that
 written license.
  
 The following legend is applicable only to US Government
 contracts under FAR:
  
                    RESTRICTED RIGHTS LEGEND
  
 Use, reproduction and disclosure by the US Government is
 subject to restrictions as set forth in subparagraphs (a)
 and (c) of the Commercial Computer Software - Restricted
 Rights clause in FAR 52.227-19.
  
 Gaussian, Inc.
 340 Quinnipiac St., Bldg. 40, Wallingford CT 06492
  
  
 ---------------------------------------------------------------
 Warning -- This program may not be used in any manner that
 competes with the business of Gaussian, Inc. or will provide
 assistance to any competitor of Gaussian, Inc.  The licensee
 of this program is prohibited from giving any competitor of
 Gaussian, Inc. access to this program.  By using this program,
 the user acknowledges that Gaussian, Inc. is engaged in the
 business of creating and licensing software in the field of
 computational chemistry and represents and warrants to the
 licensee that it is not a competitor of Gaussian, Inc. and that
 it will not use this program in any manner prohibited above.
 ---------------------------------------------------------------
  

 Cite this work as:
 Gaussian 09, Revision E.01,
 M. J. Frisch, G. W. Trucks, H. B. Schlegel, G. E. Scuseria, 
 M. A. Robb, J. R. Cheeseman, G. Scalmani, V. Barone, B. Mennucci, 
 G. A. Petersson, H. Nakatsuji, M. Caricato, X. Li, H. P. Hratchian, 
 A. F. Izmaylov, J. Bloino, G. Zheng, J. L. Sonnenberg, M. Hada, 
 M. Ehara, K. Toyota, R. Fukuda, J. Hasegawa, M. Ishida, T. Nakajima, 
 Y. Honda, O. Kitao, H. Nakai, T. Vreven, J. A. Montgomery, Jr., 
 J. E. Peralta, F. Ogliaro, M. Bearpark, J. J. Heyd, E. Brothers, 
 K. N. Kudin, V. N. Staroverov, T. Keith, R. Kobayashi, J. Normand, 
 K. Raghavachari, A. Rendell, J. C. Burant, S. S. Iyengar, J. Tomasi, 
 M. Cossi, N. Rega, J. M. Millam, M. Klene, J. E. Knox, J. B. Cross, 
 V. Bakken, C. Adamo, J. Jaramillo, R. Gomperts, R. E. Stratmann, 
 O. Yazyev, A. J. Austin, R. Cammi, C. Pomelli, J. W. Ochterski, 
 R. L. Martin, K. Morokuma, V. G. Zakrzewski, G. A. Voth, 
 P. Salvador, J. J. Dannenberg, S. Dapprich, A. D. Daniels, 
 O. Farkas, J. B. Foresman, J. V. Ortiz, J. Cioslowski, 
 and D. J. Fox, Gaussian, Inc., Wallingford CT, 2013.
 
 ******************************************
 Gaussian 09:  ES64L-G09RevE.01 30-Nov-2015
                23-Feb-2017 
 ******************************************
 %chk=h10.chk
 ----------------------------------------------------------------------
 #uhf/gen scf(tight,novaracc,noincfock,fulldiag, ) stable(crhf) guess=m
 ix geom=nocrowd test
 ----------------------------------------------------------------------
 1/38=1/1;
 2/12=1,17=6,18=5,40=1/2;
 3/5=7,16=1,25=1,30=1,116=2/1,2,3;
 4/13=-1/1;
 5/5=100002,16=1,32=2,38=1/2;
 8/6=1,10=90,11=11/1,4;
 9/8=4,13=1/2;
 6/7=2,8=2,9=2,10=2,28=1/1;
 99/5=1,9=1/99;
 ----------------------------------------------------------------------
 hf stability analysis of h10 triangular lattice, y= 1.1190932273249123
  alpha= 65.250000000000000
 ----------------------------------------------------------------------
 Symbolic Z-matrix:
 Charge =  0 Multiplicity = 3
 H
 H                    1     1.23229 
 H                    1     1.23229  2     49.5 
 H                    2     1.23229  1     130.5    3     0.       0
 H                    3     1.23229  1     180.     2     0.       0
 H                    4     1.23229  2     180.     1     0.       0
 H                    5     1.23229  3     180.     2     0.       0
 H                    6     1.23229  4     180.     1     0.       0
 H                    7     1.23229  5     180.     2     0.       0
 H                    8     1.23229  6     180.     1     0.       0
 
                          Input orientation:                          
 ---------------------------------------------------------------------
 Center     Atomic      Atomic             Coordinates (Angstroms)
 Number     Number       Type             X           Y           Z
 ---------------------------------------------------------------------
      1          1           0        0.000000    0.000000    0.000000
      2          1           0        0.000000    0.000000    1.232287
      3          1           0        0.937039    0.000000    0.800307
      4          1           0        0.937039    0.000000    2.032594
      5          1           0        1.874077    0.000000    1.600613
      6          1           0        1.874077    0.000000    2.832900
      7          1           0        2.811116    0.000000    2.400920
      8          1           0        2.811116    0.000000    3.633207
      9          1           0        3.748154    0.000000    3.201226
     10          1           0        3.748154    0.000000    4.433513
 ---------------------------------------------------------------------
                    Distance matrix (angstroms):
                    1          2          3          4          5
     1  H    0.000000
     2  H    1.232287   0.000000
     3  H    1.232287   1.031818   0.000000
     4  H    2.238186   1.232287   1.232287   0.000000
     5  H    2.464574   1.909929   1.232287   1.031818   0.000000
     6  H    3.396688   2.464574   2.238186   1.232287   1.232287
     7  H    3.696862   3.044351   2.464574   1.909929   1.232287
     8  H    4.593753   3.696862   3.396688   2.464574   2.238186
     9  H    4.929149   4.233837   3.696862   3.044351   2.464574
    10  H    5.805575   4.929149   4.593753   3.696862   3.396688
                    6          7          8          9         10
     6  H    0.000000
     7  H    1.031818   0.000000
     8  H    1.232287   1.232287   0.000000
     9  H    1.909929   1.232287   1.031818   0.000000
    10  H    2.464574   2.238186   1.232287   1.232287   0.000000
 Stoichiometry    H10(3)
 Framework group  C2H[SGH(H10)]
 Deg. of freedom     9
 Full point group                 C2H     NOp   4
 Largest Abelian subgroup         C2H     NOp   4
 Largest concise Abelian subgroup C2      NOp   2
                         Standard orientation:                         
 ---------------------------------------------------------------------
 Center     Atomic      Atomic             Coordinates (Angstroms)
 Number     Number       Type             X           Y           Z
 ---------------------------------------------------------------------
      1          1           0        1.874077    2.216757    0.000000
      2          1           0        1.874077    0.984469    0.000000
      3          1           0        0.937039    1.416450    0.000000
      4          1           0        0.937039    0.184163    0.000000
      5          1           0       -0.000000    0.616144    0.000000
      6          1           0       -0.000000   -0.616144    0.000000
      7          1           0       -0.937039   -0.184163    0.000000
      8          1           0       -0.937039   -1.416450    0.000000
      9          1           0       -1.874077   -0.984469    0.000000
     10          1           0       -1.874077   -2.216757    0.000000
 ---------------------------------------------------------------------
 Rotational constants (GHZ):    241.3711539     15.6267963     14.6766068
 General basis read from cards:  (5D, 7F)
 There are     5 symmetry adapted cartesian basis functions of AG  symmetry.
 There are     0 symmetry adapted cartesian basis functions of BG  symmetry.
 There are     0 symmetry adapted cartesian basis functions of AU  symmetry.
 There are     5 symmetry adapted cartesian basis functions of BU  symmetry.
 There are     5 symmetry adapted basis functions of AG  symmetry.
 There are     0 symmetry adapted basis functions of BG  symmetry.
 There are     0 symmetry adapted basis functions of AU  symmetry.
 There are     5 symmetry adapted basis functions of BU  symmetry.
    10 basis functions,   100 primitive gaussians,    10 cartesian basis functions
     6 alpha electrons        4 beta electrons
       nuclear repulsion energy        12.7480215746 Hartrees.
 NAtoms=   10 NActive=   10 NUniq=    5 SFac= 4.00D+00 NAtFMM=   60 NAOKFM=F Big=F
 Integral buffers will be    131072 words long.
 Regular integral format.
 Two-electron integral symmetry is turned on.
 One-electron integrals computed using PRISM.
 NBasis=    10 RedAO= T EigKep=  1.92D-01  NBF=     5     0     0     5
 NBsUse=    10 1.00D-06 EigRej= -1.00D+00 NBFU=     5     0     0     5
 ExpMin= 3.16D-02 ExpMax= 1.00D+03 ExpMxC= 1.00D+01 IAcc=3 IRadAn=         5 AccDes= 0.00D+00
 Harris functional with IExCor=  205 and IRadAn=       5 diagonalized for initial guess.
 HarFok:  IExCor=  205 AccDes= 0.00D+00 IRadAn=         5 IDoV= 1 UseB2=F ITyADJ=14
 ICtDFT=  3500011 ScaDFX=  1.000000  1.000000  1.000000  1.000000
 FoFCou: FMM=F IPFlag=           0 FMFlag=      100000 FMFlg1=           0
         NFxFlg=           0 DoJE=T BraDBF=F KetDBF=T FulRan=T
         wScrn=  0.000000 ICntrl=     500 IOpCl=  0 I1Cent=   200000004 NGrid=           0
         NMat0=    1 NMatS0=      1 NMatT0=    0 NMatD0=    1 NMtDS0=    0 NMtDT0=    0
 Petite list used in FoFCou.
 Mixing orbitals, IMix= 1 IMixAn=  0 NRI=1 NE=    6 Coef=  7.07106781D-01  7.07106781D-01
 Mixing orbitals, IMix= 1 IMixAn=  0 NRI=1 NE=    4 Coef= -7.07106781D-01  7.07106781D-01
 Initial guess orbital symmetries:
 Alpha Orbitals:
       Occupied  (AG) (BU) (AG) (BU) (BU) (AG)
       Virtual   (AG) (BU) (BU) (AG)
 Beta  Orbitals:
       Occupied  (AG) (BU) (AG) (BU)
       Virtual   (BU) (AG) (AG) (BU) (BU) (AG)
 The electronic state of the initial guess is 3-BU.
 Initial guess <Sx>= 0.0000 <Sy>= 0.0000 <Sz>= 1.0000 <S**2>= 2.0000 S= 1.0000
 Keep R1 and R2 ints in memory in symmetry-blocked form, NReq=878459.
 Requested convergence on RMS density matrix=1.00D-08 within 128 cycles.
 Requested convergence on MAX density matrix=1.00D-06.
 Requested convergence on             energy=1.00D-06.
 No special actions if energy rises.
 An orbital has undefined symmetry, so N**3 symmetry is turned off.
 SCF Done:  E(UHF) =  -4.85369559520     A.U. after   18 cycles
            NFock= 18  Conv=0.42D-08     -V/T= 1.9191
 <Sx>= 0.0000 <Sy>= 0.0000 <Sz>= 1.0000 <S**2>= 2.3880 S= 1.1242
 <L.S>= 0.000000000000E+00
 Annihilation of the first spin contaminant:
 S**2 before annihilation     2.3880,   after     2.0645
 Range of M.O.s used for correlation:     1    10
 NBasis=    10 NAE=     6 NBE=     4 NFC=     0 NFV=     0
 NROrb=     10 NOA=     6 NOB=     4 NVA=     4 NVB=     6
 Semi-Direct transformation.
 ModeAB=           2 MOrb=             6 LenV=     134108512
 LASXX=         1146 LTotXX=        1146 LenRXX=        1146
 LTotAB=        1971 MaxLAS=        3300 LenRXY=        3300
 NonZer=        3300 LenScr=      655360 LnRSAI=           0
 LnScr1=           0 LExtra=           0 Total=       659806
 MaxDsk=          -1 SrtSym=           F ITran=            3
 JobTyp=1 Pass  1:  I=   1 to   6.
 (rs|ai) integrals will be sorted in core.
 ModeAB=           2 MOrb=             4 LenV=     134108512
 LASXX=          831 LTotXX=         831 LenRXX=        2200
 LTotAB=         100 MaxLAS=        2200 LenRXY=         100
 NonZer=        2200 LenScr=      655360 LnRSAI=           0
 LnScr1=           0 LExtra=           0 Total=       657660
 MaxDsk=          -1 SrtSym=           F ITran=            3
 JobTyp=2 Pass  1:  I=   1 to   4.
 (rs|ai) integrals will be sorted in core.
 SymMOI:  orbitals are not symmetric.
 Spin components of T(2) and E(2):
     alpha-alpha T2 =       0.2635088965D-02 E2=     -0.3756980649D-02
     alpha-beta  T2 =       0.3245453786D-01 E2=     -0.4963663448D-01
     beta-beta   T2 =       0.1450450847D-02 E2=     -0.2366754012D-02
 ANorm=    0.1018106123D+01
 E2 =    -0.5576036914D-01 EUMP2 =    -0.49094559643447D+01
 (S**2,0)=  0.23880D+01           (S**2,1)=  0.22781D+01
 E(PUHF)=      -0.48748611553D+01        E(PMP2)=      -0.49279134638D+01
 Second order stability test of a single determinant UHF wave function:
 Stabil:  MDV=134217728
 ***********************************************************************
 Matrix         Lowest Root    Major Pairs
 ***********************************************************************
 Internal UHF     0.0427469    Stable
 RUHF --> CUHF (A)0.1673231    Stable
 RUHF --> CUHF (B)0.0916353    Stable

 RUHF --> GHF    -0.0190665    6A=5B 5A=6B 5A=7B 4B=7A 4A=7B 4A=6B 3B=8A 3A=8B 6A
 =9B 3B=9A 4B=10A
 Not stable.
 ***********************************************************************

 **********************************************************************

            Population analysis using the SCF density.

 **********************************************************************

 Orbital symmetries:
 Alpha Orbitals:
       Occupied  (AG) (BU) (AG) (BU) (BU) (AG)
       Virtual   (AG) (BU) (BU) (AG)
 Beta  Orbitals:
       Occupied  (AG) (BU) (AG) (BU)
       Virtual   (BU) (AG) (AG) (BU) (BU) (AG)
 The electronic state is 3-BU.
 Alpha  occ. eigenvalues --   -0.86834  -0.76905  -0.62005  -0.41149  -0.37024
 Alpha  occ. eigenvalues --   -0.29214
 Alpha virt. eigenvalues --    0.15309   0.18666   0.36976   0.54199
  Beta  occ. eigenvalues --   -0.81439  -0.71226  -0.51766  -0.33538
  Beta virt. eigenvalues --    0.03979   0.12851   0.22025   0.31388   0.45383
  Beta virt. eigenvalues --    0.59105
          Condensed to atoms (all electrons):
               1          2          3          4          5          6
     1  H    1.142560  -0.121176   0.198202  -0.119311  -0.009618   0.004514
     2  H   -0.121176   0.991971   0.097579   0.141427  -0.143389  -0.011644
     3  H    0.198202   0.097579   0.621731  -0.096293   0.104818  -0.052657
     4  H   -0.119311   0.141427  -0.096293   1.184518   0.072836   0.052518
     5  H   -0.009618  -0.143389   0.104818   0.072836   1.069485  -0.103689
     6  H    0.004514  -0.011644  -0.052657   0.052518  -0.103689   1.069485
     7  H    0.005168  -0.002313   0.003490  -0.158215   0.052518   0.072836
     8  H    0.000393   0.001663  -0.001965   0.003490  -0.052657   0.104818
     9  H   -0.000494   0.002203   0.001663  -0.002313  -0.011644  -0.143389
    10  H   -0.000022  -0.000494   0.000393   0.005168   0.004514  -0.009618
               7          8          9         10
     1  H    0.005168   0.000393  -0.000494  -0.000022
     2  H   -0.002313   0.001663   0.002203  -0.000494
     3  H    0.003490  -0.001965   0.001663   0.000393
     4  H   -0.158215   0.003490  -0.002313   0.005168
     5  H    0.052518  -0.052657  -0.011644   0.004514
     6  H    0.072836   0.104818  -0.143389  -0.009618
     7  H    1.184518  -0.096293   0.141427  -0.119311
     8  H   -0.096293   0.621731   0.097579   0.198202
     9  H    0.141427   0.097579   0.991971  -0.121176
    10  H   -0.119311   0.198202  -0.121176   1.142560
          Atomic-Atomic Spin Densities.
               1          2          3          4          5          6
     1  H    0.807933  -0.231317  -0.022692  -0.024705   0.004177   0.008606
     2  H   -0.231317   0.766923  -0.160466   0.223890  -0.119844   0.005027
     3  H   -0.022692  -0.160466  -0.225690   0.066886   0.167733  -0.018864
     4  H   -0.024705   0.223890   0.066886  -0.547701  -0.109063  -0.052571
     5  H    0.004177  -0.119844   0.167733  -0.109063   0.851518  -0.205441
     6  H    0.008606   0.005027  -0.018864  -0.052571  -0.205441   0.851518
     7  H   -0.002321  -0.000493  -0.007578   0.100276  -0.052571  -0.109063
     8  H    0.000530   0.000293  -0.002855  -0.007578  -0.018864   0.167733
     9  H   -0.000560   0.001660   0.000293  -0.000493   0.005027  -0.119844
    10  H    0.000043  -0.000560   0.000530  -0.002321   0.008606   0.004177
               7          8          9         10
     1  H   -0.002321   0.000530  -0.000560   0.000043
     2  H   -0.000493   0.000293   0.001660  -0.000560
     3  H   -0.007578  -0.002855   0.000293   0.000530
     4  H    0.100276  -0.007578  -0.000493  -0.002321
     5  H   -0.052571  -0.018864   0.005027   0.008606
     6  H   -0.109063   0.167733  -0.119844   0.004177
     7  H   -0.547701   0.066886   0.223890  -0.024705
     8  H    0.066886  -0.225690  -0.160466  -0.022692
     9  H    0.223890  -0.160466   0.766923  -0.231317
    10  H   -0.024705  -0.022692  -0.231317   0.807933
 Mulliken charges and spin densities:
               1          2
     1  H   -0.100216   0.539693
     2  H    0.044174   0.485114
     3  H    0.123039  -0.202703
     4  H   -0.083824  -0.353381
     5  H    0.016827   0.531277
     6  H    0.016827   0.531277
     7  H   -0.083824  -0.353381
     8  H    0.123039  -0.202703
     9  H    0.044174   0.485114
    10  H   -0.100216   0.539693
 Sum of Mulliken charges =  -0.00000   2.00000
 Mulliken charges and spin densities with hydrogens summed into heavy atoms:
               1          2
 Electronic spatial extent (au):  <R**2>=            156.5511
 Charge=             -0.0000 electrons
 Dipole moment (field-independent basis, Debye):
    X=             -0.0000    Y=             -0.0000    Z=             -0.0000  Tot=              0.0000
 Quadrupole moment (field-independent basis, Debye-Ang):
   XX=            -15.7833   YY=            -17.7865   ZZ=            -12.8859
   XY=             -2.4254   XZ=             -0.0000   YZ=              0.0000
 Traceless Quadrupole moment (field-independent basis, Debye-Ang):
   XX=             -0.2981   YY=             -2.3013   ZZ=              2.5993
   XY=             -2.4254   XZ=             -0.0000   YZ=              0.0000
 Octapole moment (field-independent basis, Debye-Ang**2):
  XXX=             -0.0000  YYY=             -0.0000  ZZZ=             -0.0000  XYY=             -0.0000
  XXY=             -0.0000  XXZ=             -0.0000  XZZ=              0.0000  YZZ=             -0.0000
  YYZ=             -0.0000  XYZ=             -0.0000
 Hexadecapole moment (field-independent basis, Debye-Ang**3):
 XXXX=           -165.1294 YYYY=           -196.9348 ZZZZ=            -15.5496 XXXY=            -71.6281
 XXXZ=             -0.0000 YYYX=            -89.0773 YYYZ=              0.0000 ZZZX=             -0.0000
 ZZZY=             -0.0000 XXYY=            -70.7795 XXZZ=            -29.0474 YYZZ=            -28.8959
 XXYZ=              0.0000 YYXZ=             -0.0000 ZZXY=            -20.4617
 N-N= 1.274802157461D+01 E-N=-3.477336605328D+01  KE= 5.280929027542D+00
 Symmetry AG   KE= 2.366872062212D+00
 Symmetry BG   KE= 0.000000000000D+00
 Symmetry AU   KE= 0.000000000000D+00
 Symmetry BU   KE= 2.914056965330D+00
                          Isotropic Fermi Contact Couplings
        Atom                 a.u.       MegaHertz       Gauss      10(-4) cm-1
     1  H(1)               0.22045     492.69838     175.80703     164.34649
     2  H(1)               0.20630     461.06480     164.51938     153.79466
     3  H(1)              -0.06800    -151.98064     -54.23047     -50.69528
     4  H(1)              -0.15117    -337.85683    -120.55572    -112.69691
     5  H(1)               0.22906     511.93461     182.67099     170.76301
     6  H(1)               0.22906     511.93461     182.67099     170.76301
     7  H(1)              -0.15117    -337.85683    -120.55572    -112.69691
     8  H(1)              -0.06800    -151.98064     -54.23047     -50.69528
     9  H(1)               0.20630     461.06480     164.51938     153.79466
    10  H(1)               0.22045     492.69838     175.80703     164.34649
 --------------------------------------------------------
       Center         ----  Spin Dipole Couplings  ----
                      3XX-RR        3YY-RR        3ZZ-RR
 --------------------------------------------------------
     1   Atom       -0.017028      0.018650     -0.001622
     2   Atom       -0.040979      0.037549      0.003430
     3   Atom        0.103919     -0.014548     -0.089371
     4   Atom        0.101293      0.002942     -0.104235
     5   Atom       -0.074524      0.044164      0.030359
     6   Atom       -0.074524      0.044164      0.030359
     7   Atom        0.101293      0.002942     -0.104235
     8   Atom        0.103919     -0.014548     -0.089371
     9   Atom       -0.040979      0.037549      0.003430
    10   Atom       -0.017028      0.018650     -0.001622
 --------------------------------------------------------
                        XY            XZ            YZ
 --------------------------------------------------------
     1   Atom       -0.023198     -0.000000      0.000000
     2   Atom        0.029638     -0.000000     -0.000000
     3   Atom        0.048130      0.000000      0.000000
     4   Atom        0.041719      0.000000      0.000000
     5   Atom        0.020503     -0.000000      0.000000
     6   Atom        0.020503     -0.000000      0.000000
     7   Atom        0.041719     -0.000000     -0.000000
     8   Atom        0.048130     -0.000000     -0.000000
     9   Atom        0.029638     -0.000000     -0.000000
    10   Atom       -0.023198      0.000000      0.000000
 --------------------------------------------------------


 ---------------------------------------------------------------------------------
              Anisotropic Spin Dipole Couplings in Principal Axis System
 ---------------------------------------------------------------------------------

       Atom             a.u.   MegaHertz   Gauss  10(-4) cm-1        Axes

              Baa    -0.0285   -15.181    -5.417    -5.064  0.8971  0.4418  0.0000
     1 H(1)   Bbb    -0.0016    -0.866    -0.309    -0.289  0.0000  0.0000  1.0000
              Bcc     0.0301    16.047     5.726     5.353 -0.4418  0.8971  0.0000
 
              Baa    -0.0509   -27.163    -9.692    -9.060  0.9482 -0.3177  0.0000
     2 H(1)   Bbb     0.0034     1.830     0.653     0.610  0.0000  0.0000  1.0000
              Bcc     0.0475    25.333     9.039     8.450  0.3177  0.9482 -0.0000
 
              Baa    -0.0894   -47.684   -17.015   -15.906  0.0000  0.0000  1.0000
     3 H(1)   Bbb    -0.0316   -16.880    -6.023    -5.631 -0.3346  0.9424 -0.0000
              Bcc     0.1210    64.564    23.038    21.536  0.9424  0.3346  0.0000
 
              Baa    -0.1042   -55.615   -19.845   -18.551  0.0000  0.0000  1.0000
     4 H(1)   Bbb    -0.0124    -6.600    -2.355    -2.202 -0.3446  0.9388  0.0000
              Bcc     0.1166    62.215    22.200    20.753  0.9388  0.3446  0.0000
 
              Baa    -0.0780   -41.599   -14.844   -13.876  0.9862 -0.1656  0.0000
     5 H(1)   Bbb     0.0304    16.198     5.780     5.403  0.0000  0.0000  1.0000
              Bcc     0.0476    25.400     9.064     8.473  0.1656  0.9862  0.0000
 
              Baa    -0.0780   -41.599   -14.844   -13.876  0.9862 -0.1656  0.0000
     6 H(1)   Bbb     0.0304    16.198     5.780     5.403  0.0000  0.0000  1.0000
              Bcc     0.0476    25.400     9.064     8.473  0.1656  0.9862  0.0000
 
              Baa    -0.1042   -55.615   -19.845   -18.551  0.0000  0.0000  1.0000
     7 H(1)   Bbb    -0.0124    -6.600    -2.355    -2.202 -0.3446  0.9388  0.0000
              Bcc     0.1166    62.215    22.200    20.753  0.9388  0.3446  0.0000
 
              Baa    -0.0894   -47.684   -17.015   -15.906  0.0000  0.0000  1.0000
     8 H(1)   Bbb    -0.0316   -16.880    -6.023    -5.631 -0.3346  0.9424 -0.0000
              Bcc     0.1210    64.564    23.038    21.536  0.9424  0.3346  0.0000
 
              Baa    -0.0509   -27.163    -9.692    -9.060  0.9482 -0.3177  0.0000
     9 H(1)   Bbb     0.0034     1.830     0.653     0.610  0.0000  0.0000  1.0000
              Bcc     0.0475    25.333     9.039     8.450  0.3177  0.9482 -0.0000
 
              Baa    -0.0285   -15.181    -5.417    -5.064  0.8971  0.4418  0.0000
    10 H(1)   Bbb    -0.0016    -0.866    -0.309    -0.289  0.0000  0.0000  1.0000
              Bcc     0.0301    16.047     5.726     5.353 -0.4418  0.8971  0.0000
 

 ---------------------------------------------------------------------------------


 Test job not archived.
 1\1\GINC-SULU\Stability\UHF\Gen\H10(3)\LCJ1\23-Feb-2017\0\\#uhf/gen sc
 f(tight,novaracc,noincfock,fulldiag, ) stable(crhf) guess=mix geom=noc
 rowd test\\hf stability analysis of h10 triangular lattice, y= 1.11909
 32273249123 alpha= 65.250000000000000\\0,3\H\H,1,1.2322872023\H,1,1.23
 22872023,2,49.5\H,2,1.2322872023,1,130.5,3,0.,0\H,3,1.2322872023,1,180
 .,2,0.,0\H,4,1.2322872023,2,180.,1,0.,0\H,5,1.2322872023,3,180.,2,0.,0
 \H,6,1.2322872023,4,180.,1,0.,0\H,7,1.2322872023,5,180.,2,0.,0\H,8,1.2
 322872023,6,180.,1,0.,0\\Version=ES64L-G09RevE.01\State=3-BU\HF=-4.853
 6956\MP2=-4.909456\PUHF=-4.8748612\PMP2-0=-4.9279135\S2=2.388009\S2-1=
 2.278072\S2A=2.064471\RMSD=4.164e-09\Dipole=0.,0.,0.\Quadrupole=-0.221
 6017,1.9325459,-1.7109442,0.,-1.8032452,0.\PG=C02H [SGH(H10)]\\@


 When I told the people of Northern Ireland that I was
 an atheist, a woman in the audience stood up and said,
 "Yes, but is it the God of the Catholics or the God
 of the Protestants in whom you don't believe?"
                               -- Quentin Crisp
 Job cpu time:       0 days  0 hours  0 minutes  1.4 seconds.
 File lengths (MBytes):  RWF=     94 Int=      0 D2E=      0 Chk=      2 Scr=      2
 Normal termination of Gaussian 09 at Thu Feb 23 13:10:14 2017.
