 Entering Gaussian System, Link 0=g09
 AtFile(1): H.gbs
            H     0
            S   10   1.00
               1000.000000000000            0.000068713567
                316.227766000000            0.000169141320
                100.000000000000            0.000823394812
                 31.622776600000            0.003425569236
                 10.000000000000            0.013951996000
                  3.162277660000            0.056909313560
                  1.000000000000            0.198286399900
                  0.316227766000            0.496922426700
                  0.100000000000            0.369846276400
                  0.031622776600            0.003752720039
            ****
 Initial command:
 /projects/guscus/apps/gau/g09-e1/g09/l1.exe "/users/lcj1/gaussian/h10/2rows_uhf/ag2bu3/triplet/mix/Gau-21527.inp" -scrdir="/users/lcj1/gaussian/h10/2rows_uhf/ag2bu3/triplet/mix/"
 Entering Link 1 = /projects/guscus/apps/gau/g09-e1/g09/l1.exe PID=     21528.
  
 Copyright (c) 1988,1990,1992,1993,1995,1998,2003,2009,2015,
            Gaussian, Inc.  All Rights Reserved.
  
 This is part of the Gaussian(R) 09 program.  It is based on
 the Gaussian(R) 03 system (copyright 2003, Gaussian, Inc.),
 the Gaussian(R) 98 system (copyright 1998, Gaussian, Inc.),
 the Gaussian(R) 94 system (copyright 1995, Gaussian, Inc.),
 the Gaussian 92(TM) system (copyright 1992, Gaussian, Inc.),
 the Gaussian 90(TM) system (copyright 1990, Gaussian, Inc.),
 the Gaussian 88(TM) system (copyright 1988, Gaussian, Inc.),
 the Gaussian 86(TM) system (copyright 1986, Carnegie Mellon
 University), and the Gaussian 82(TM) system (copyright 1983,
 Carnegie Mellon University). Gaussian is a federally registered
 trademark of Gaussian, Inc.
  
 This software contains proprietary and confidential information,
 including trade secrets, belonging to Gaussian, Inc.
  
 This software is provided under written license and may be
 used, copied, transmitted, or stored only in accord with that
 written license.
  
 The following legend is applicable only to US Government
 contracts under FAR:
  
                    RESTRICTED RIGHTS LEGEND
  
 Use, reproduction and disclosure by the US Government is
 subject to restrictions as set forth in subparagraphs (a)
 and (c) of the Commercial Computer Software - Restricted
 Rights clause in FAR 52.227-19.
  
 Gaussian, Inc.
 340 Quinnipiac St., Bldg. 40, Wallingford CT 06492
  
  
 ---------------------------------------------------------------
 Warning -- This program may not be used in any manner that
 competes with the business of Gaussian, Inc. or will provide
 assistance to any competitor of Gaussian, Inc.  The licensee
 of this program is prohibited from giving any competitor of
 Gaussian, Inc. access to this program.  By using this program,
 the user acknowledges that Gaussian, Inc. is engaged in the
 business of creating and licensing software in the field of
 computational chemistry and represents and warrants to the
 licensee that it is not a competitor of Gaussian, Inc. and that
 it will not use this program in any manner prohibited above.
 ---------------------------------------------------------------
  

 Cite this work as:
 Gaussian 09, Revision E.01,
 M. J. Frisch, G. W. Trucks, H. B. Schlegel, G. E. Scuseria, 
 M. A. Robb, J. R. Cheeseman, G. Scalmani, V. Barone, B. Mennucci, 
 G. A. Petersson, H. Nakatsuji, M. Caricato, X. Li, H. P. Hratchian, 
 A. F. Izmaylov, J. Bloino, G. Zheng, J. L. Sonnenberg, M. Hada, 
 M. Ehara, K. Toyota, R. Fukuda, J. Hasegawa, M. Ishida, T. Nakajima, 
 Y. Honda, O. Kitao, H. Nakai, T. Vreven, J. A. Montgomery, Jr., 
 J. E. Peralta, F. Ogliaro, M. Bearpark, J. J. Heyd, E. Brothers, 
 K. N. Kudin, V. N. Staroverov, T. Keith, R. Kobayashi, J. Normand, 
 K. Raghavachari, A. Rendell, J. C. Burant, S. S. Iyengar, J. Tomasi, 
 M. Cossi, N. Rega, J. M. Millam, M. Klene, J. E. Knox, J. B. Cross, 
 V. Bakken, C. Adamo, J. Jaramillo, R. Gomperts, R. E. Stratmann, 
 O. Yazyev, A. J. Austin, R. Cammi, C. Pomelli, J. W. Ochterski, 
 R. L. Martin, K. Morokuma, V. G. Zakrzewski, G. A. Voth, 
 P. Salvador, J. J. Dannenberg, S. Dapprich, A. D. Daniels, 
 O. Farkas, J. B. Foresman, J. V. Ortiz, J. Cioslowski, 
 and D. J. Fox, Gaussian, Inc., Wallingford CT, 2013.
 
 ******************************************
 Gaussian 09:  ES64L-G09RevE.01 30-Nov-2015
                23-Feb-2017 
 ******************************************
 %chk=h10.chk
 ----------------------------------------------------------------------
 #uhf/gen scf(tight,novaracc,noincfock,fulldiag, ) stable(crhf) guess=m
 ix geom=nocrowd test
 ----------------------------------------------------------------------
 1/38=1/1;
 2/12=1,17=6,18=5,40=1/2;
 3/5=7,16=1,25=1,30=1,116=2/1,2,3;
 4/13=-1/1;
 5/5=100002,16=1,32=2,38=1/2;
 8/6=1,10=90,11=11/1,4;
 9/8=4,13=1/2;
 6/7=2,8=2,9=2,10=2,28=1/1;
 99/5=1,9=1/99;
 ----------------------------------------------------------------------
 hf stability analysis of h10 triangular lattice, y= 1.2680906370950717
  alpha= 70.250000000000000
 ----------------------------------------------------------------------
 Symbolic Z-matrix:
 Charge =  0 Multiplicity = 3
 H
 H                    1     1.34735 
 H                    1     1.34735  2     39.5 
 H                    2     1.34735  1     140.5    3     0.       0
 H                    3     1.34735  1     180.     2     0.       0
 H                    4     1.34735  2     180.     1     0.       0
 H                    5     1.34735  3     180.     2     0.       0
 H                    6     1.34735  4     180.     1     0.       0
 H                    7     1.34735  5     180.     2     0.       0
 H                    8     1.34735  6     180.     1     0.       0
 
                          Input orientation:                          
 ---------------------------------------------------------------------
 Center     Atomic      Atomic             Coordinates (Angstroms)
 Number     Number       Type             X           Y           Z
 ---------------------------------------------------------------------
      1          1           0        0.000000    0.000000    0.000000
      2          1           0        0.000000    0.000000    1.347347
      3          1           0        0.857018    0.000000    1.039646
      4          1           0        0.857018    0.000000    2.386993
      5          1           0        1.714036    0.000000    2.079292
      6          1           0        1.714036    0.000000    3.426639
      7          1           0        2.571054    0.000000    3.118938
      8          1           0        2.571054    0.000000    4.466285
      9          1           0        3.428072    0.000000    4.158584
     10          1           0        3.428072    0.000000    5.505931
 ---------------------------------------------------------------------
                    Distance matrix (angstroms):
                    1          2          3          4          5
     1  H    0.000000
     2  H    1.347347   0.000000
     3  H    1.347347   0.910582   0.000000
     4  H    2.536181   1.347347   1.347347   0.000000
     5  H    2.694694   1.863777   1.347347   0.910582   0.000000
     6  H    3.831419   2.694694   2.536181   1.347347   1.347347
     7  H    4.042041   3.122316   2.694694   1.863777   1.347347
     8  H    5.153447   4.042041   3.831419   2.694694   2.536181
     9  H    5.389388   4.433366   4.042041   3.122316   2.694694
    10  H    6.485904   5.389388   5.153447   4.042041   3.831419
                    6          7          8          9         10
     6  H    0.000000
     7  H    0.910582   0.000000
     8  H    1.347347   1.347347   0.000000
     9  H    1.863777   1.347347   0.910582   0.000000
    10  H    2.694694   2.536181   1.347347   1.347347   0.000000
 Stoichiometry    H10(3)
 Framework group  C2H[SGH(H10)]
 Deg. of freedom     9
 Full point group                 C2H     NOp   4
 Largest Abelian subgroup         C2H     NOp   4
 Largest concise Abelian subgroup C2      NOp   2
                         Standard orientation:                         
 ---------------------------------------------------------------------
 Center     Atomic      Atomic             Coordinates (Angstroms)
 Number     Number       Type             X           Y           Z
 ---------------------------------------------------------------------
      1          1           0        1.714036    2.752966   -0.000000
      2          1           0        1.714036    1.405619   -0.000000
      3          1           0        0.857018    1.713319   -0.000000
      4          1           0        0.857018    0.365973   -0.000000
      5          1           0        0.000000    0.673673   -0.000000
      6          1           0       -0.000000   -0.673673   -0.000000
      7          1           0       -0.857018   -0.365973   -0.000000
      8          1           0       -0.857018   -1.713319   -0.000000
      9          1           0       -1.714036   -1.405619   -0.000000
     10          1           0       -1.714036   -2.752966   -0.000000
 ---------------------------------------------------------------------
 Rotational constants (GHZ):    294.4195533     12.8111656     12.2769548
 General basis read from cards:  (5D, 7F)
 There are     5 symmetry adapted cartesian basis functions of AG  symmetry.
 There are     0 symmetry adapted cartesian basis functions of BG  symmetry.
 There are     0 symmetry adapted cartesian basis functions of AU  symmetry.
 There are     5 symmetry adapted cartesian basis functions of BU  symmetry.
 There are     5 symmetry adapted basis functions of AG  symmetry.
 There are     0 symmetry adapted basis functions of BG  symmetry.
 There are     0 symmetry adapted basis functions of AU  symmetry.
 There are     5 symmetry adapted basis functions of BU  symmetry.
    10 basis functions,   100 primitive gaussians,    10 cartesian basis functions
     6 alpha electrons        4 beta electrons
       nuclear repulsion energy        12.1747134697 Hartrees.
 NAtoms=   10 NActive=   10 NUniq=    5 SFac= 4.00D+00 NAtFMM=   60 NAOKFM=F Big=F
 Integral buffers will be    131072 words long.
 Regular integral format.
 Two-electron integral symmetry is turned on.
 One-electron integrals computed using PRISM.
 NBasis=    10 RedAO= T EigKep=  1.85D-01  NBF=     5     0     0     5
 NBsUse=    10 1.00D-06 EigRej= -1.00D+00 NBFU=     5     0     0     5
 ExpMin= 3.16D-02 ExpMax= 1.00D+03 ExpMxC= 1.00D+01 IAcc=3 IRadAn=         5 AccDes= 0.00D+00
 Harris functional with IExCor=  205 and IRadAn=       5 diagonalized for initial guess.
 HarFok:  IExCor=  205 AccDes= 0.00D+00 IRadAn=         5 IDoV= 1 UseB2=F ITyADJ=14
 ICtDFT=  3500011 ScaDFX=  1.000000  1.000000  1.000000  1.000000
 FoFCou: FMM=F IPFlag=           0 FMFlag=      100000 FMFlg1=           0
         NFxFlg=           0 DoJE=T BraDBF=F KetDBF=T FulRan=T
         wScrn=  0.000000 ICntrl=     500 IOpCl=  0 I1Cent=   200000004 NGrid=           0
         NMat0=    1 NMatS0=      1 NMatT0=    0 NMatD0=    1 NMtDS0=    0 NMtDT0=    0
 Petite list used in FoFCou.
 Mixing orbitals, IMix= 1 IMixAn=  0 NRI=1 NE=    6 Coef=  7.07106781D-01  7.07106781D-01
 Mixing orbitals, IMix= 1 IMixAn=  0 NRI=1 NE=    4 Coef= -7.07106781D-01  7.07106781D-01
 Initial guess orbital symmetries:
 Alpha Orbitals:
       Occupied  (AG) (BU) (AG) (BU) (BU) (?A)
       Virtual   (?A) (AG) (BU) (AG)
 Beta  Orbitals:
       Occupied  (AG) (BU) (AG) (BU)
       Virtual   (BU) (AG) (BU) (AG) (BU) (AG)
 Initial guess <Sx>= 0.0000 <Sy>= 0.0000 <Sz>= 1.0000 <S**2>= 2.0000 S= 1.0000
 Keep R1 and R2 ints in memory in symmetry-blocked form, NReq=876807.
 Requested convergence on RMS density matrix=1.00D-08 within 128 cycles.
 Requested convergence on MAX density matrix=1.00D-06.
 Requested convergence on             energy=1.00D-06.
 No special actions if energy rises.
 An orbital has undefined symmetry, so N**3 symmetry is turned off.
 Density matrix breaks symmetry, PCut= 1.00D-04
 Density matrix has no symmetry -- integrals replicated.
 Density matrix breaks symmetry, PCut= 1.00D-07
 Density matrix has no symmetry -- integrals replicated.
 Density matrix breaks symmetry, PCut= 1.00D-07
 Density matrix has no symmetry -- integrals replicated.
 Density matrix breaks symmetry, PCut= 1.00D-07
 Density matrix has no symmetry -- integrals replicated.
 Density matrix breaks symmetry, PCut= 1.00D-07
 Density matrix has no symmetry -- integrals replicated.
 Density matrix breaks symmetry, PCut= 1.00D-07
 Density matrix has no symmetry -- integrals replicated.
 Density matrix breaks symmetry, PCut= 1.00D-07
 Density matrix has no symmetry -- integrals replicated.
 Density matrix breaks symmetry, PCut= 1.00D-07
 Density matrix has no symmetry -- integrals replicated.
 Rare condition: small coef for last iteration:  0.000D+00
 Density matrix breaks symmetry, PCut= 1.00D-07
 Density matrix has no symmetry -- integrals replicated.
 Rare condition: small coef for last iteration:  0.000D+00
 Density matrix breaks symmetry, PCut= 1.00D-07
 Density matrix has no symmetry -- integrals replicated.
 Rare condition: small coef for last iteration:  0.000D+00
 Density matrix breaks symmetry, PCut= 1.00D-07
 Density matrix has no symmetry -- integrals replicated.
 Rare condition: small coef for last iteration:  0.000D+00
 Density matrix breaks symmetry, PCut= 1.00D-07
 Density matrix has no symmetry -- integrals replicated.
 Rare condition: small coef for last iteration:  0.000D+00
 Density matrix breaks symmetry, PCut= 1.00D-07
 Density matrix has no symmetry -- integrals replicated.
 Density matrix breaks symmetry, PCut= 1.00D-07
 Density matrix has no symmetry -- integrals replicated.
 Density matrix breaks symmetry, PCut= 1.00D-07
 Density matrix has no symmetry -- integrals replicated.
 Density matrix breaks symmetry, PCut= 1.00D-07
 Density matrix has no symmetry -- integrals replicated.
 Density matrix breaks symmetry, PCut= 1.00D-07
 Density matrix has no symmetry -- integrals replicated.
 Density matrix breaks symmetry, PCut= 1.00D-07
 Density matrix has no symmetry -- integrals replicated.
 Rare condition: small coef for last iteration:  0.000D+00
 Density matrix breaks symmetry, PCut= 1.00D-07
 Density matrix has no symmetry -- integrals replicated.
 Density matrix breaks symmetry, PCut= 1.00D-07
 Density matrix has no symmetry -- integrals replicated.
 Density matrix breaks symmetry, PCut= 1.00D-07
 Density matrix has no symmetry -- integrals replicated.
 Density matrix breaks symmetry, PCut= 1.00D-07
 Density matrix has no symmetry -- integrals replicated.
 Density matrix breaks symmetry, PCut= 1.00D-07
 Density matrix has no symmetry -- integrals replicated.
 Density matrix breaks symmetry, PCut= 1.00D-07
 Density matrix has no symmetry -- integrals replicated.
 Density matrix breaks symmetry, PCut= 1.00D-07
 Density matrix has no symmetry -- integrals replicated.
 Density matrix breaks symmetry, PCut= 1.00D-07
 Density matrix has no symmetry -- integrals replicated.
 Density matrix breaks symmetry, PCut= 1.00D-07
 Density matrix has no symmetry -- integrals replicated.
 Density matrix breaks symmetry, PCut= 1.00D-07
 Density matrix has no symmetry -- integrals replicated.
 Density matrix breaks symmetry, PCut= 1.00D-07
 Density matrix has no symmetry -- integrals replicated.
 Density matrix breaks symmetry, PCut= 1.00D-07
 Density matrix has no symmetry -- integrals replicated.
 Density matrix breaks symmetry, PCut= 1.00D-07
 Density matrix has no symmetry -- integrals replicated.
 Density matrix breaks symmetry, PCut= 1.00D-07
 Density matrix has no symmetry -- integrals replicated.
 Density matrix breaks symmetry, PCut= 1.00D-07
 Density matrix has no symmetry -- integrals replicated.
 Density matrix breaks symmetry, PCut= 1.00D-07
 Density matrix has no symmetry -- integrals replicated.
 Density matrix breaks symmetry, PCut= 1.00D-07
 Density matrix has no symmetry -- integrals replicated.
 Density matrix breaks symmetry, PCut= 1.00D-07
 Density matrix has no symmetry -- integrals replicated.
 SCF Done:  E(UHF) =  -4.85066165282     A.U. after   35 cycles
            NFock= 35  Conv=0.16D-08     -V/T= 1.9018
 <Sx>= 0.0000 <Sy>= 0.0000 <Sz>= 1.0000 <S**2>= 2.4932 S= 1.1562
 <L.S>= 0.000000000000E+00
 Annihilation of the first spin contaminant:
 S**2 before annihilation     2.4932,   after     2.0472
 Range of M.O.s used for correlation:     1    10
 NBasis=    10 NAE=     6 NBE=     4 NFC=     0 NFV=     0
 NROrb=     10 NOA=     6 NOB=     4 NVA=     4 NVB=     6
 Semi-Direct transformation.
 ModeAB=           2 MOrb=             6 LenV=     134109786
 LASXX=         1146 LTotXX=        1146 LenRXX=        1146
 LTotAB=        1971 MaxLAS=        3300 LenRXY=        3300
 NonZer=        3300 LenScr=      655360 LnRSAI=           0
 LnScr1=           0 LExtra=           0 Total=       659806
 MaxDsk=          -1 SrtSym=           F ITran=            3
 JobTyp=1 Pass  1:  I=   1 to   6.
 (rs|ai) integrals will be sorted in core.
 ModeAB=           2 MOrb=             4 LenV=     134109786
 LASXX=          831 LTotXX=         831 LenRXX=        2200
 LTotAB=         100 MaxLAS=        2200 LenRXY=         100
 NonZer=        2200 LenScr=      655360 LnRSAI=           0
 LnScr1=           0 LExtra=           0 Total=       657660
 MaxDsk=          -1 SrtSym=           F ITran=            3
 JobTyp=2 Pass  1:  I=   1 to   4.
 (rs|ai) integrals will be sorted in core.
 SymMOI:  orbitals are not symmetric.
 Spin components of T(2) and E(2):
     alpha-alpha T2 =       0.1510263282D-02 E2=     -0.2018649847D-02
     alpha-beta  T2 =       0.3697237642D-01 E2=     -0.5403408834D-01
     beta-beta   T2 =       0.1018235712D-02 E2=     -0.1660956396D-02
 ANorm=    0.1019559157D+01
 E2 =    -0.5771369458D-01 EUMP2 =    -0.49083753474024D+01
 (S**2,0)=  0.24932D+01           (S**2,1)=  0.24107D+01
 E(PUHF)=      -0.48653979280D+01        E(PMP2)=      -0.49219538456D+01
 Second order stability test of a single determinant UHF wave function:
 Stabil:  MDV=134217728
 ***********************************************************************
 Matrix         Lowest Root    Major Pairs
 ***********************************************************************
 Internal UHF     0.0256261    Stable
 RUHF --> CUHF (A)0.1445073    Stable
 RUHF --> CUHF (B)0.2063081    Stable

 RUHF --> GHF    -0.0914867    6A=5B 4B=7A 5A=5B 3B=8A 5A=8B 4A=6B 6A=6B 6A=8B 5A
 =6B 4A=8B 4B=8A 3A=7B
 Not stable.
 ***********************************************************************

 **********************************************************************

            Population analysis using the SCF density.

 **********************************************************************

 Orbital symmetries:
 Alpha Orbitals:
       Occupied  (BG) (BG) (BG) (BG) (BG) (BG)
       Virtual   (BG) (BG) (BG) (BG)
 Beta  Orbitals:
       Occupied  (BG) (BG) (BG) (BG)
       Virtual   (BG) (BG) (BG) (BG) (BG) (BG)
 Unable to determine electronic state:  partially filled degenerate orbitals.
 Alpha  occ. eigenvalues --   -0.85002  -0.75101  -0.62095  -0.45131  -0.30280
 Alpha  occ. eigenvalues --   -0.25433
 Alpha virt. eigenvalues --    0.13989   0.17770   0.34812   0.53458
  Beta  occ. eigenvalues --   -0.74799  -0.69028  -0.52938  -0.35881
  Beta virt. eigenvalues --    0.06917   0.13074   0.24033   0.26719   0.45683
  Beta virt. eigenvalues --    0.67214
          Condensed to atoms (all electrons):
               1          2          3          4          5          6
     1  H    1.299179  -0.211575  -0.011176  -0.017861   0.009150   0.001335
     2  H   -0.211575   1.116437   0.415227  -0.113833  -0.166279   0.002762
     3  H   -0.011176   0.415227   0.643948  -0.064755  -0.072883  -0.027533
     4  H   -0.017861  -0.113833  -0.064755   0.823917   0.401745   0.074904
     5  H    0.009150  -0.166279  -0.072883   0.401745   1.121090  -0.188368
     6  H    0.001335   0.002762  -0.027533   0.074904  -0.188368   1.184531
     7  H   -0.000995   0.009593   0.008801  -0.150892  -0.024480  -0.037324
     8  H    0.000151   0.000829   0.000065   0.001485  -0.037583   0.164535
     9  H   -0.000046   0.000235   0.001996  -0.012275   0.010859  -0.140785
    10  H   -0.000001  -0.000217  -0.000182   0.004670   0.003848  -0.018541
               7          8          9         10
     1  H   -0.000995   0.000151  -0.000046  -0.000001
     2  H    0.009593   0.000829   0.000235  -0.000217
     3  H    0.008801   0.000065   0.001996  -0.000182
     4  H   -0.150892   0.001485  -0.012275   0.004670
     5  H   -0.024480  -0.037583   0.010859   0.003848
     6  H   -0.037324   0.164535  -0.140785  -0.018541
     7  H    1.362484  -0.154515   0.141158  -0.069724
     8  H   -0.154515   0.771510   0.153090   0.046207
     9  H    0.141158   0.153090   0.733462   0.021870
    10  H   -0.069724   0.046207   0.021870   1.038066
          Atomic-Atomic Spin Densities.
               1          2          3          4          5          6
     1  H    1.231362  -0.277243  -0.102666   0.001685   0.023065   0.001735
     2  H   -0.277243   0.732722   0.029590  -0.007329  -0.104461   0.011767
     3  H   -0.102666   0.029590  -0.265813   0.034049   0.043074  -0.010777
     4  H    0.001685  -0.007329   0.034049   0.012927  -0.032717   0.036488
     5  H    0.023065  -0.104461   0.043074  -0.032717   0.580076  -0.238602
     6  H    0.001735   0.011767  -0.010777   0.036488  -0.238602   0.938924
     7  H   -0.001553   0.009100   0.011126  -0.107159   0.016746  -0.215879
     8  H   -0.000012  -0.000675  -0.002150   0.032557  -0.008201   0.103854
     9  H   -0.000125  -0.000420   0.000573   0.000415   0.029273  -0.155778
    10  H    0.000023  -0.000042   0.000057  -0.001172  -0.001498   0.016791
               7          8          9         10
     1  H   -0.001553  -0.000012  -0.000125   0.000023
     2  H    0.009100  -0.000675  -0.000420  -0.000042
     3  H    0.011126  -0.002150   0.000573   0.000057
     4  H   -0.107159   0.032557   0.000415  -0.001172
     5  H    0.016746  -0.008201   0.029273  -0.001498
     6  H   -0.215879   0.103854  -0.155778   0.016791
     7  H    0.968180  -0.294347   0.059428   0.000395
     8  H   -0.294347   0.263506  -0.093960   0.123058
     9  H    0.059428  -0.093960   0.449883   0.022641
    10  H    0.000395   0.123058   0.022641  -0.813222
 Mulliken charges and spin densities:
               1          2
     1  H   -0.068161   0.876273
     2  H   -0.053178   0.393010
     3  H    0.106493  -0.262937
     4  H    0.052895  -0.030256
     5  H   -0.057097   0.306757
     6  H   -0.015516   0.488523
     7  H   -0.084104   0.446036
     8  H    0.054226   0.123631
     9  H    0.090438   0.311931
    10  H   -0.025996  -0.652968
 Sum of Mulliken charges =  -0.00000   2.00000
 Mulliken charges and spin densities with hydrogens summed into heavy atoms:
               1          2
 Electronic spatial extent (au):  <R**2>=            178.6767
 Charge=              0.0000 electrons
 Dipole moment (field-independent basis, Debye):
    X=             -0.7504    Y=             -0.9908    Z=             -0.0000  Tot=              1.2429
 Quadrupole moment (field-independent basis, Debye-Ang):
   XX=            -14.2051   YY=            -17.1090   ZZ=            -12.8241
   XY=             -2.2078   XZ=              0.0000   YZ=              0.0000
 Traceless Quadrupole moment (field-independent basis, Debye-Ang):
   XX=              0.5076   YY=             -2.3963   ZZ=              1.8887
   XY=             -2.2078   XZ=              0.0000   YZ=              0.0000
 Octapole moment (field-independent basis, Debye-Ang**2):
  XXX=             -3.1483  YYY=             -8.9518  ZZZ=              0.0000  XYY=             -7.0581
  XXY=             -5.0710  XXZ=              0.0000  XZZ=              0.0197  YZZ=              0.0244
  YYZ=              0.0000  XYZ=              0.0000
 Hexadecapole moment (field-independent basis, Debye-Ang**3):
 XXXX=           -136.1025 YYYY=           -285.0813 ZZZZ=            -15.4574 XXXY=            -80.6800
 XXXZ=             -0.0000 YYYX=           -104.5427 YYYZ=             -0.0000 ZZZX=             -0.0000
 ZZZY=             -0.0000 XXYY=            -78.6288 XXZZ=            -24.7931 YYZZ=            -40.9031
 XXYZ=             -0.0000 YYXZ=              0.0000 ZZXY=            -23.9866
 N-N= 1.217471346968D+01 E-N=-3.387281183478D+01  KE= 5.378950331148D+00
 Symmetry AG   KE= 2.316342377170D+00
 Symmetry BG   KE= 0.000000000000D+00
 Symmetry AU   KE= 0.000000000000D+00
 Symmetry BU   KE= 3.062607953978D+00
                          Isotropic Fermi Contact Couplings
        Atom                 a.u.       MegaHertz       Gauss      10(-4) cm-1
     1  H(1)               0.34467     770.32433     274.87087     256.95254
     2  H(1)               0.19475     435.25936     155.31136     145.18690
     3  H(1)              -0.07826    -174.91684     -62.41468     -58.34598
     4  H(1)               0.00083       1.86557       0.66568       0.62229
     5  H(1)               0.15052     336.39473     120.03400     112.20920
     6  H(1)               0.23927     534.74330     190.80970     178.37117
     7  H(1)               0.23986     536.06564     191.28155     178.81225
     8  H(1)               0.06221     139.04208      49.61367      46.37944
     9  H(1)               0.12387     276.84566      98.78541      92.34577
    10  H(1)              -0.23656    -528.69711    -188.65227    -176.35437
 --------------------------------------------------------
       Center         ----  Spin Dipole Couplings  ----
                      3XX-RR        3YY-RR        3ZZ-RR
 --------------------------------------------------------
     1   Atom       -0.010514      0.004058      0.006456
     2   Atom       -0.046326      0.058269     -0.011943
     3   Atom        0.081631      0.022785     -0.104416
     4   Atom        0.068531      0.014708     -0.083239
     5   Atom        0.012790      0.025229     -0.038019
     6   Atom        0.059404     -0.010466     -0.048937
     7   Atom        0.084253     -0.028186     -0.056066
     8   Atom        0.054536     -0.009561     -0.044975
     9   Atom        0.031498     -0.019800     -0.011698
    10   Atom       -0.010425      0.048973     -0.038548
 --------------------------------------------------------
                        XY            XZ            YZ
 --------------------------------------------------------
     1   Atom       -0.020731      0.000000     -0.000000
     2   Atom        0.039330     -0.000000      0.000000
     3   Atom        0.025047      0.000000     -0.000000
     4   Atom        0.034676      0.000000      0.000000
     5   Atom        0.040089     -0.000000      0.000000
     6   Atom       -0.050048     -0.000000      0.000000
     7   Atom       -0.023163     -0.000000      0.000000
     8   Atom       -0.015266     -0.000000     -0.000000
     9   Atom        0.012249     -0.000000     -0.000000
    10   Atom        0.027756      0.000000      0.000000
 --------------------------------------------------------


 ---------------------------------------------------------------------------------
              Anisotropic Spin Dipole Couplings in Principal Axis System
 ---------------------------------------------------------------------------------

       Atom             a.u.   MegaHertz   Gauss  10(-4) cm-1        Axes

              Baa    -0.0252   -13.447    -4.798    -4.485  0.8160  0.5781  0.0000
     1 H(1)   Bbb     0.0065     3.445     1.229     1.149  0.0000  0.0000  1.0000
              Bcc     0.0187    10.002     3.569     3.336 -0.5781  0.8160 -0.0000
 
              Baa    -0.0595   -31.727   -11.321   -10.583  0.9485 -0.3168  0.0000
     2 H(1)   Bbb    -0.0119    -6.372    -2.274    -2.126  0.0000  0.0000  1.0000
              Bcc     0.0714    38.100    13.595    12.709  0.3168  0.9485  0.0000
 
              Baa    -0.1044   -55.712   -19.879   -18.583  0.0000  0.0000  1.0000
     3 H(1)   Bbb     0.0136     7.239     2.583     2.415 -0.3454  0.9385  0.0000
              Bcc     0.0908    48.472    17.296    16.169  0.9385  0.3454  0.0000
 
              Baa    -0.0832   -44.413   -15.848   -14.814  0.0000  0.0000  1.0000
     4 H(1)   Bbb    -0.0023    -1.213    -0.433    -0.405 -0.4398  0.8981  0.0000
              Bcc     0.0855    45.626    16.280    15.219  0.8981  0.4398  0.0000
 
              Baa    -0.0380   -20.285    -7.238    -6.766  0.0000  0.0000  1.0000
     5 H(1)   Bbb    -0.0216   -11.503    -4.105    -3.837  0.7594 -0.6506  0.0000
              Bcc     0.0596    31.788    11.343    10.603  0.6506  0.7594  0.0000
 
              Baa    -0.0489   -26.111    -9.317    -8.710  0.0000  0.0000  1.0000
     6 H(1)   Bbb    -0.0366   -19.510    -6.962    -6.508  0.4624  0.8867  0.0000
              Bcc     0.0855    45.621    16.279    15.217  0.8867 -0.4624  0.0000
 
              Baa    -0.0561   -29.914   -10.674    -9.978  0.0000  0.0000  1.0000
     7 H(1)   Bbb    -0.0328   -17.485    -6.239    -5.832  0.1942  0.9810  0.0000
              Bcc     0.0888    47.399    16.913    15.811  0.9810 -0.1942  0.0000
 
              Baa    -0.0450   -23.996    -8.563    -8.004  0.0000  0.0000  1.0000
     8 H(1)   Bbb    -0.0130    -6.942    -2.477    -2.316  0.2204  0.9754 -0.0000
              Bcc     0.0580    30.939    11.040    10.320  0.9754 -0.2204  0.0000
 
              Baa    -0.0226   -12.045    -4.298    -4.018 -0.2209  0.9753 -0.0000
     9 H(1)   Bbb    -0.0117    -6.241    -2.227    -2.082  0.0000  0.0000  1.0000
              Bcc     0.0343    18.286     6.525     6.100  0.9753  0.2209  0.0000
 
              Baa    -0.0385   -20.567    -7.339    -6.860  0.0000  0.0000  1.0000
    10 H(1)   Bbb    -0.0214   -11.405    -4.070    -3.804  0.9302 -0.3670  0.0000
              Bcc     0.0599    31.972    11.409    10.665  0.3670  0.9302  0.0000
 

 ---------------------------------------------------------------------------------


 Test job not archived.
 1\1\GINC-SULU\Stability\UHF\Gen\H10(3)\LCJ1\23-Feb-2017\0\\#uhf/gen sc
 f(tight,novaracc,noincfock,fulldiag, ) stable(crhf) guess=mix geom=noc
 rowd test\\hf stability analysis of h10 triangular lattice, y= 1.26809
 06370950717 alpha= 70.250000000000000\\0,3\H\H,1,1.3473469372\H,1,1.34
 73469372,2,39.5\H,2,1.3473469372,1,140.5,3,0.,0\H,3,1.3473469372,1,180
 .,2,0.,0\H,4,1.3473469372,2,180.,1,0.,0\H,5,1.3473469372,3,180.,2,0.,0
 \H,6,1.3473469372,4,180.,1,0.,0\H,7,1.3473469372,5,180.,2,0.,0\H,8,1.3
 473469372,6,180.,1,0.,0\\Version=ES64L-G09RevE.01\HF=-4.8506617\MP2=-4
 .9083753\PUHF=-4.8653979\PMP2-0=-4.9219538\S2=2.493156\S2-1=2.41073\S2
 A=2.047231\RMSD=1.579e-09\Dipole=0.2952354,0.,0.3898033\Quadrupole=0.3
 774025,1.4041733,-1.7815758,0.,-1.641482,0.\PG=C02H [SGH(H10)]\\@


 ADVERTISING--  HE WHO HAS SOMETHING TO SELL AND GOES AND WHISPERS
                IN A WELL, IS NOT SO APT TO GET THE DOLLARS AS HE
                WHO CLIMBS A TREE AND HOLLERS.

                   -- FROM THE BACK OF A SUGAR PACKET
 Job cpu time:       0 days  0 hours  0 minutes  1.4 seconds.
 File lengths (MBytes):  RWF=     94 Int=      0 D2E=      0 Chk=      2 Scr=      2
 Normal termination of Gaussian 09 at Thu Feb 23 13:11:22 2017.
