 Entering Gaussian System, Link 0=g09
 AtFile(1): H.gbs
            H     0
            S   10   1.00
               1000.000000000000            0.000068713567
                316.227766000000            0.000169141320
                100.000000000000            0.000823394812
                 31.622776600000            0.003425569236
                 10.000000000000            0.013951996000
                  3.162277660000            0.056909313560
                  1.000000000000            0.198286399900
                  0.316227766000            0.496922426700
                  0.100000000000            0.369846276400
                  0.031622776600            0.003752720039
            ****
 Initial command:
 /projects/guscus/apps/gau/g09-e1/g09/l1.exe "/users/lcj1/gaussian/h10/2rows_uhf/ag2bu3/triplet/mix/Gau-11112.inp" -scrdir="/users/lcj1/gaussian/h10/2rows_uhf/ag2bu3/triplet/mix/"
 Entering Link 1 = /projects/guscus/apps/gau/g09-e1/g09/l1.exe PID=     11113.
  
 Copyright (c) 1988,1990,1992,1993,1995,1998,2003,2009,2015,
            Gaussian, Inc.  All Rights Reserved.
  
 This is part of the Gaussian(R) 09 program.  It is based on
 the Gaussian(R) 03 system (copyright 2003, Gaussian, Inc.),
 the Gaussian(R) 98 system (copyright 1998, Gaussian, Inc.),
 the Gaussian(R) 94 system (copyright 1995, Gaussian, Inc.),
 the Gaussian 92(TM) system (copyright 1992, Gaussian, Inc.),
 the Gaussian 90(TM) system (copyright 1990, Gaussian, Inc.),
 the Gaussian 88(TM) system (copyright 1988, Gaussian, Inc.),
 the Gaussian 86(TM) system (copyright 1986, Carnegie Mellon
 University), and the Gaussian 82(TM) system (copyright 1983,
 Carnegie Mellon University). Gaussian is a federally registered
 trademark of Gaussian, Inc.
  
 This software contains proprietary and confidential information,
 including trade secrets, belonging to Gaussian, Inc.
  
 This software is provided under written license and may be
 used, copied, transmitted, or stored only in accord with that
 written license.
  
 The following legend is applicable only to US Government
 contracts under FAR:
  
                    RESTRICTED RIGHTS LEGEND
  
 Use, reproduction and disclosure by the US Government is
 subject to restrictions as set forth in subparagraphs (a)
 and (c) of the Commercial Computer Software - Restricted
 Rights clause in FAR 52.227-19.
  
 Gaussian, Inc.
 340 Quinnipiac St., Bldg. 40, Wallingford CT 06492
  
  
 ---------------------------------------------------------------
 Warning -- This program may not be used in any manner that
 competes with the business of Gaussian, Inc. or will provide
 assistance to any competitor of Gaussian, Inc.  The licensee
 of this program is prohibited from giving any competitor of
 Gaussian, Inc. access to this program.  By using this program,
 the user acknowledges that Gaussian, Inc. is engaged in the
 business of creating and licensing software in the field of
 computational chemistry and represents and warrants to the
 licensee that it is not a competitor of Gaussian, Inc. and that
 it will not use this program in any manner prohibited above.
 ---------------------------------------------------------------
  

 Cite this work as:
 Gaussian 09, Revision E.01,
 M. J. Frisch, G. W. Trucks, H. B. Schlegel, G. E. Scuseria, 
 M. A. Robb, J. R. Cheeseman, G. Scalmani, V. Barone, B. Mennucci, 
 G. A. Petersson, H. Nakatsuji, M. Caricato, X. Li, H. P. Hratchian, 
 A. F. Izmaylov, J. Bloino, G. Zheng, J. L. Sonnenberg, M. Hada, 
 M. Ehara, K. Toyota, R. Fukuda, J. Hasegawa, M. Ishida, T. Nakajima, 
 Y. Honda, O. Kitao, H. Nakai, T. Vreven, J. A. Montgomery, Jr., 
 J. E. Peralta, F. Ogliaro, M. Bearpark, J. J. Heyd, E. Brothers, 
 K. N. Kudin, V. N. Staroverov, T. Keith, R. Kobayashi, J. Normand, 
 K. Raghavachari, A. Rendell, J. C. Burant, S. S. Iyengar, J. Tomasi, 
 M. Cossi, N. Rega, J. M. Millam, M. Klene, J. E. Knox, J. B. Cross, 
 V. Bakken, C. Adamo, J. Jaramillo, R. Gomperts, R. E. Stratmann, 
 O. Yazyev, A. J. Austin, R. Cammi, C. Pomelli, J. W. Ochterski, 
 R. L. Martin, K. Morokuma, V. G. Zakrzewski, G. A. Voth, 
 P. Salvador, J. J. Dannenberg, S. Dapprich, A. D. Daniels, 
 O. Farkas, J. B. Foresman, J. V. Ortiz, J. Cioslowski, 
 and D. J. Fox, Gaussian, Inc., Wallingford CT, 2013.
 
 ******************************************
 Gaussian 09:  ES64L-G09RevE.01 30-Nov-2015
                23-Feb-2017 
 ******************************************
 %chk=h10.chk
 ----------------------------------------------------------------------
 #uhf/gen scf(tight,novaracc,noincfock,fulldiag, ) stable(crhf) guess=m
 ix geom=nocrowd test
 ----------------------------------------------------------------------
 1/38=1/1;
 2/12=1,17=6,18=5,40=1/2;
 3/5=7,16=1,25=1,30=1,116=2/1,2,3;
 4/13=-1/1;
 5/5=100002,16=1,32=2,38=1/2;
 8/6=1,10=90,11=11/1,4;
 9/8=4,13=1/2;
 6/7=2,8=2,9=2,10=2,28=1/1;
 99/5=1,9=1/99;
 ----------------------------------------------------------------------
 hf stability analysis of h10 triangular lattice, y= 0.7732164846609803
 6 alpha= 46.000000000000000
 ----------------------------------------------------------------------
 Symbolic Z-matrix:
 Charge =  0 Multiplicity = 3
 H
 H                    1     1.0749 
 H                    1     1.0749   2     88. 
 H                    2     1.0749   1     92.      3     0.       0
 H                    3     1.0749   1     180.     2     0.       0
 H                    4     1.0749   2     180.     1     0.       0
 H                    5     1.0749   3     180.     2     0.       0
 H                    6     1.0749   4     180.     1     0.       0
 H                    7     1.0749   5     180.     2     0.       0
 H                    8     1.0749   6     180.     1     0.       0
 
                          Input orientation:                          
 ---------------------------------------------------------------------
 Center     Atomic      Atomic             Coordinates (Angstroms)
 Number     Number       Type             X           Y           Z
 ---------------------------------------------------------------------
      1          1           0        0.000000    0.000000    0.000000
      2          1           0        0.000000    0.000000    1.074897
      3          1           0        1.074243    0.000000    0.037513
      4          1           0        1.074243    0.000000    1.112411
      5          1           0        2.148485    0.000000    0.075027
      6          1           0        2.148485    0.000000    1.149924
      7          1           0        3.222728    0.000000    0.112540
      8          1           0        3.222728    0.000000    1.187438
      9          1           0        4.296970    0.000000    0.150054
     10          1           0        4.296970    0.000000    1.224951
 ---------------------------------------------------------------------
                    Distance matrix (angstroms):
                    1          2          3          4          5
     1  H    0.000000
     2  H    1.074897   0.000000
     3  H    1.074897   1.493373   0.000000
     4  H    1.546433   1.074897   1.074897   0.000000
     5  H    2.149795   2.369753   1.074897   1.493373   0.000000
     6  H    2.436866   2.149795   1.546433   1.074897   1.074897
     7  H    3.224692   3.363347   2.149795   2.369753   1.074897
     8  H    3.434528   3.224692   2.436866   2.149795   1.546433
     9  H    4.299590   4.395371   3.224692   3.363347   2.149795
    10  H    4.468161   4.299590   3.434528   3.224692   2.436866
                    6          7          8          9         10
     6  H    0.000000
     7  H    1.493373   0.000000
     8  H    1.074897   1.074897   0.000000
     9  H    2.369753   1.074897   1.493373   0.000000
    10  H    2.149795   1.546433   1.074897   1.074897   0.000000
 Stoichiometry    H10(3)
 Framework group  C2H[SGH(H10)]
 Deg. of freedom     9
 Full point group                 C2H     NOp   4
 Largest Abelian subgroup         C2H     NOp   4
 Largest concise Abelian subgroup C2      NOp   2
                         Standard orientation:                         
 ---------------------------------------------------------------------
 Center     Atomic      Atomic             Coordinates (Angstroms)
 Number     Number       Type             X           Y           Z
 ---------------------------------------------------------------------
      1          1           0        2.148485    0.612475    0.000000
      2          1           0        2.148485   -0.462422   -0.000000
      3          1           0        1.074243    0.574962    0.000000
      4          1           0        1.074243   -0.499935   -0.000000
      5          1           0       -0.000000    0.537449    0.000000
      6          1           0       -0.000000   -0.537449    0.000000
      7          1           0       -1.074243    0.499935   -0.000000
      8          1           0       -1.074243   -0.574962    0.000000
      9          1           0       -2.148485    0.462422   -0.000000
     10          1           0       -2.148485   -0.612475    0.000000
 ---------------------------------------------------------------------
 Rotational constants (GHZ):    173.8452626     21.6966410     19.2892581
 General basis read from cards:  (5D, 7F)
 There are     5 symmetry adapted cartesian basis functions of AG  symmetry.
 There are     0 symmetry adapted cartesian basis functions of BG  symmetry.
 There are     0 symmetry adapted cartesian basis functions of AU  symmetry.
 There are     5 symmetry adapted cartesian basis functions of BU  symmetry.
 There are     5 symmetry adapted basis functions of AG  symmetry.
 There are     0 symmetry adapted basis functions of BG  symmetry.
 There are     0 symmetry adapted basis functions of AU  symmetry.
 There are     5 symmetry adapted basis functions of BU  symmetry.
    10 basis functions,   100 primitive gaussians,    10 cartesian basis functions
     6 alpha electrons        4 beta electrons
       nuclear repulsion energy        13.7486370129 Hartrees.
 NAtoms=   10 NActive=   10 NUniq=    5 SFac= 4.00D+00 NAtFMM=   60 NAOKFM=F Big=F
 Integral buffers will be    131072 words long.
 Regular integral format.
 Two-electron integral symmetry is turned on.
 One-electron integrals computed using PRISM.
 NBasis=    10 RedAO= T EigKep=  1.22D-01  NBF=     5     0     0     5
 NBsUse=    10 1.00D-06 EigRej= -1.00D+00 NBFU=     5     0     0     5
 ExpMin= 3.16D-02 ExpMax= 1.00D+03 ExpMxC= 1.00D+01 IAcc=3 IRadAn=         5 AccDes= 0.00D+00
 Harris functional with IExCor=  205 and IRadAn=       5 diagonalized for initial guess.
 HarFok:  IExCor=  205 AccDes= 0.00D+00 IRadAn=         5 IDoV= 1 UseB2=F ITyADJ=14
 ICtDFT=  3500011 ScaDFX=  1.000000  1.000000  1.000000  1.000000
 FoFCou: FMM=F IPFlag=           0 FMFlag=      100000 FMFlg1=           0
         NFxFlg=           0 DoJE=T BraDBF=F KetDBF=T FulRan=T
         wScrn=  0.000000 ICntrl=     500 IOpCl=  0 I1Cent=   200000004 NGrid=           0
         NMat0=    1 NMatS0=      1 NMatT0=    0 NMatD0=    1 NMtDS0=    0 NMtDT0=    0
 Petite list used in FoFCou.
 Mixing orbitals, IMix= 1 IMixAn=  0 NRI=1 NE=    6 Coef=  7.07106781D-01  7.07106781D-01
 Mixing orbitals, IMix= 1 IMixAn=  0 NRI=1 NE=    4 Coef= -7.07106781D-01  7.07106781D-01
 Initial guess orbital symmetries:
 Alpha Orbitals:
       Occupied  (AG) (BU) (AG) (BU) (AG) (BU)
       Virtual   (BU) (AG) (AG) (BU)
 Beta  Orbitals:
       Occupied  (AG) (BU) (AG) (?A)
       Virtual   (?A) (BU) (BU) (AG) (AG) (BU)
 Initial guess <Sx>= 0.0000 <Sy>= 0.0000 <Sz>= 1.0000 <S**2>= 2.0000 S= 1.0000
 Keep R1 and R2 ints in memory in symmetry-blocked form, NReq=879355.
 Requested convergence on RMS density matrix=1.00D-08 within 128 cycles.
 Requested convergence on MAX density matrix=1.00D-06.
 Requested convergence on             energy=1.00D-06.
 No special actions if energy rises.
 An orbital has undefined symmetry, so N**3 symmetry is turned off.
 Density matrix breaks symmetry, PCut= 1.00D-04
 Density matrix has no symmetry -- integrals replicated.
 Density matrix breaks symmetry, PCut= 1.00D-07
 Density matrix has no symmetry -- integrals replicated.
 Density matrix breaks symmetry, PCut= 1.00D-07
 Density matrix has no symmetry -- integrals replicated.
 Density matrix breaks symmetry, PCut= 1.00D-07
 Density matrix has no symmetry -- integrals replicated.
 Density matrix breaks symmetry, PCut= 1.00D-07
 Density matrix has no symmetry -- integrals replicated.
 Density matrix breaks symmetry, PCut= 1.00D-07
 Density matrix has no symmetry -- integrals replicated.
 Density matrix breaks symmetry, PCut= 1.00D-07
 Density matrix has no symmetry -- integrals replicated.
 Density matrix breaks symmetry, PCut= 1.00D-07
 Density matrix has no symmetry -- integrals replicated.
 Density matrix breaks symmetry, PCut= 1.00D-07
 Density matrix has no symmetry -- integrals replicated.
 Density matrix breaks symmetry, PCut= 1.00D-07
 Density matrix has no symmetry -- integrals replicated.
 Density matrix breaks symmetry, PCut= 1.00D-07
 Density matrix has no symmetry -- integrals replicated.
 Density matrix breaks symmetry, PCut= 1.00D-07
 Density matrix has no symmetry -- integrals replicated.
 Density matrix breaks symmetry, PCut= 1.00D-07
 Density matrix has no symmetry -- integrals replicated.
 Density matrix breaks symmetry, PCut= 1.00D-07
 Density matrix has no symmetry -- integrals replicated.
 Density matrix breaks symmetry, PCut= 1.00D-07
 Density matrix has no symmetry -- integrals replicated.
 Density matrix breaks symmetry, PCut= 1.00D-07
 Density matrix has no symmetry -- integrals replicated.
 Density matrix breaks symmetry, PCut= 1.00D-07
 Density matrix has no symmetry -- integrals replicated.
 Density matrix breaks symmetry, PCut= 1.00D-07
 Density matrix has no symmetry -- integrals replicated.
 Density matrix breaks symmetry, PCut= 1.00D-07
 Density matrix has no symmetry -- integrals replicated.
 Density matrix breaks symmetry, PCut= 1.00D-07
 Density matrix has no symmetry -- integrals replicated.
 Density matrix breaks symmetry, PCut= 1.00D-07
 Density matrix has no symmetry -- integrals replicated.
 SCF Done:  E(UHF) =  -4.92487113338     A.U. after   22 cycles
            NFock= 22  Conv=0.75D-08     -V/T= 1.9436
 <Sx>= 0.0000 <Sy>= 0.0000 <Sz>= 1.0000 <S**2>= 2.1436 S= 1.0471
 <L.S>= 0.000000000000E+00
 Annihilation of the first spin contaminant:
 S**2 before annihilation     2.1436,   after     2.0068
 Range of M.O.s used for correlation:     1    10
 NBasis=    10 NAE=     6 NBE=     4 NFC=     0 NFV=     0
 NROrb=     10 NOA=     6 NOB=     4 NVA=     4 NVB=     6
 Semi-Direct transformation.
 ModeAB=           2 MOrb=             6 LenV=     134107042
 LASXX=         1146 LTotXX=        1146 LenRXX=        1146
 LTotAB=        1971 MaxLAS=        3300 LenRXY=        3300
 NonZer=        3300 LenScr=      655360 LnRSAI=           0
 LnScr1=           0 LExtra=           0 Total=       659806
 MaxDsk=          -1 SrtSym=           F ITran=            3
 JobTyp=1 Pass  1:  I=   1 to   6.
 (rs|ai) integrals will be sorted in core.
 ModeAB=           2 MOrb=             4 LenV=     134107042
 LASXX=          831 LTotXX=         831 LenRXX=        2200
 LTotAB=         100 MaxLAS=        2200 LenRXY=         100
 NonZer=        2200 LenScr=      655360 LnRSAI=           0
 LnScr1=           0 LExtra=           0 Total=       657660
 MaxDsk=          -1 SrtSym=           F ITran=            3
 JobTyp=2 Pass  1:  I=   1 to   4.
 (rs|ai) integrals will be sorted in core.
 SymMOI:  orbitals are not symmetric.
 Spin components of T(2) and E(2):
     alpha-alpha T2 =       0.3310452869D-02 E2=     -0.4887354493D-02
     alpha-beta  T2 =       0.3990476235D-01 E2=     -0.6205577330D-01
     beta-beta   T2 =       0.3793597597D-02 E2=     -0.5087266653D-02
 ANorm=    0.1023234486D+01
 E2 =    -0.7203039444D-01 EUMP2 =    -0.49969015278251D+01
 (S**2,0)=  0.21436D+01           (S**2,1)=  0.20827D+01
 E(PUHF)=      -0.49354477156D+01        E(PMP2)=      -0.50053042081D+01
 Second order stability test of a single determinant UHF wave function:
 Stabil:  MDV=134217728
 ***********************************************************************
 Matrix         Lowest Root    Major Pairs
 ***********************************************************************
 Internal UHF     0.0865371    Stable
 RUHF --> CUHF (A)0.2170126    Stable
 RUHF --> CUHF (B)0.1631985    Stable

 RUHF --> GHF    -0.058778     6A=5B 5A=6B 3B=7A 4B=8A 3A=7B 4A=8B 2B=9A 2A=9B 1B
 =10A 1A=10B
 Not stable.
 ***********************************************************************

 **********************************************************************

            Population analysis using the SCF density.

 **********************************************************************

 Orbital symmetries:
 Alpha Orbitals:
       Occupied  (AG) (BU) (AG) (BU) (AG) (BU)
       Virtual   (BU) (AG) (AG) (BU)
 Beta  Orbitals:
       Occupied  (AG) (BU) (AG) (BU)
       Virtual   (AG) (BU) (BU) (AG) (AG) (BU)
 The electronic state is 3-BU.
 Alpha  occ. eigenvalues --   -0.90492  -0.81648  -0.57735  -0.48899  -0.37199
 Alpha  occ. eigenvalues --   -0.34689
 Alpha virt. eigenvalues --    0.14602   0.31294   0.43752   0.88210
  Beta  occ. eigenvalues --   -0.84541  -0.66428  -0.49272  -0.40872
  Beta virt. eigenvalues --    0.02761   0.04941   0.22867   0.40559   0.59353
  Beta virt. eigenvalues --    0.94677
          Condensed to atoms (all electrons):
               1          2          3          4          5          6
     1  H    0.846079   0.211605   0.144077  -0.170040  -0.021029  -0.046776
     2  H    0.211605   0.838308  -0.170400   0.158561  -0.057716  -0.017145
     3  H    0.144077  -0.170400   1.047677  -0.064256   0.250477  -0.106412
     4  H   -0.170040   0.158561  -0.064256   1.054734  -0.102009   0.230319
     5  H   -0.021029  -0.057716   0.250477  -0.102009   0.915003  -0.043100
     6  H   -0.046776  -0.017145  -0.106412   0.230319  -0.043100   0.915003
     7  H    0.004453   0.007244  -0.046746  -0.046924   0.230319  -0.102009
     8  H    0.007360   0.003836  -0.041700  -0.046746  -0.106412   0.250477
     9  H   -0.000852   0.000549   0.003836   0.007244  -0.017145  -0.057716
    10  H    0.000271  -0.000852   0.007360   0.004453  -0.046776  -0.021029
               7          8          9         10
     1  H    0.004453   0.007360  -0.000852   0.000271
     2  H    0.007244   0.003836   0.000549  -0.000852
     3  H   -0.046746  -0.041700   0.003836   0.007360
     4  H   -0.046924  -0.046746   0.007244   0.004453
     5  H    0.230319  -0.106412  -0.017145  -0.046776
     6  H   -0.102009   0.250477  -0.057716  -0.021029
     7  H    1.054734  -0.064256   0.158561  -0.170040
     8  H   -0.064256   1.047677  -0.170400   0.144077
     9  H    0.158561  -0.170400   0.838308   0.211605
    10  H   -0.170040   0.144077   0.211605   0.846079
          Atomic-Atomic Spin Densities.
               1          2          3          4          5          6
     1  H    0.485363   0.020902  -0.006443  -0.209458   0.002939   0.002798
     2  H    0.020902   0.451260  -0.220342   0.009757  -0.001763   0.006159
     3  H   -0.006443  -0.220342   0.645994  -0.035731   0.002156   0.044577
     4  H   -0.209458   0.009757  -0.035731   0.655584   0.051923  -0.034180
     5  H    0.002939  -0.001763   0.002156   0.051923  -0.469701   0.086010
     6  H    0.002798   0.006159   0.044577  -0.034180   0.086010  -0.469701
     7  H    0.003032   0.011190  -0.077456  -0.007085  -0.034180   0.051923
     8  H    0.010190   0.001784  -0.006412  -0.077456   0.044577   0.002156
     9  H   -0.002171  -0.000277   0.001784   0.011190   0.006159  -0.001763
    10  H   -0.000459  -0.002171   0.010190   0.003032   0.002798   0.002939
               7          8          9         10
     1  H    0.003032   0.010190  -0.002171  -0.000459
     2  H    0.011190   0.001784  -0.000277  -0.002171
     3  H   -0.077456  -0.006412   0.001784   0.010190
     4  H   -0.007085  -0.077456   0.011190   0.003032
     5  H   -0.034180   0.044577   0.006159   0.002798
     6  H    0.051923   0.002156  -0.001763   0.002939
     7  H    0.655584  -0.035731   0.009757  -0.209458
     8  H   -0.035731   0.645994  -0.220342  -0.006443
     9  H    0.009757  -0.220342   0.451260   0.020902
    10  H   -0.209458  -0.006443   0.020902   0.485363
 Mulliken charges and spin densities:
               1          2
     1  H    0.024852   0.306692
     2  H    0.026009   0.276499
     3  H   -0.023913   0.358315
     4  H   -0.025336   0.367576
     5  H   -0.001612  -0.309082
     6  H   -0.001612  -0.309082
     7  H   -0.025336   0.367576
     8  H   -0.023913   0.358315
     9  H    0.026009   0.276499
    10  H    0.024852   0.306692
 Sum of Mulliken charges =  -0.00000   2.00000
 Mulliken charges and spin densities with hydrogens summed into heavy atoms:
               1          2
 Electronic spatial extent (au):  <R**2>=            123.7098
 Charge=             -0.0000 electrons
 Dipole moment (field-independent basis, Debye):
    X=             -0.0000    Y=              0.0000    Z=              0.0000  Tot=              0.0000
 Quadrupole moment (field-independent basis, Debye-Ang):
   XX=            -13.3573   YY=            -15.3197   ZZ=            -12.8499
   XY=              0.0789   XZ=              0.0000   YZ=             -0.0000
 Traceless Quadrupole moment (field-independent basis, Debye-Ang):
   XX=              0.4850   YY=             -1.4774   ZZ=              0.9924
   XY=              0.0789   XZ=              0.0000   YZ=             -0.0000
 Octapole moment (field-independent basis, Debye-Ang**2):
  XXX=             -0.0000  YYY=             -0.0000  ZZZ=             -0.0000  XYY=             -0.0000
  XXY=              0.0000  XXZ=             -0.0000  XZZ=             -0.0000  YZZ=             -0.0000
  YYZ=             -0.0000  XYZ=             -0.0000
 Hexadecapole moment (field-independent basis, Debye-Ang**3):
 XXXX=           -210.7745 YYYY=            -45.1407 ZZZZ=            -15.4418 XXXY=             -3.2114
 XXXZ=             -0.0000 YYYX=             -3.2029 YYYZ=             -0.0000 ZZZX=             -0.0000
 ZZZY=             -0.0000 XXYY=            -41.9971 XXZZ=            -36.1486 YYZZ=             -9.9603
 XXYZ=             -0.0000 YYXZ=             -0.0000 ZZXY=             -1.0421
 N-N= 1.374863701289D+01 E-N=-3.664847952262D+01  KE= 5.219222428812D+00
 Symmetry AG   KE= 2.359140978295D+00
 Symmetry BG   KE= 0.000000000000D+00
 Symmetry AU   KE= 0.000000000000D+00
 Symmetry BU   KE= 2.860081450516D+00
                          Isotropic Fermi Contact Couplings
        Atom                 a.u.       MegaHertz       Gauss      10(-4) cm-1
     1  H(1)               0.13512     301.99253     107.75844     100.73386
     2  H(1)               0.12497     279.30095      99.66152      93.16477
     3  H(1)               0.17425     389.43302     138.95938     129.90087
     4  H(1)               0.17713     395.87971     141.25972     132.05126
     5  H(1)              -0.12776    -285.52545    -101.88258     -95.24104
     6  H(1)              -0.12776    -285.52545    -101.88258     -95.24104
     7  H(1)               0.17713     395.87971     141.25972     132.05126
     8  H(1)               0.17425     389.43302     138.95938     129.90087
     9  H(1)               0.12497     279.30095      99.66152      93.16477
    10  H(1)               0.13512     301.99253     107.75844     100.73386
 --------------------------------------------------------
       Center         ----  Spin Dipole Couplings  ----
                      3XX-RR        3YY-RR        3ZZ-RR
 --------------------------------------------------------
     1   Atom        0.033911      0.016542     -0.050452
     2   Atom        0.034007      0.020561     -0.054568
     3   Atom       -0.022649      0.049298     -0.026649
     4   Atom       -0.026302      0.049040     -0.022738
     5   Atom        0.185157     -0.095040     -0.090117
     6   Atom        0.185157     -0.095040     -0.090117
     7   Atom       -0.026302      0.049040     -0.022738
     8   Atom       -0.022649      0.049298     -0.026649
     9   Atom        0.034007      0.020561     -0.054568
    10   Atom        0.033911      0.016542     -0.050452
 --------------------------------------------------------
                        XY            XZ            YZ
 --------------------------------------------------------
     1   Atom       -0.016428     -0.000000      0.000000
     2   Atom        0.022269      0.000000      0.000000
     3   Atom        0.020670      0.000000      0.000000
     4   Atom       -0.021411     -0.000000      0.000000
     5   Atom        0.007543      0.000000      0.000000
     6   Atom        0.007543     -0.000000      0.000000
     7   Atom       -0.021411     -0.000000     -0.000000
     8   Atom        0.020670      0.000000     -0.000000
     9   Atom        0.022269     -0.000000     -0.000000
    10   Atom       -0.016428      0.000000     -0.000000
 --------------------------------------------------------


 ---------------------------------------------------------------------------------
              Anisotropic Spin Dipole Couplings in Principal Axis System
 ---------------------------------------------------------------------------------

       Atom             a.u.   MegaHertz   Gauss  10(-4) cm-1        Axes

              Baa    -0.0505   -26.919    -9.605    -8.979  0.0000  0.0000  1.0000
     1 H(1)   Bbb     0.0066     3.545     1.265     1.182  0.5161  0.8566  0.0000
              Bcc     0.0438    23.374     8.340     7.797  0.8566 -0.5161  0.0000
 
              Baa    -0.0546   -29.115   -10.389    -9.712  0.0000  0.0000  1.0000
     2 H(1)   Bbb     0.0040     2.146     0.766     0.716 -0.5962  0.8028 -0.0000
              Bcc     0.0505    26.969     9.623     8.996  0.8028  0.5962  0.0000
 
              Baa    -0.0282   -15.027    -5.362    -5.013  0.9662 -0.2578  0.0000
     3 H(1)   Bbb    -0.0266   -14.219    -5.074    -4.743  0.0000  0.0000  1.0000
              Bcc     0.0548    29.246    10.436     9.755  0.2578  0.9662  0.0000
 
              Baa    -0.0320   -17.053    -6.085    -5.688  0.9668  0.2555  0.0000
     4 H(1)   Bbb    -0.0227   -12.132    -4.329    -4.047  0.0000  0.0000  1.0000
              Bcc     0.0547    29.185    10.414     9.735 -0.2555  0.9668  0.0000
 
              Baa    -0.0952   -50.817   -18.133   -16.951 -0.0269  0.9996 -0.0000
     5 H(1)   Bbb    -0.0901   -48.082   -17.157   -16.038  0.0000  0.0000  1.0000
              Bcc     0.1854    98.899    35.290    32.989  0.9996  0.0269  0.0000
 
              Baa    -0.0952   -50.817   -18.133   -16.951 -0.0269  0.9996  0.0000
     6 H(1)   Bbb    -0.0901   -48.082   -17.157   -16.038  0.0000  0.0000  1.0000
              Bcc     0.1854    98.899    35.290    32.989  0.9996  0.0269  0.0000
 
              Baa    -0.0320   -17.053    -6.085    -5.688  0.9668  0.2555  0.0000
     7 H(1)   Bbb    -0.0227   -12.132    -4.329    -4.047  0.0000  0.0000  1.0000
              Bcc     0.0547    29.185    10.414     9.735 -0.2555  0.9668 -0.0000
 
              Baa    -0.0282   -15.027    -5.362    -5.013  0.9662 -0.2578  0.0000
     8 H(1)   Bbb    -0.0266   -14.219    -5.074    -4.743  0.0000  0.0000  1.0000
              Bcc     0.0548    29.246    10.436     9.755  0.2578  0.9662  0.0000
 
              Baa    -0.0546   -29.115   -10.389    -9.712  0.0000  0.0000  1.0000
     9 H(1)   Bbb     0.0040     2.146     0.766     0.716 -0.5962  0.8028  0.0000
              Bcc     0.0505    26.969     9.623     8.996  0.8028  0.5962  0.0000
 
              Baa    -0.0505   -26.919    -9.605    -8.979  0.0000  0.0000  1.0000
    10 H(1)   Bbb     0.0066     3.545     1.265     1.182  0.5161  0.8566  0.0000
              Bcc     0.0438    23.374     8.340     7.797  0.8566 -0.5161  0.0000
 

 ---------------------------------------------------------------------------------


 Test job not archived.
 1\1\GINC-SULU\Stability\UHF\Gen\H10(3)\LCJ1\23-Feb-2017\0\\#uhf/gen sc
 f(tight,novaracc,noincfock,fulldiag, ) stable(crhf) guess=mix geom=noc
 rowd test\\hf stability analysis of h10 triangular lattice, y= 0.77321
 648466098036 alpha= 46.000000000000000\\0,3\H\H,1,1.0748973818\H,1,1.0
 748973818,2,88.\H,2,1.0748973818,1,92.,3,0.,0\H,3,1.0748973818,1,180.,
 2,0.,0\H,4,1.0748973818,2,180.,1,0.,0\H,5,1.0748973818,3,180.,2,0.,0\H
 ,6,1.0748973818,4,180.,1,0.,0\H,7,1.0748973818,5,180.,2,0.,0\H,8,1.074
 8973818,6,180.,1,0.,0\\Version=ES64L-G09RevE.01\State=3-BU\HF=-4.92487
 11\MP2=-4.9969015\PUHF=-4.9354477\PMP2-0=-5.0053042\S2=2.143616\S2-1=2
 .082708\S2A=2.006817\RMSD=7.456e-09\Dipole=0.,0.,0.\Quadrupole=0.36058
 75,0.7378398,-1.0984273,0.,0.0586555,0.\PG=C02H [SGH(H10)]\\@


    UPON JULIA'S CLOTHES

 WHENAS IN SILKS MY JULIA GOES,
 THEN, THEN, METHINKS, HOW SWEETLY FLOWS
 THAT LIQUEFACTION OF HER CLOTHES.

 NEXT, WHEN I CAST MINE EYES, AND SEE
 THAT BRAVE VIBRATION, EACH WAY FREE,
 O, HOW THAT GLITTERING TAKETH ME!
     -- ROBERT HERRICK, 1648
 Job cpu time:       0 days  0 hours  0 minutes  1.5 seconds.
 File lengths (MBytes):  RWF=     94 Int=      0 D2E=      0 Chk=      2 Scr=      2
 Normal termination of Gaussian 09 at Thu Feb 23 13:05:47 2017.
