 Entering Gaussian System, Link 0=g09
 AtFile(1): H.gbs
            H     0
            S   10   1.00
               1000.000000000000            0.000068713567
                316.227766000000            0.000169141320
                100.000000000000            0.000823394812
                 31.622776600000            0.003425569236
                 10.000000000000            0.013951996000
                  3.162277660000            0.056909313560
                  1.000000000000            0.198286399900
                  0.316227766000            0.496922426700
                  0.100000000000            0.369846276400
                  0.031622776600            0.003752720039
            ****
 Initial command:
 /projects/guscus/apps/gau/g09-e1/g09/l1.exe "/users/lcj1/gaussian/h10/2rows_uhf/ag2bu3/triplet/mix/Gau-23005.inp" -scrdir="/users/lcj1/gaussian/h10/2rows_uhf/ag2bu3/triplet/mix/"
 Entering Link 1 = /projects/guscus/apps/gau/g09-e1/g09/l1.exe PID=     23006.
  
 Copyright (c) 1988,1990,1992,1993,1995,1998,2003,2009,2015,
            Gaussian, Inc.  All Rights Reserved.
  
 This is part of the Gaussian(R) 09 program.  It is based on
 the Gaussian(R) 03 system (copyright 2003, Gaussian, Inc.),
 the Gaussian(R) 98 system (copyright 1998, Gaussian, Inc.),
 the Gaussian(R) 94 system (copyright 1995, Gaussian, Inc.),
 the Gaussian 92(TM) system (copyright 1992, Gaussian, Inc.),
 the Gaussian 90(TM) system (copyright 1990, Gaussian, Inc.),
 the Gaussian 88(TM) system (copyright 1988, Gaussian, Inc.),
 the Gaussian 86(TM) system (copyright 1986, Carnegie Mellon
 University), and the Gaussian 82(TM) system (copyright 1983,
 Carnegie Mellon University). Gaussian is a federally registered
 trademark of Gaussian, Inc.
  
 This software contains proprietary and confidential information,
 including trade secrets, belonging to Gaussian, Inc.
  
 This software is provided under written license and may be
 used, copied, transmitted, or stored only in accord with that
 written license.
  
 The following legend is applicable only to US Government
 contracts under FAR:
  
                    RESTRICTED RIGHTS LEGEND
  
 Use, reproduction and disclosure by the US Government is
 subject to restrictions as set forth in subparagraphs (a)
 and (c) of the Commercial Computer Software - Restricted
 Rights clause in FAR 52.227-19.
  
 Gaussian, Inc.
 340 Quinnipiac St., Bldg. 40, Wallingford CT 06492
  
  
 ---------------------------------------------------------------
 Warning -- This program may not be used in any manner that
 competes with the business of Gaussian, Inc. or will provide
 assistance to any competitor of Gaussian, Inc.  The licensee
 of this program is prohibited from giving any competitor of
 Gaussian, Inc. access to this program.  By using this program,
 the user acknowledges that Gaussian, Inc. is engaged in the
 business of creating and licensing software in the field of
 computational chemistry and represents and warrants to the
 licensee that it is not a competitor of Gaussian, Inc. and that
 it will not use this program in any manner prohibited above.
 ---------------------------------------------------------------
  

 Cite this work as:
 Gaussian 09, Revision E.01,
 M. J. Frisch, G. W. Trucks, H. B. Schlegel, G. E. Scuseria, 
 M. A. Robb, J. R. Cheeseman, G. Scalmani, V. Barone, B. Mennucci, 
 G. A. Petersson, H. Nakatsuji, M. Caricato, X. Li, H. P. Hratchian, 
 A. F. Izmaylov, J. Bloino, G. Zheng, J. L. Sonnenberg, M. Hada, 
 M. Ehara, K. Toyota, R. Fukuda, J. Hasegawa, M. Ishida, T. Nakajima, 
 Y. Honda, O. Kitao, H. Nakai, T. Vreven, J. A. Montgomery, Jr., 
 J. E. Peralta, F. Ogliaro, M. Bearpark, J. J. Heyd, E. Brothers, 
 K. N. Kudin, V. N. Staroverov, T. Keith, R. Kobayashi, J. Normand, 
 K. Raghavachari, A. Rendell, J. C. Burant, S. S. Iyengar, J. Tomasi, 
 M. Cossi, N. Rega, J. M. Millam, M. Klene, J. E. Knox, J. B. Cross, 
 V. Bakken, C. Adamo, J. Jaramillo, R. Gomperts, R. E. Stratmann, 
 O. Yazyev, A. J. Austin, R. Cammi, C. Pomelli, J. W. Ochterski, 
 R. L. Martin, K. Morokuma, V. G. Zakrzewski, G. A. Voth, 
 P. Salvador, J. J. Dannenberg, S. Dapprich, A. D. Daniels, 
 O. Farkas, J. B. Foresman, J. V. Ortiz, J. Cioslowski, 
 and D. J. Fox, Gaussian, Inc., Wallingford CT, 2013.
 
 ******************************************
 Gaussian 09:  ES64L-G09RevE.01 30-Nov-2015
                23-Feb-2017 
 ******************************************
 %chk=h10.chk
 ----------------------------------------------------------------------
 #uhf/gen scf(tight,novaracc,noincfock,fulldiag, ) stable(crhf) guess=m
 ix geom=nocrowd test
 ----------------------------------------------------------------------
 1/38=1/1;
 2/12=1,17=6,18=5,40=1/2;
 3/5=7,16=1,25=1,30=1,116=2/1,2,3;
 4/13=-1/1;
 5/5=100002,16=1,32=2,38=1/2;
 8/6=1,10=90,11=11/1,4;
 9/8=4,13=1/2;
 6/7=2,8=2,9=2,10=2,28=1/1;
 99/5=1,9=1/99;
 ----------------------------------------------------------------------
 hf stability analysis of h10 triangular lattice, y= 1.5360456330340897
  alpha= 76.250000000000000
 ----------------------------------------------------------------------
 Symbolic Z-matrix:
 Charge =  0 Multiplicity = 3
 H
 H                    1     1.58136 
 H                    1     1.58136  2     27.5 
 H                    2     1.58136  1     152.5    3     0.       0
 H                    3     1.58136  1     180.     2     0.       0
 H                    4     1.58136  2     180.     1     0.       0
 H                    5     1.58136  3     180.     2     0.       0
 H                    6     1.58136  4     180.     1     0.       0
 H                    7     1.58136  5     180.     2     0.       0
 H                    8     1.58136  6     180.     1     0.       0
 
                          Input orientation:                          
 ---------------------------------------------------------------------
 Center     Atomic      Atomic             Coordinates (Angstroms)
 Number     Number       Type             X           Y           Z
 ---------------------------------------------------------------------
      1          1           0        0.000000    0.000000    0.000000
      2          1           0        0.000000    0.000000    1.581364
      3          1           0        0.730193    0.000000    1.402687
      4          1           0        0.730193    0.000000    2.984051
      5          1           0        1.460385    0.000000    2.805374
      6          1           0        1.460385    0.000000    4.386739
      7          1           0        2.190578    0.000000    4.208062
      8          1           0        2.190578    0.000000    5.789426
      9          1           0        2.920771    0.000000    5.610749
     10          1           0        2.920771    0.000000    7.192113
 ---------------------------------------------------------------------
                    Distance matrix (angstroms):
                    1          2          3          4          5
     1  H    0.000000
     2  H    1.581364   0.000000
     3  H    1.581364   0.751736   0.000000
     4  H    3.072091   1.581364   1.581364   0.000000
     5  H    3.162728   1.905499   1.581364   0.751736   0.000000
     6  H    4.623440   3.162728   3.072091   1.581364   1.581364
     7  H    4.744093   3.420259   3.162728   1.905499   1.581364
     8  H    6.189999   4.744093   4.623440   3.162728   3.072091
     9  H    6.325457   4.976630   4.744093   3.420259   3.162728
    10  H    7.762564   6.325457   6.189999   4.744093   4.623440
                    6          7          8          9         10
     6  H    0.000000
     7  H    0.751736   0.000000
     8  H    1.581364   1.581364   0.000000
     9  H    1.905499   1.581364   0.751736   0.000000
    10  H    3.162728   3.072091   1.581364   1.581364   0.000000
 Stoichiometry    H10(3)
 Framework group  C2H[SGH(H10)]
 Deg. of freedom     9
 Full point group                 C2H     NOp   4
 Largest Abelian subgroup         C2H     NOp   4
 Largest concise Abelian subgroup C2      NOp   2
                         Standard orientation:                         
 ---------------------------------------------------------------------
 Center     Atomic      Atomic             Coordinates (Angstroms)
 Number     Number       Type             X           Y           Z
 ---------------------------------------------------------------------
      1          1           0        1.460385    3.596057   -0.000000
      2          1           0        1.460385    2.014692   -0.000000
      3          1           0        0.730193    2.193369   -0.000000
      4          1           0        0.730193    0.612005   -0.000000
      5          1           0        0.000000    0.790682   -0.000000
      6          1           0       -0.000000   -0.790682   -0.000000
      7          1           0       -0.730193   -0.612005   -0.000000
      8          1           0       -0.730193   -2.193369   -0.000000
      9          1           0       -1.460385   -2.014692   -0.000000
     10          1           0       -1.460385   -3.596057   -0.000000
 ---------------------------------------------------------------------
 Rotational constants (GHZ):    414.1150330      9.1082354      8.9122160
 General basis read from cards:  (5D, 7F)
 There are     5 symmetry adapted cartesian basis functions of AG  symmetry.
 There are     0 symmetry adapted cartesian basis functions of BG  symmetry.
 There are     0 symmetry adapted cartesian basis functions of AU  symmetry.
 There are     5 symmetry adapted cartesian basis functions of BU  symmetry.
 There are     5 symmetry adapted basis functions of AG  symmetry.
 There are     0 symmetry adapted basis functions of BG  symmetry.
 There are     0 symmetry adapted basis functions of AU  symmetry.
 There are     5 symmetry adapted basis functions of BU  symmetry.
    10 basis functions,   100 primitive gaussians,    10 cartesian basis functions
     6 alpha electrons        4 beta electrons
       nuclear repulsion energy        11.3038169080 Hartrees.
 NAtoms=   10 NActive=   10 NUniq=    5 SFac= 4.00D+00 NAtFMM=   60 NAOKFM=F Big=F
 Integral buffers will be    131072 words long.
 Regular integral format.
 Two-electron integral symmetry is turned on.
 One-electron integrals computed using PRISM.
 NBasis=    10 RedAO= T EigKep=  1.68D-01  NBF=     5     0     0     5
 NBsUse=    10 1.00D-06 EigRej= -1.00D+00 NBFU=     5     0     0     5
 ExpMin= 3.16D-02 ExpMax= 1.00D+03 ExpMxC= 1.00D+01 IAcc=3 IRadAn=         5 AccDes= 0.00D+00
 Harris functional with IExCor=  205 and IRadAn=       5 diagonalized for initial guess.
 HarFok:  IExCor=  205 AccDes= 0.00D+00 IRadAn=         5 IDoV= 1 UseB2=F ITyADJ=14
 ICtDFT=  3500011 ScaDFX=  1.000000  1.000000  1.000000  1.000000
 FoFCou: FMM=F IPFlag=           0 FMFlag=      100000 FMFlg1=           0
         NFxFlg=           0 DoJE=T BraDBF=F KetDBF=T FulRan=T
         wScrn=  0.000000 ICntrl=     500 IOpCl=  0 I1Cent=   200000004 NGrid=           0
         NMat0=    1 NMatS0=      1 NMatT0=    0 NMatD0=    1 NMtDS0=    0 NMtDT0=    0
 Petite list used in FoFCou.
 Mixing orbitals, IMix= 1 IMixAn=  0 NRI=1 NE=    6 Coef=  7.07106781D-01  7.07106781D-01
 Mixing orbitals, IMix= 1 IMixAn=  0 NRI=1 NE=    4 Coef= -7.07106781D-01  7.07106781D-01
 Initial guess orbital symmetries:
 Alpha Orbitals:
       Occupied  (AG) (BU) (AG) (BU) (AG) (BU)
       Virtual   (BU) (AG) (BU) (AG)
 Beta  Orbitals:
       Occupied  (AG) (BU) (AG) (?A)
       Virtual   (?A) (BU) (BU) (AG) (BU) (AG)
 Initial guess <Sx>= 0.0000 <Sy>= 0.0000 <Sz>= 1.0000 <S**2>= 2.0000 S= 1.0000
 Keep R1 and R2 ints in memory in symmetry-blocked form, NReq=874595.
 Requested convergence on RMS density matrix=1.00D-08 within 128 cycles.
 Requested convergence on MAX density matrix=1.00D-06.
 Requested convergence on             energy=1.00D-06.
 No special actions if energy rises.
 An orbital has undefined symmetry, so N**3 symmetry is turned off.
 Density matrix breaks symmetry, PCut= 1.00D-04
 Density matrix has no symmetry -- integrals replicated.
 Density matrix breaks symmetry, PCut= 1.00D-07
 Density matrix has no symmetry -- integrals replicated.
 Density matrix breaks symmetry, PCut= 1.00D-07
 Density matrix has no symmetry -- integrals replicated.
 Density matrix breaks symmetry, PCut= 1.00D-07
 Density matrix has no symmetry -- integrals replicated.
 Density matrix breaks symmetry, PCut= 1.00D-07
 Density matrix has no symmetry -- integrals replicated.
 Density matrix breaks symmetry, PCut= 1.00D-07
 Density matrix has no symmetry -- integrals replicated.
 Density matrix breaks symmetry, PCut= 1.00D-07
 Density matrix has no symmetry -- integrals replicated.
 Density matrix breaks symmetry, PCut= 1.00D-07
 Density matrix has no symmetry -- integrals replicated.
 Density matrix breaks symmetry, PCut= 1.00D-07
 Density matrix has no symmetry -- integrals replicated.
 Density matrix breaks symmetry, PCut= 1.00D-07
 Density matrix has no symmetry -- integrals replicated.
 Density matrix breaks symmetry, PCut= 1.00D-07
 Density matrix has no symmetry -- integrals replicated.
 Density matrix breaks symmetry, PCut= 1.00D-07
 Density matrix has no symmetry -- integrals replicated.
 Density matrix breaks symmetry, PCut= 1.00D-07
 Density matrix has no symmetry -- integrals replicated.
 Density matrix breaks symmetry, PCut= 1.00D-07
 Density matrix has no symmetry -- integrals replicated.
 Density matrix breaks symmetry, PCut= 1.00D-07
 Density matrix has no symmetry -- integrals replicated.
 Density matrix breaks symmetry, PCut= 1.00D-07
 Density matrix has no symmetry -- integrals replicated.
 SCF Done:  E(UHF) =  -5.15757746497     A.U. after   17 cycles
            NFock= 17  Conv=0.13D-08     -V/T= 1.9832
 <Sx>= 0.0000 <Sy>= 0.0000 <Sz>= 1.0000 <S**2>= 2.0003 S= 1.0001
 <L.S>= 0.000000000000E+00
 Annihilation of the first spin contaminant:
 S**2 before annihilation     2.0003,   after     2.0000
 Range of M.O.s used for correlation:     1    10
 NBasis=    10 NAE=     6 NBE=     4 NFC=     0 NFV=     0
 NROrb=     10 NOA=     6 NOB=     4 NVA=     4 NVB=     6
 Semi-Direct transformation.
 ModeAB=           2 MOrb=             6 LenV=     134111396
 LASXX=         1146 LTotXX=        1146 LenRXX=        1146
 LTotAB=        1971 MaxLAS=        3300 LenRXY=        3300
 NonZer=        3300 LenScr=      655360 LnRSAI=           0
 LnScr1=           0 LExtra=           0 Total=       659806
 MaxDsk=          -1 SrtSym=           F ITran=            3
 JobTyp=1 Pass  1:  I=   1 to   6.
 (rs|ai) integrals will be sorted in core.
 ModeAB=           2 MOrb=             4 LenV=     134111396
 LASXX=          831 LTotXX=         831 LenRXX=        2200
 LTotAB=         100 MaxLAS=        2200 LenRXY=         100
 NonZer=        2200 LenScr=      655360 LnRSAI=           0
 LnScr1=           0 LExtra=           0 Total=       657660
 MaxDsk=          -1 SrtSym=           F ITran=            3
 JobTyp=2 Pass  1:  I=   1 to   4.
 (rs|ai) integrals will be sorted in core.
 SymMOI:  orbitals are not symmetric.
 Spin components of T(2) and E(2):
     alpha-alpha T2 =       0.3804229974D-03 E2=     -0.7809402254D-03
     alpha-beta  T2 =       0.2302744526D-01 E2=     -0.4685494716D-01
     beta-beta   T2 =       0.3798277508D-03 E2=     -0.7827601701D-03
 ANorm=    0.1011823945D+01
 E2 =    -0.4841864756D-01 EUMP2 =    -0.52059961125307D+01
 (S**2,0)=  0.20003D+01           (S**2,1)=  0.20002D+01
 E(PUHF)=      -0.51576045030D+01        E(PMP2)=      -0.52060173382D+01
 Second order stability test of a single determinant UHF wave function:
 Stabil:  MDV=134217728
 ***********************************************************************
 Matrix         Lowest Root    Major Pairs
 ***********************************************************************
 Internal UHF     0.1740528    Stable
 RUHF --> CUHF (A)0.330474     Stable
 RUHF --> CUHF (B)0.3685579    Stable
 RUHF --> GHF    -0.0000618    5A=6B 6A=5B 4A=5B 3A=6B 5A=7B 2A=5B
 Not stable.
 ***********************************************************************

 **********************************************************************

            Population analysis using the SCF density.

 **********************************************************************

 Orbital symmetries:
 Alpha Orbitals:
       Occupied  (AG) (BU) (AG) (BU) (AG) (BU)
       Virtual   (BU) (AG) (BU) (AG)
 Beta  Orbitals:
       Occupied  (AG) (BU) (AG) (BU)
       Virtual   (AG) (BU) (BU) (AG) (BU) (AG)
 The electronic state is 3-BU.
 Alpha  occ. eigenvalues --   -0.75520  -0.70979  -0.62985  -0.52606  -0.42403
 Alpha  occ. eigenvalues --   -0.38914
 Alpha virt. eigenvalues --    0.22993   0.33004   0.48657   0.64650
  Beta  occ. eigenvalues --   -0.74572  -0.68355  -0.58386  -0.46559
  Beta virt. eigenvalues --    0.18335   0.18768   0.23577   0.33862   0.49606
  Beta virt. eigenvalues --    0.65191
          Condensed to atoms (all electrons):
               1          2          3          4          5          6
     1  H    1.178947  -0.086618  -0.078492   0.000952   0.002749   0.000022
     2  H   -0.086618   0.733409   0.533681  -0.101615  -0.079951   0.003688
     3  H   -0.078492   0.533681   0.699695  -0.082431  -0.095811   0.002310
     4  H    0.000952  -0.101615  -0.082431   0.781608   0.581497  -0.105903
     5  H    0.002749  -0.079951  -0.095811   0.581497   0.780132  -0.092033
     6  H    0.000022   0.003688   0.002310  -0.105903  -0.092033   0.780132
     7  H   -0.000019   0.003385   0.003200  -0.082856  -0.105903   0.581497
     8  H   -0.000001  -0.000052  -0.000004   0.003200   0.002310  -0.095811
     9  H    0.000000  -0.000076  -0.000052   0.003385   0.003688  -0.079951
    10  H   -0.000000   0.000000  -0.000001  -0.000019   0.000022   0.002749
               7          8          9         10
     1  H   -0.000019  -0.000001   0.000000  -0.000000
     2  H    0.003385  -0.000052  -0.000076   0.000000
     3  H    0.003200  -0.000004  -0.000052  -0.000001
     4  H   -0.082856   0.003200   0.003385  -0.000019
     5  H   -0.105903   0.002310   0.003688   0.000022
     6  H    0.581497  -0.095811  -0.079951   0.002749
     7  H    0.781608  -0.082431  -0.101615   0.000952
     8  H   -0.082431   0.699695   0.533681  -0.078492
     9  H   -0.101615   0.533681   0.733409  -0.086618
    10  H    0.000952  -0.078492  -0.086618   1.178947
          Atomic-Atomic Spin Densities.
               1          2          3          4          5          6
     1  H    1.172457  -0.104764  -0.095614   0.004208   0.005571  -0.000117
     2  H   -0.104764   0.088300   0.051265  -0.006194  -0.009068   0.000483
     3  H   -0.095614   0.051265   0.050055  -0.003873  -0.009877   0.000348
     4  H    0.004208  -0.006194  -0.003873  -0.008987   0.006435  -0.002307
     5  H    0.005571  -0.009068  -0.009877   0.006435   0.027913  -0.004063
     6  H   -0.000117   0.000483   0.000348  -0.002307  -0.004063   0.027913
     7  H   -0.000146   0.000359   0.000362   0.000235  -0.002307   0.006435
     8  H    0.000002  -0.000016  -0.000009   0.000362   0.000348  -0.009877
     9  H    0.000003  -0.000019  -0.000016   0.000359   0.000483  -0.009068
    10  H    0.000000   0.000003   0.000002  -0.000146  -0.000117   0.005571
               7          8          9         10
     1  H   -0.000146   0.000002   0.000003   0.000000
     2  H    0.000359  -0.000016  -0.000019   0.000003
     3  H    0.000362  -0.000009  -0.000016   0.000002
     4  H    0.000235   0.000362   0.000359  -0.000146
     5  H   -0.002307   0.000348   0.000483  -0.000117
     6  H    0.006435  -0.009877  -0.009068   0.005571
     7  H   -0.008987  -0.003873  -0.006194   0.004208
     8  H   -0.003873   0.050055   0.051265  -0.095614
     9  H   -0.006194   0.051265   0.088300  -0.104764
    10  H    0.004208  -0.095614  -0.104764   1.172457
 Mulliken charges and spin densities:
               1          2
     1  H   -0.017539   0.981600
     2  H   -0.005850   0.020349
     3  H    0.017906  -0.007358
     4  H    0.002183  -0.009907
     5  H    0.003301   0.015317
     6  H    0.003301   0.015317
     7  H    0.002183  -0.009907
     8  H    0.017906  -0.007358
     9  H   -0.005850   0.020349
    10  H   -0.017539   0.981600
 Sum of Mulliken charges =   0.00000   2.00000
 Mulliken charges and spin densities with hydrogens summed into heavy atoms:
               1          2
 Electronic spatial extent (au):  <R**2>=            234.1518
 Charge=              0.0000 electrons
 Dipole moment (field-independent basis, Debye):
    X=              0.0000    Y=              0.0000    Z=              0.0000  Tot=              0.0000
 Quadrupole moment (field-independent basis, Debye-Ang):
   XX=            -12.5204   YY=            -19.3629   ZZ=            -12.8015
   XY=             -3.4013   XZ=             -0.0000   YZ=             -0.0000
 Traceless Quadrupole moment (field-independent basis, Debye-Ang):
   XX=              2.3745   YY=             -4.4680   ZZ=              2.0934
   XY=             -3.4013   XZ=             -0.0000   YZ=             -0.0000
 Octapole moment (field-independent basis, Debye-Ang**2):
  XXX=              0.0000  YYY=              0.0000  ZZZ=              0.0000  XYY=              0.0000
  XXY=              0.0000  XXZ=              0.0000  XZZ=              0.0000  YZZ=              0.0000
  YYZ=              0.0000  XYZ=              0.0000
 Hexadecapole moment (field-independent basis, Debye-Ang**3):
 XXXX=            -95.0336 YYYY=           -504.6689 ZZZZ=            -15.3957 XXXY=            -86.1832
 XXXZ=             -0.0000 YYYX=           -135.4911 YYYZ=             -0.0000 ZZZX=             -0.0000
 ZZZY=             -0.0000 XXYY=            -98.4940 XXZZ=            -18.8660 YYZZ=            -66.2608
 XXYZ=             -0.0000 YYXZ=             -0.0000 ZZXY=            -27.6093
 N-N= 1.130381690800D+01 E-N=-3.225556070076D+01  KE= 5.245547346438D+00
 Symmetry AG   KE= 2.254994103791D+00
 Symmetry BG   KE= 0.000000000000D+00
 Symmetry AU   KE= 0.000000000000D+00
 Symmetry BU   KE= 2.990553242647D+00
                          Isotropic Fermi Contact Couplings
        Atom                 a.u.       MegaHertz       Gauss      10(-4) cm-1
     1  H(1)               0.34854     778.96182     277.95294     259.83369
     2  H(1)               0.02724      60.88564      21.72551      20.30926
     3  H(1)               0.01649      36.84542      13.14736      12.29031
     4  H(1)              -0.00223      -4.99006      -1.78058      -1.66451
     5  H(1)               0.00795      17.76570       6.33924       5.92600
     6  H(1)               0.00795      17.76570       6.33924       5.92600
     7  H(1)              -0.00223      -4.99006      -1.78058      -1.66451
     8  H(1)               0.01649      36.84542      13.14736      12.29031
     9  H(1)               0.02724      60.88564      21.72551      20.30926
    10  H(1)               0.34854     778.96182     277.95294     259.83369
 --------------------------------------------------------
       Center         ----  Spin Dipole Couplings  ----
                      3XX-RR        3YY-RR        3ZZ-RR
 --------------------------------------------------------
     1   Atom        0.005373     -0.013894      0.008520
     2   Atom       -0.008956      0.038602     -0.029646
     3   Atom        0.006862      0.026965     -0.033827
     4   Atom       -0.000228      0.011890     -0.011662
     5   Atom       -0.003453      0.009994     -0.006542
     6   Atom       -0.003453      0.009994     -0.006542
     7   Atom       -0.000228      0.011890     -0.011662
     8   Atom        0.006862      0.026965     -0.033827
     9   Atom       -0.008956      0.038602     -0.029646
    10   Atom        0.005373     -0.013894      0.008520
 --------------------------------------------------------
                        XY            XZ            YZ
 --------------------------------------------------------
     1   Atom       -0.005098     -0.000000     -0.000000
     2   Atom        0.001156     -0.000000      0.000000
     3   Atom        0.016502     -0.000000      0.000000
     4   Atom        0.006299     -0.000000      0.000000
     5   Atom        0.008451      0.000000      0.000000
     6   Atom        0.008451      0.000000      0.000000
     7   Atom        0.006299      0.000000      0.000000
     8   Atom        0.016502      0.000000      0.000000
     9   Atom        0.001156     -0.000000      0.000000
    10   Atom       -0.005098     -0.000000     -0.000000
 --------------------------------------------------------


 ---------------------------------------------------------------------------------
              Anisotropic Spin Dipole Couplings in Principal Axis System
 ---------------------------------------------------------------------------------

       Atom             a.u.   MegaHertz   Gauss  10(-4) cm-1        Axes

              Baa    -0.0152    -8.088    -2.886    -2.698  0.2410  0.9705  0.0000
     1 H(1)   Bbb     0.0066     3.542     1.264     1.182  0.9705 -0.2410  0.0000
              Bcc     0.0085     4.546     1.622     1.516  0.0000  0.0000  1.0000
 
              Baa    -0.0296   -15.818    -5.644    -5.276  0.0000  0.0000  1.0000
     2 H(1)   Bbb    -0.0090    -4.794    -1.710    -1.599  0.9997 -0.0243  0.0000
              Bcc     0.0386    20.611     7.355     6.875  0.0243  0.9997  0.0000
 
              Baa    -0.0338   -18.049    -6.440    -6.020  0.0000  0.0000  1.0000
     3 H(1)   Bbb    -0.0024    -1.285    -0.458    -0.429  0.8718 -0.4898  0.0000
              Bcc     0.0362    19.334     6.899     6.449  0.4898  0.8718  0.0000
 
              Baa    -0.0117    -6.222    -2.220    -2.076  0.0000  0.0000  1.0000
     4 H(1)   Bbb    -0.0029    -1.552    -0.554    -0.518  0.9201 -0.3916  0.0000
              Bcc     0.0146     7.774     2.774     2.593  0.3916  0.9201  0.0000
 
              Baa    -0.0075    -4.017    -1.433    -1.340  0.9007 -0.4344  0.0000
     5 H(1)   Bbb    -0.0065    -3.490    -1.245    -1.164  0.0000  0.0000  1.0000
              Bcc     0.0141     7.507     2.679     2.504  0.4344  0.9007  0.0000
 
              Baa    -0.0075    -4.017    -1.433    -1.340  0.9007 -0.4344  0.0000
     6 H(1)   Bbb    -0.0065    -3.490    -1.245    -1.164  0.0000  0.0000  1.0000
              Bcc     0.0141     7.507     2.679     2.504  0.4344  0.9007  0.0000
 
              Baa    -0.0117    -6.222    -2.220    -2.076  0.0000  0.0000  1.0000
     7 H(1)   Bbb    -0.0029    -1.552    -0.554    -0.518  0.9201 -0.3916  0.0000
              Bcc     0.0146     7.774     2.774     2.593  0.3916  0.9201  0.0000
 
              Baa    -0.0338   -18.049    -6.440    -6.020  0.0000  0.0000  1.0000
     8 H(1)   Bbb    -0.0024    -1.285    -0.458    -0.429  0.8718 -0.4898  0.0000
              Bcc     0.0362    19.334     6.899     6.449  0.4898  0.8718  0.0000
 
              Baa    -0.0296   -15.818    -5.644    -5.276  0.0000  0.0000  1.0000
     9 H(1)   Bbb    -0.0090    -4.794    -1.710    -1.599  0.9997 -0.0243  0.0000
              Bcc     0.0386    20.611     7.355     6.875  0.0243  0.9997  0.0000
 
              Baa    -0.0152    -8.088    -2.886    -2.698  0.2410  0.9705  0.0000
    10 H(1)   Bbb     0.0066     3.542     1.264     1.182  0.9705 -0.2410  0.0000
              Bcc     0.0085     4.546     1.622     1.516  0.0000  0.0000  1.0000
 

 ---------------------------------------------------------------------------------


 Test job not archived.
 1\1\GINC-SULU\Stability\UHF\Gen\H10(3)\LCJ1\23-Feb-2017\0\\#uhf/gen sc
 f(tight,novaracc,noincfock,fulldiag, ) stable(crhf) guess=mix geom=noc
 rowd test\\hf stability analysis of h10 triangular lattice, y= 1.53604
 56330340897 alpha= 76.250000000000000\\0,3\H\H,1,1.5813642453\H,1,1.58
 13642453,2,27.5\H,2,1.5813642453,1,152.5,3,0.,0\H,3,1.5813642453,1,180
 .,2,0.,0\H,4,1.5813642453,2,180.,1,0.,0\H,5,1.5813642453,3,180.,2,0.,0
 \H,6,1.5813642453,4,180.,1,0.,0\H,7,1.5813642453,5,180.,2,0.,0\H,8,1.5
 813642453,6,180.,1,0.,0\\Version=ES64L-G09RevE.01\State=3-BU\HF=-5.157
 5775\MP2=-5.2059961\PUHF=-5.1576045\PMP2-0=-5.2060173\S2=2.000337\S2-1
 =2.000192\S2A=2.\RMSD=1.335e-09\Dipole=0.,0.,0.\Quadrupole=1.7654176,1
 .5563995,-3.3218171,0.,-2.5287472,0.\PG=C02H [SGH(H10)]\\@


 NECESSARY EVIL: ONE WE LIKE TOO MUCH TO RELINQUISH.
 Job cpu time:       0 days  0 hours  0 minutes  1.3 seconds.
 File lengths (MBytes):  RWF=     94 Int=      0 D2E=      0 Chk=      2 Scr=      2
 Normal termination of Gaussian 09 at Thu Feb 23 13:12:36 2017.
