 Entering Gaussian System, Link 0=g09
 AtFile(1): H.gbs
            H     0
            S   10   1.00
               1000.000000000000            0.000068713567
                316.227766000000            0.000169141320
                100.000000000000            0.000823394812
                 31.622776600000            0.003425569236
                 10.000000000000            0.013951996000
                  3.162277660000            0.056909313560
                  1.000000000000            0.198286399900
                  0.316227766000            0.496922426700
                  0.100000000000            0.369846276400
                  0.031622776600            0.003752720039
            ****
 Initial command:
 /projects/guscus/apps/gau/g09-e1/g09/l1.exe "/users/lcj1/gaussian/h10/2rows_uhf/ag2bu3/triplet/mix/Gau-23406.inp" -scrdir="/users/lcj1/gaussian/h10/2rows_uhf/ag2bu3/triplet/mix/"
 Entering Link 1 = /projects/guscus/apps/gau/g09-e1/g09/l1.exe PID=     23407.
  
 Copyright (c) 1988,1990,1992,1993,1995,1998,2003,2009,2015,
            Gaussian, Inc.  All Rights Reserved.
  
 This is part of the Gaussian(R) 09 program.  It is based on
 the Gaussian(R) 03 system (copyright 2003, Gaussian, Inc.),
 the Gaussian(R) 98 system (copyright 1998, Gaussian, Inc.),
 the Gaussian(R) 94 system (copyright 1995, Gaussian, Inc.),
 the Gaussian 92(TM) system (copyright 1992, Gaussian, Inc.),
 the Gaussian 90(TM) system (copyright 1990, Gaussian, Inc.),
 the Gaussian 88(TM) system (copyright 1988, Gaussian, Inc.),
 the Gaussian 86(TM) system (copyright 1986, Carnegie Mellon
 University), and the Gaussian 82(TM) system (copyright 1983,
 Carnegie Mellon University). Gaussian is a federally registered
 trademark of Gaussian, Inc.
  
 This software contains proprietary and confidential information,
 including trade secrets, belonging to Gaussian, Inc.
  
 This software is provided under written license and may be
 used, copied, transmitted, or stored only in accord with that
 written license.
  
 The following legend is applicable only to US Government
 contracts under FAR:
  
                    RESTRICTED RIGHTS LEGEND
  
 Use, reproduction and disclosure by the US Government is
 subject to restrictions as set forth in subparagraphs (a)
 and (c) of the Commercial Computer Software - Restricted
 Rights clause in FAR 52.227-19.
  
 Gaussian, Inc.
 340 Quinnipiac St., Bldg. 40, Wallingford CT 06492
  
  
 ---------------------------------------------------------------
 Warning -- This program may not be used in any manner that
 competes with the business of Gaussian, Inc. or will provide
 assistance to any competitor of Gaussian, Inc.  The licensee
 of this program is prohibited from giving any competitor of
 Gaussian, Inc. access to this program.  By using this program,
 the user acknowledges that Gaussian, Inc. is engaged in the
 business of creating and licensing software in the field of
 computational chemistry and represents and warrants to the
 licensee that it is not a competitor of Gaussian, Inc. and that
 it will not use this program in any manner prohibited above.
 ---------------------------------------------------------------
  

 Cite this work as:
 Gaussian 09, Revision E.01,
 M. J. Frisch, G. W. Trucks, H. B. Schlegel, G. E. Scuseria, 
 M. A. Robb, J. R. Cheeseman, G. Scalmani, V. Barone, B. Mennucci, 
 G. A. Petersson, H. Nakatsuji, M. Caricato, X. Li, H. P. Hratchian, 
 A. F. Izmaylov, J. Bloino, G. Zheng, J. L. Sonnenberg, M. Hada, 
 M. Ehara, K. Toyota, R. Fukuda, J. Hasegawa, M. Ishida, T. Nakajima, 
 Y. Honda, O. Kitao, H. Nakai, T. Vreven, J. A. Montgomery, Jr., 
 J. E. Peralta, F. Ogliaro, M. Bearpark, J. J. Heyd, E. Brothers, 
 K. N. Kudin, V. N. Staroverov, T. Keith, R. Kobayashi, J. Normand, 
 K. Raghavachari, A. Rendell, J. C. Burant, S. S. Iyengar, J. Tomasi, 
 M. Cossi, N. Rega, J. M. Millam, M. Klene, J. E. Knox, J. B. Cross, 
 V. Bakken, C. Adamo, J. Jaramillo, R. Gomperts, R. E. Stratmann, 
 O. Yazyev, A. J. Austin, R. Cammi, C. Pomelli, J. W. Ochterski, 
 R. L. Martin, K. Morokuma, V. G. Zakrzewski, G. A. Voth, 
 P. Salvador, J. J. Dannenberg, S. Dapprich, A. D. Daniels, 
 O. Farkas, J. B. Foresman, J. V. Ortiz, J. Cioslowski, 
 and D. J. Fox, Gaussian, Inc., Wallingford CT, 2013.
 
 ******************************************
 Gaussian 09:  ES64L-G09RevE.01 30-Nov-2015
                23-Feb-2017 
 ******************************************
 %chk=h10.chk
 ----------------------------------------------------------------------
 #uhf/gen scf(tight,novaracc,noincfock,fulldiag, ) stable(crhf) guess=m
 ix geom=nocrowd test
 ----------------------------------------------------------------------
 1/38=1/1;
 2/12=1,17=6,18=5,40=1/2;
 3/5=7,16=1,25=1,30=1,116=2/1,2,3;
 4/13=-1/1;
 5/5=100002,16=1,32=2,38=1/2;
 8/6=1,10=90,11=11/1,4;
 9/8=4,13=1/2;
 6/7=2,8=2,9=2,10=2,28=1/1;
 99/5=1,9=1/99;
 ----------------------------------------------------------------------
 hf stability analysis of h10 triangular lattice, y= 1.6660489144325314
  alpha= 78.250000000000000
 ----------------------------------------------------------------------
 Symbolic Z-matrix:
 Charge =  0 Multiplicity = 3
 H
 H                    1     1.70171 
 H                    1     1.70171  2     23.5 
 H                    2     1.70171  1     156.5    3     0.       0
 H                    3     1.70171  1     180.     2     0.       0
 H                    4     1.70171  2     180.     1     0.       0
 H                    5     1.70171  3     180.     2     0.       0
 H                    6     1.70171  4     180.     1     0.       0
 H                    7     1.70171  5     180.     2     0.       0
 H                    8     1.70171  6     180.     1     0.       0
 
                          Input orientation:                          
 ---------------------------------------------------------------------
 Center     Atomic      Atomic             Coordinates (Angstroms)
 Number     Number       Type             X           Y           Z
 ---------------------------------------------------------------------
      1          1           0        0.000000    0.000000    0.000000
      2          1           0        0.000000    0.000000    1.701707
      3          1           0        0.678554    0.000000    1.560568
      4          1           0        0.678554    0.000000    3.262275
      5          1           0        1.357108    0.000000    3.121136
      6          1           0        1.357108    0.000000    4.822843
      7          1           0        2.035663    0.000000    4.681704
      8          1           0        2.035663    0.000000    6.383411
      9          1           0        2.714217    0.000000    6.242272
     10          1           0        2.714217    0.000000    7.943979
 ---------------------------------------------------------------------
                    Distance matrix (angstroms):
                    1          2          3          4          5
     1  H    0.000000
     2  H    1.701707   0.000000
     3  H    1.701707   0.693077   0.000000
     4  H    3.332098   1.701707   1.701707   0.000000
     5  H    3.403415   1.963803   1.701707   0.693077   0.000000
     6  H    5.010146   3.403415   3.332098   1.701707   1.701707
     7  H    5.105122   3.608920   3.403415   1.963803   1.701707
     8  H    6.700139   5.105122   5.010146   3.403415   3.332098
     9  H    6.806830   5.289962   5.105122   3.608920   3.403415
    10  H    8.394866   6.806830   6.700139   5.105122   5.010146
                    6          7          8          9         10
     6  H    0.000000
     7  H    0.693077   0.000000
     8  H    1.701707   1.701707   0.000000
     9  H    1.963803   1.701707   0.693077   0.000000
    10  H    3.403415   3.332098   1.701707   1.701707   0.000000
 Stoichiometry    H10(3)
 Framework group  C2H[SGH(H10)]
 Deg. of freedom     9
 Full point group                 C2H     NOp   4
 Largest Abelian subgroup         C2H     NOp   4
 Largest concise Abelian subgroup C2      NOp   2
                         Standard orientation:                         
 ---------------------------------------------------------------------
 Center     Atomic      Atomic             Coordinates (Angstroms)
 Number     Number       Type             X           Y           Z
 ---------------------------------------------------------------------
      1          1           0        1.357108    3.971989   -0.000000
      2          1           0        1.357108    2.270282   -0.000000
      3          1           0        0.678554    2.411422   -0.000000
      4          1           0        0.678554    0.709714   -0.000000
      5          1           0       -0.000000    0.850854    0.000000
      6          1           0       -0.000000   -0.850854   -0.000000
      7          1           0       -0.678554   -0.709714   -0.000000
      8          1           0       -0.678554   -2.411422   -0.000000
      9          1           0       -1.357108   -2.270282   -0.000000
     10          1           0       -1.357108   -3.971989   -0.000000
 ---------------------------------------------------------------------
 Rotational constants (GHZ):    482.2684749      7.8210730      7.6962607
 General basis read from cards:  (5D, 7F)
 There are     5 symmetry adapted cartesian basis functions of AG  symmetry.
 There are     0 symmetry adapted cartesian basis functions of BG  symmetry.
 There are     0 symmetry adapted cartesian basis functions of AU  symmetry.
 There are     5 symmetry adapted cartesian basis functions of BU  symmetry.
 There are     5 symmetry adapted basis functions of AG  symmetry.
 There are     0 symmetry adapted basis functions of BG  symmetry.
 There are     0 symmetry adapted basis functions of AU  symmetry.
 There are     5 symmetry adapted basis functions of BU  symmetry.
    10 basis functions,   100 primitive gaussians,    10 cartesian basis functions
     6 alpha electrons        4 beta electrons
       nuclear repulsion energy        10.9744751745 Hartrees.
 NAtoms=   10 NActive=   10 NUniq=    5 SFac= 4.00D+00 NAtFMM=   60 NAOKFM=F Big=F
 Integral buffers will be    131072 words long.
 Regular integral format.
 Two-electron integral symmetry is turned on.
 One-electron integrals computed using PRISM.
 NBasis=    10 RedAO= T EigKep=  1.59D-01  NBF=     5     0     0     5
 NBsUse=    10 1.00D-06 EigRej= -1.00D+00 NBFU=     5     0     0     5
 ExpMin= 3.16D-02 ExpMax= 1.00D+03 ExpMxC= 1.00D+01 IAcc=3 IRadAn=         5 AccDes= 0.00D+00
 Harris functional with IExCor=  205 and IRadAn=       5 diagonalized for initial guess.
 HarFok:  IExCor=  205 AccDes= 0.00D+00 IRadAn=         5 IDoV= 1 UseB2=F ITyADJ=14
 ICtDFT=  3500011 ScaDFX=  1.000000  1.000000  1.000000  1.000000
 FoFCou: FMM=F IPFlag=           0 FMFlag=      100000 FMFlg1=           0
         NFxFlg=           0 DoJE=T BraDBF=F KetDBF=T FulRan=T
         wScrn=  0.000000 ICntrl=     500 IOpCl=  0 I1Cent=   200000004 NGrid=           0
         NMat0=    1 NMatS0=      1 NMatT0=    0 NMatD0=    1 NMtDS0=    0 NMtDT0=    0
 Petite list used in FoFCou.
 Mixing orbitals, IMix= 1 IMixAn=  0 NRI=1 NE=    6 Coef=  7.07106781D-01  7.07106781D-01
 Mixing orbitals, IMix= 1 IMixAn=  0 NRI=1 NE=    4 Coef= -7.07106781D-01  7.07106781D-01
 Initial guess orbital symmetries:
 Alpha Orbitals:
       Occupied  (AG) (BU) (AG) (BU) (AG) (BU)
       Virtual   (BU) (AG) (BU) (AG)
 Beta  Orbitals:
       Occupied  (AG) (BU) (AG) (?A)
       Virtual   (?A) (BU) (BU) (AG) (BU) (AG)
 Initial guess <Sx>= 0.0000 <Sy>= 0.0000 <Sz>= 1.0000 <S**2>= 2.0000 S= 1.0000
 Keep R1 and R2 ints in memory in symmetry-blocked form, NReq=874063.
 Requested convergence on RMS density matrix=1.00D-08 within 128 cycles.
 Requested convergence on MAX density matrix=1.00D-06.
 Requested convergence on             energy=1.00D-06.
 No special actions if energy rises.
 An orbital has undefined symmetry, so N**3 symmetry is turned off.
 Density matrix breaks symmetry, PCut= 1.00D-04
 Density matrix has no symmetry -- integrals replicated.
 Density matrix breaks symmetry, PCut= 1.00D-07
 Density matrix has no symmetry -- integrals replicated.
 Density matrix breaks symmetry, PCut= 1.00D-07
 Density matrix has no symmetry -- integrals replicated.
 Density matrix breaks symmetry, PCut= 1.00D-07
 Density matrix has no symmetry -- integrals replicated.
 Density matrix breaks symmetry, PCut= 1.00D-07
 Density matrix has no symmetry -- integrals replicated.
 Density matrix breaks symmetry, PCut= 1.00D-07
 Density matrix has no symmetry -- integrals replicated.
 Density matrix breaks symmetry, PCut= 1.00D-07
 Density matrix has no symmetry -- integrals replicated.
 Density matrix breaks symmetry, PCut= 1.00D-07
 Density matrix has no symmetry -- integrals replicated.
 Density matrix breaks symmetry, PCut= 1.00D-07
 Density matrix has no symmetry -- integrals replicated.
 Density matrix breaks symmetry, PCut= 1.00D-07
 Density matrix has no symmetry -- integrals replicated.
 Density matrix breaks symmetry, PCut= 1.00D-07
 Density matrix has no symmetry -- integrals replicated.
 Density matrix breaks symmetry, PCut= 1.00D-07
 Density matrix has no symmetry -- integrals replicated.
 Density matrix breaks symmetry, PCut= 1.00D-07
 Density matrix has no symmetry -- integrals replicated.
 SCF Done:  E(UHF) =  -5.19745071524     A.U. after   14 cycles
            NFock= 14  Conv=0.25D-08     -V/T= 2.0224
 <Sx>= 0.0000 <Sy>= 0.0000 <Sz>= 1.0000 <S**2>= 2.0000 S= 1.0000
 <L.S>= 0.000000000000E+00
 Annihilation of the first spin contaminant:
 S**2 before annihilation     2.0000,   after     2.0000
 Range of M.O.s used for correlation:     1    10
 NBasis=    10 NAE=     6 NBE=     4 NFC=     0 NFV=     0
 NROrb=     10 NOA=     6 NOB=     4 NVA=     4 NVB=     6
 Semi-Direct transformation.
 ModeAB=           2 MOrb=             6 LenV=     134112124
 LASXX=         1146 LTotXX=        1146 LenRXX=        1146
 LTotAB=        1971 MaxLAS=        3300 LenRXY=        3300
 NonZer=        3300 LenScr=      655360 LnRSAI=           0
 LnScr1=           0 LExtra=           0 Total=       659806
 MaxDsk=          -1 SrtSym=           F ITran=            3
 JobTyp=1 Pass  1:  I=   1 to   6.
 (rs|ai) integrals will be sorted in core.
 ModeAB=           2 MOrb=             4 LenV=     134112124
 LASXX=          831 LTotXX=         831 LenRXX=        2200
 LTotAB=         100 MaxLAS=        2200 LenRXY=         100
 NonZer=        2200 LenScr=      655360 LnRSAI=           0
 LnScr1=           0 LExtra=           0 Total=       657660
 MaxDsk=          -1 SrtSym=           F ITran=            3
 JobTyp=2 Pass  1:  I=   1 to   4.
 (rs|ai) integrals will be sorted in core.
 SymMOI:  orbitals are not symmetric.
 Spin components of T(2) and E(2):
     alpha-alpha T2 =       0.2494389892D-03 E2=     -0.5442115561D-03
     alpha-beta  T2 =       0.1917404376D-01 E2=     -0.4153983917D-01
     beta-beta   T2 =       0.2475469101D-03 E2=     -0.5412175051D-03
 ANorm=    0.1009787616D+01
 E2 =    -0.4262526823D-01 EUMP2 =    -0.52400759834700D+01
 (S**2,0)=  0.20000D+01           (S**2,1)=  0.20000D+01
 E(PUHF)=      -0.51974530473D+01        E(PMP2)=      -0.52400776814D+01
 Second order stability test of a single determinant UHF wave function:
 Stabil:  MDV=134217728
 ***********************************************************************
 Matrix         Lowest Root    Major Pairs
 ***********************************************************************
 Internal UHF     0.2715209    Stable
 RUHF --> CUHF (A)0.4519204    Stable
 RUHF --> CUHF (B)0.4726389    Stable
 RUHF --> GHF    -0.0000094    5A=6B 6A=5B 4A=5B 3A=6B 2A=5B
 Not stable.
 ***********************************************************************

 **********************************************************************

            Population analysis using the SCF density.

 **********************************************************************

 Orbital symmetries:
 Alpha Orbitals:
       Occupied  (AG) (BU) (AG) (BU) (AG) (BU)
       Virtual   (BU) (AG) (BU) (AG)
 Beta  Orbitals:
       Occupied  (AG) (BU) (AG) (BU)
       Virtual   (AG) (BU) (BU) (AG) (BU) (AG)
 The electronic state is 3-BU.
 Alpha  occ. eigenvalues --   -0.74393  -0.70616  -0.63931  -0.55210  -0.45209
 Alpha  occ. eigenvalues --   -0.43685
 Alpha virt. eigenvalues --    0.28956   0.38037   0.52057   0.66173
  Beta  occ. eigenvalues --   -0.73721  -0.68700  -0.60836  -0.51975
  Beta virt. eigenvalues --    0.16680   0.16893   0.29225   0.38589   0.52630
  Beta virt. eigenvalues --    0.66466
          Condensed to atoms (all electrons):
               1          2          3          4          5          6
     1  H    1.126870  -0.064276  -0.061863   0.000976   0.001553  -0.000002
     2  H   -0.064276   0.672350   0.520339  -0.071159  -0.056905   0.001823
     3  H   -0.061863   0.520339   0.666701  -0.063839  -0.069511   0.001461
     4  H    0.000976  -0.071159  -0.063839   0.711218   0.551873  -0.073679
     5  H    0.001553  -0.056905  -0.069511   0.551873   0.709303  -0.067780
     6  H   -0.000002   0.001823   0.001461  -0.073679  -0.067780   0.709303
     7  H   -0.000013   0.001642   0.001724  -0.058876  -0.073679   0.551873
     8  H   -0.000000  -0.000020  -0.000010   0.001724   0.001461  -0.069511
     9  H    0.000000  -0.000024  -0.000020   0.001642   0.001823  -0.056905
    10  H   -0.000000   0.000000  -0.000000  -0.000013  -0.000002   0.001553
               7          8          9         10
     1  H   -0.000013  -0.000000   0.000000  -0.000000
     2  H    0.001642  -0.000020  -0.000024   0.000000
     3  H    0.001724  -0.000010  -0.000020  -0.000000
     4  H   -0.058876   0.001724   0.001642  -0.000013
     5  H   -0.073679   0.001461   0.001823  -0.000002
     6  H    0.551873  -0.069511  -0.056905   0.001553
     7  H    0.711218  -0.063839  -0.071159   0.000976
     8  H   -0.063839   0.666701   0.520339  -0.061863
     9  H   -0.071159   0.520339   0.672350  -0.064276
    10  H    0.000976  -0.061863  -0.064276   1.126870
          Atomic-Atomic Spin Densities.
               1          2          3          4          5          6
     1  H    1.125868  -0.068137  -0.065481   0.001924   0.002396  -0.000033
     2  H   -0.068137   0.046672   0.032368  -0.002895  -0.003676   0.000119
     3  H   -0.065481   0.032368   0.036649  -0.002438  -0.004401   0.000106
     4  H    0.001924  -0.002895  -0.002438  -0.001101   0.002782  -0.000660
     5  H    0.002396  -0.003676  -0.004401   0.002782   0.008712  -0.000956
     6  H   -0.000033   0.000119   0.000106  -0.000660  -0.000956   0.008712
     7  H   -0.000040   0.000108   0.000125  -0.000163  -0.000660   0.002782
     8  H    0.000000  -0.000003  -0.000003   0.000125   0.000106  -0.004401
     9  H    0.000001  -0.000003  -0.000003   0.000108   0.000119  -0.003676
    10  H   -0.000000   0.000001   0.000000  -0.000040  -0.000033   0.002396
               7          8          9         10
     1  H   -0.000040   0.000000   0.000001  -0.000000
     2  H    0.000108  -0.000003  -0.000003   0.000001
     3  H    0.000125  -0.000003  -0.000003   0.000000
     4  H   -0.000163   0.000125   0.000108  -0.000040
     5  H   -0.000660   0.000106   0.000119  -0.000033
     6  H    0.002782  -0.004401  -0.003676   0.002396
     7  H   -0.001101  -0.002438  -0.002895   0.001924
     8  H   -0.002438   0.036649   0.032368  -0.065481
     9  H   -0.002895   0.032368   0.046672  -0.068137
    10  H    0.001924  -0.065481  -0.068137   1.125868
 Mulliken charges and spin densities:
               1          2
     1  H   -0.003245   0.996499
     2  H   -0.003770   0.004551
     3  H    0.005019  -0.003078
     4  H    0.000133  -0.002359
     5  H    0.001864   0.004387
     6  H    0.001864   0.004387
     7  H    0.000133  -0.002359
     8  H    0.005019  -0.003078
     9  H   -0.003770   0.004551
    10  H   -0.003245   0.996499
 Sum of Mulliken charges =  -0.00000   2.00000
 Mulliken charges and spin densities with hydrogens summed into heavy atoms:
               1          2
 Electronic spatial extent (au):  <R**2>=            264.7069
 Charge=             -0.0000 electrons
 Dipole moment (field-independent basis, Debye):
    X=             -0.0000    Y=             -0.0000    Z=              0.0000  Tot=              0.0000
 Quadrupole moment (field-independent basis, Debye-Ang):
   XX=            -12.1854   YY=            -17.9501   ZZ=            -12.9484
   XY=             -2.2119   XZ=             -0.0000   YZ=              0.0000
 Traceless Quadrupole moment (field-independent basis, Debye-Ang):
   XX=              2.1759   YY=             -3.5888   ZZ=              1.4129
   XY=             -2.2119   XZ=             -0.0000   YZ=              0.0000
 Octapole moment (field-independent basis, Debye-Ang**2):
  XXX=              0.0000  YYY=              0.0000  ZZZ=              0.0000  XYY=             -0.0000
  XXY=              0.0000  XXZ=              0.0000  XZZ=              0.0000  YZZ=              0.0000
  YYZ=              0.0000  XYZ=              0.0000
 Hexadecapole moment (field-independent basis, Debye-Ang**3):
 XXXX=            -83.0857 YYYY=           -580.5854 ZZZZ=            -15.6918 XXXY=            -84.6730
 XXXZ=              0.0000 YYYX=           -127.6478 YYYZ=              0.0000 ZZZX=              0.0000
 ZZZY=              0.0000 XXYY=           -102.4394 XXZZ=            -17.0358 YYZZ=            -79.8412
 XXYZ=              0.0000 YYXZ=              0.0000 ZZXY=            -28.3634
 N-N= 1.097447517452D+01 E-N=-3.134469313437D+01  KE= 5.083629113863D+00
 Symmetry AG   KE= 2.221212304108D+00
 Symmetry BG   KE= 0.000000000000D+00
 Symmetry AU   KE= 0.000000000000D+00
 Symmetry BU   KE= 2.862416809755D+00
                          Isotropic Fermi Contact Couplings
        Atom                 a.u.       MegaHertz       Gauss      10(-4) cm-1
     1  H(1)               0.34075     761.55416     271.74145     254.02713
     2  H(1)               0.01557      34.79742      12.41659      11.60717
     3  H(1)               0.01273      28.45551      10.15363       9.49174
     4  H(1)              -0.00011      -0.23631      -0.08432      -0.07882
     5  H(1)               0.00259       5.79386       2.06739       1.93262
     6  H(1)               0.00259       5.79386       2.06739       1.93262
     7  H(1)              -0.00011      -0.23631      -0.08432      -0.07882
     8  H(1)               0.01273      28.45551      10.15363       9.49174
     9  H(1)               0.01557      34.79742      12.41659      11.60717
    10  H(1)               0.34075     761.55416     271.74145     254.02713
 --------------------------------------------------------
       Center         ----  Spin Dipole Couplings  ----
                      3XX-RR        3YY-RR        3ZZ-RR
 --------------------------------------------------------
     1   Atom        0.004475     -0.010528      0.006052
     2   Atom       -0.009952      0.036381     -0.026429
     3   Atom       -0.001295      0.028910     -0.027615
     4   Atom       -0.002720      0.010021     -0.007302
     5   Atom       -0.002827      0.008493     -0.005666
     6   Atom       -0.002827      0.008493     -0.005666
     7   Atom       -0.002720      0.010021     -0.007302
     8   Atom       -0.001295      0.028910     -0.027615
     9   Atom       -0.009952      0.036381     -0.026429
    10   Atom        0.004475     -0.010528      0.006052
 --------------------------------------------------------
                        XY            XZ            YZ
 --------------------------------------------------------
     1   Atom       -0.003167     -0.000000     -0.000000
     2   Atom        0.001100     -0.000000      0.000000
     3   Atom        0.015574     -0.000000      0.000000
     4   Atom        0.004252     -0.000000     -0.000000
     5   Atom        0.005850     -0.000000     -0.000000
     6   Atom        0.005850      0.000000     -0.000000
     7   Atom        0.004252      0.000000     -0.000000
     8   Atom        0.015574      0.000000      0.000000
     9   Atom        0.001100      0.000000     -0.000000
    10   Atom       -0.003167     -0.000000     -0.000000
 --------------------------------------------------------


 ---------------------------------------------------------------------------------
              Anisotropic Spin Dipole Couplings in Principal Axis System
 ---------------------------------------------------------------------------------

       Atom             a.u.   MegaHertz   Gauss  10(-4) cm-1        Axes

              Baa    -0.0112    -5.959    -2.126    -1.988  0.1984  0.9801  0.0000
     1 H(1)   Bbb     0.0051     2.730     0.974     0.911  0.9801 -0.1984  0.0000
              Bcc     0.0061     3.229     1.152     1.077  0.0000  0.0000  1.0000
 
              Baa    -0.0264   -14.101    -5.032    -4.704  0.0000  0.0000  1.0000
     2 H(1)   Bbb    -0.0100    -5.324    -1.900    -1.776  0.9997 -0.0237  0.0000
              Bcc     0.0364    19.425     6.931     6.480  0.0237  0.9997  0.0000
 
              Baa    -0.0276   -14.734    -5.257    -4.915  0.0000  0.0000  1.0000
     3 H(1)   Bbb    -0.0079    -4.208    -1.502    -1.404  0.9209 -0.3898  0.0000
              Bcc     0.0355    18.942     6.759     6.318  0.3898  0.9209  0.0000
 
              Baa    -0.0073    -3.896    -1.390    -1.299  0.0000  0.0000  1.0000
     4 H(1)   Bbb    -0.0040    -2.139    -0.763    -0.713  0.9570 -0.2900  0.0000
              Bcc     0.0113     6.034     2.153     2.013  0.2900  0.9570  0.0000
 
              Baa    -0.0057    -3.023    -1.079    -1.008  0.0000  0.0000  1.0000
     5 H(1)   Bbb    -0.0053    -2.832    -1.010    -0.945  0.9207 -0.3903  0.0000
              Bcc     0.0110     5.855     2.089     1.953  0.3903  0.9207  0.0000
 
              Baa    -0.0057    -3.023    -1.079    -1.008  0.0000  0.0000  1.0000
     6 H(1)   Bbb    -0.0053    -2.832    -1.010    -0.945  0.9207 -0.3903  0.0000
              Bcc     0.0110     5.855     2.089     1.953  0.3903  0.9207  0.0000
 
              Baa    -0.0073    -3.896    -1.390    -1.299  0.0000  0.0000  1.0000
     7 H(1)   Bbb    -0.0040    -2.139    -0.763    -0.713  0.9570 -0.2900  0.0000
              Bcc     0.0113     6.034     2.153     2.013  0.2900  0.9570  0.0000
 
              Baa    -0.0276   -14.734    -5.257    -4.915  0.0000  0.0000  1.0000
     8 H(1)   Bbb    -0.0079    -4.208    -1.502    -1.404  0.9209 -0.3898  0.0000
              Bcc     0.0355    18.942     6.759     6.318  0.3898  0.9209  0.0000
 
              Baa    -0.0264   -14.101    -5.032    -4.704  0.0000  0.0000  1.0000
     9 H(1)   Bbb    -0.0100    -5.324    -1.900    -1.776  0.9997 -0.0237  0.0000
              Bcc     0.0364    19.425     6.931     6.480  0.0237  0.9997  0.0000
 
              Baa    -0.0112    -5.959    -2.126    -1.988  0.1984  0.9801  0.0000
    10 H(1)   Bbb     0.0051     2.730     0.974     0.911  0.9801 -0.1984  0.0000
              Bcc     0.0061     3.229     1.152     1.077  0.0000  0.0000  1.0000
 

 ---------------------------------------------------------------------------------


 Test job not archived.
 1\1\GINC-SULU\Stability\UHF\Gen\H10(3)\LCJ1\23-Feb-2017\0\\#uhf/gen sc
 f(tight,novaracc,noincfock,fulldiag, ) stable(crhf) guess=mix geom=noc
 rowd test\\hf stability analysis of h10 triangular lattice, y= 1.66604
 89144325314 alpha= 78.250000000000000\\0,3\H\H,1,1.7017073753\H,1,1.70
 17073753,2,23.5\H,2,1.7017073753,1,156.5,3,0.,0\H,3,1.7017073753,1,180
 .,2,0.,0\H,4,1.7017073753,2,180.,1,0.,0\H,5,1.7017073753,3,180.,2,0.,0
 \H,6,1.7017073753,4,180.,1,0.,0\H,7,1.7017073753,5,180.,2,0.,0\H,8,1.7
 017073753,6,180.,1,0.,0\\Version=ES64L-G09RevE.01\State=3-BU\HF=-5.197
 4507\MP2=-5.240076\PUHF=-5.197453\PMP2-0=-5.2400777\S2=2.000022\S2-1=2
 .00001\S2A=2.\RMSD=2.528e-09\Dipole=0.,0.,0.\Quadrupole=1.6177204,1.05
 04602,-2.6681805,0.,-1.6444905,0.\PG=C02H [SGH(H10)]\\@


 TIME IS NATURE'S WAY OF MAKING SURE EVERYTHING
 DOESN'T HAPPEN AT ONCE.
                     - WOODY ALLEN
 Job cpu time:       0 days  0 hours  0 minutes  1.4 seconds.
 File lengths (MBytes):  RWF=     94 Int=      0 D2E=      0 Chk=      2 Scr=      2
 Normal termination of Gaussian 09 at Thu Feb 23 13:12:59 2017.
