 Entering Gaussian System, Link 0=gdv
 AtFile(1): H.gbs
            H     0
            S   10   1.00
               1000.000000000000            0.000068713567
                316.227766000000            0.000169141320
                100.000000000000            0.000823394812
                 31.622776600000            0.003425569236
                 10.000000000000            0.013951996000
                  3.162277660000            0.056909313560
                  1.000000000000            0.198286399900
                  0.316227766000            0.496922426700
                  0.100000000000            0.369846276400
                  0.031622776600            0.003752720039
            ****
 Initial command:
 /users/lcj1/GHF_hess/exe-dir/l1.exe "/users/lcj1/GHF_hess/h10_2rows/follow25/follow45/bck/Gau-6743.inp" -scrdir="/users/lcj1/GHF_hess/h10_2rows/follow25/follow45/bck/"
 Entering Link 1 = /users/lcj1/GHF_hess/exe-dir/l1.exe PID=      6744.
  
 Copyright (c) 1988,1990,1992,1993,1995,1998,2003,2009,2012,
            Gaussian, Inc.  All Rights Reserved.
  
 This is the private, development version of
 the Gaussian(R) DV system of programs. It is based on
 the Gaussian(R) 09 system (copyright 2009, Gaussian, Inc.),
 the Gaussian(R) 03 system (copyright 2003, Gaussian, Inc.),
 the Gaussian(R) 98 system (copyright 1998, Gaussian, Inc.),
 the Gaussian(R) 94 system (copyright 1995, Gaussian, Inc.),
 the Gaussian 92(TM) system (copyright 1992, Gaussian, Inc.),
 the Gaussian 90(TM) system (copyright 1990, Gaussian, Inc.),
 the Gaussian 88(TM) system (copyright 1988, Gaussian, Inc.),
 the Gaussian 86(TM) system (copyright 1986, Carnegie Mellon
 University), and the Gaussian 82(TM) system (copyright 1983,
 Carnegie Mellon University). Gaussian is a federally registered
 trademark of Gaussian, Inc.
  
 This software contains proprietary and confidential information,
 including trade secrets, belonging to Gaussian, Inc.
  
 This software is provided under written license and may be
 used, copied, transmitted, or stored only in accord with that
 written license.
  
 The following legend is applicable only to US Government
 contracts under FAR:
  
                    RESTRICTED RIGHTS LEGEND
  
 Use, reproduction and disclosure by the US Government is
 subject to restrictions as set forth in subparagraphs (a)
 and (c) of the Commercial Computer Software - Restricted
 Rights clause in FAR 52.227-19.
  
 Gaussian, Inc.
 340 Quinnipiac St., Bldg. 40, Wallingford CT 06492
  
  
 ---------------------------------------------------------------
 Warning -- This program may not be used in any manner that
 competes with the business of Gaussian, Inc. or will provide
 assistance to any competitor of Gaussian, Inc.  The licensee
 of this program is prohibited from giving any competitor of
 Gaussian, Inc. access to this program.  By using this program,
 the user acknowledges that Gaussian, Inc. is engaged in the
 business of creating and licensing software in the field of
 computational chemistry and represents and warrants to the
 licensee that it is not a competitor of Gaussian, Inc. and that
 it will not use this program in any manner prohibited above.
 ---------------------------------------------------------------
  

 Cite this work as:
 Gaussian Development Version, Revision H.21,
 M. J. Frisch, G. W. Trucks, H. B. Schlegel, G. E. Scuseria, 
 M. A. Robb, J. R. Cheeseman, G. Scalmani, V. Barone, B. Mennucci, 
 G. A. Petersson, H. Nakatsuji, M. Caricato, X. Li, H. P. Hratchian, 
 A. F. Izmaylov, J. Bloino, G. Zheng, J. L. Sonnenberg, W. Liang, 
 M. Hada, M. Ehara, K. Toyota, R. Fukuda, J. Hasegawa, M. Ishida, 
 T. Nakajima, Y. Honda, O. Kitao, H. Nakai, T. Vreven, 
 J. A. Montgomery, Jr., J. E. Peralta, F. Ogliaro, M. Bearpark, 
 J. J. Heyd, E. Brothers, K. N. Kudin, V. N. Staroverov, T. Keith, 
 R. Kobayashi, J. Normand, K. Raghavachari, A. Rendell, J. C. Burant, 
 S. S. Iyengar, J. Tomasi, M. Cossi, N. Rega, J. M. Millam, M. Klene, 
 J. E. Knox, J. B. Cross, V. Bakken, C. Adamo, J. Jaramillo, 
 R. Gomperts, R. E. Stratmann, O. Yazyev, A. J. Austin, R. Cammi, 
 C. Pomelli, J. W. Ochterski, R. L. Martin, K. Morokuma, 
 V. G. Zakrzewski, G. A. Voth, P. Salvador, J. J. Dannenberg, 
 S. Dapprich, P. V. Parandekar, N. J. Mayhall, A. D. Daniels, 
 O. Farkas, J. B. Foresman, J. V. Ortiz, J. Cioslowski, 
 and D. J. Fox, Gaussian, Inc., Wallingford CT, 2010.
 
 ******************************************
 Gaussian DV:  EM64L-GDVRevH.21 13-May-2012
                28-Feb-2017 
 ******************************************
 %chk=h10.chk
 ----------------------------------------------------------------------
 #ghf/gen scf(tight,novaracc,noincfock,fulldiag) stable guess=read geom
 =nocrowd use=l802 use=l902 test
 ----------------------------------------------------------------------
 ********************************************
   THE COMPLEX ERI TRANSFORMATION WITH L802  
        COMPLEX STABILITY WITH L902          
 ********************************************
 1/38=1/1;
 2/12=1,17=6,18=5,40=1/2;
 3/5=7,16=1,25=20,28=1,116=7/1,2,3,20;
 4/5=1/1;
 5/5=100001,16=1,32=2,38=6/2;
 8/6=1,10=90,11=11/1,2;
 9/8=4,13=1/1,2;
 6/7=2,8=2,9=2,10=2,28=1/1;
 99/5=1,9=1/99;
 ----------------------------------------------------------------------
 hf stability analysis of h10 triangular lattice, y= 0.6655948165158517
 3 alpha= 37.500000000000000
 ----------------------------------------------------------------------
 Symbolic Z-Matrix:
 Charge =  0 Multiplicity = 1
 H
 H                    1     1.09336 
 H                    1     1.09336  2     105. 
 H                    2     1.09336  1     75.      3     0.       0
 H                    3     1.09336  1     180.     2     0.       0
 H                    4     1.09336  2     180.     1     0.       0
 H                    5     1.09336  3     180.     2     0.       0
 H                    6     1.09336  4     180.     1     0.       0
 H                    7     1.09336  5     180.     2     0.       0
 H                    8     1.09336  6     180.     1     0.       0
 
                          Input orientation:                          
 ---------------------------------------------------------------------
 Center     Atomic      Atomic             Coordinates (Angstroms)
 Number     Number       Type             X           Y           Z
 ---------------------------------------------------------------------
      1          1           0        0.000000    0.000000    0.000000
      2          1           0        0.000000    0.000000    1.093359
      3          1           0        1.056104    0.000000   -0.282982
      4          1           0        1.056104    0.000000    0.810377
      5          1           0        2.112207    0.000000   -0.565964
      6          1           0        2.112207    0.000000    0.527395
      7          1           0        3.168311    0.000000   -0.848946
      8          1           0        3.168311    0.000000    0.244413
      9          1           0        4.224415    0.000000   -1.131929
     10          1           0        4.224415    0.000000   -0.038570
 ---------------------------------------------------------------------
                    Distance matrix (angstroms):
                    1          2          3          4          5
     1  H    0.000000
     2  H    1.093359   0.000000
     3  H    1.093359   1.734840   0.000000
     4  H    1.331190   1.093359   1.093359   0.000000
     5  H    2.186718   2.686033   1.093359   1.734840   0.000000
     6  H    2.177054   2.186718   1.331190   1.093359   1.093359
     7  H    3.280077   3.716281   2.186718   2.686033   1.093359
     8  H    3.177725   3.280077   2.177054   2.186718   1.331190
     9  H    4.373436   4.774682   3.280077   3.716281   2.186718
    10  H    4.224591   4.373436   3.177725   3.280077   2.177054
                    6          7          8          9         10
     6  H    0.000000
     7  H    1.734840   0.000000
     8  H    1.093359   1.093359   0.000000
     9  H    2.686033   1.093359   1.734840   0.000000
    10  H    2.186718   1.331190   1.093359   1.093359   0.000000
 Stoichiometry    H10
 Framework group  C2H[SGH(H10)]
 Deg. of freedom     9
 Full point group                 C2H     NOp   4
 Largest Abelian subgroup         C2H     NOp   4
 Largest concise Abelian subgroup C2      NOp   2
                         Standard orientation:                         
 ---------------------------------------------------------------------
 Center     Atomic      Atomic             Coordinates (Angstroms)
 Number     Number       Type             X           Y           Z
 ---------------------------------------------------------------------
      1          1           0        2.112207   -0.019285    0.000000
      2          1           0        2.112207   -1.112644    0.000000
      3          1           0        1.056104    0.263697    0.000000
      4          1           0        1.056104   -0.829662    0.000000
      5          1           0        0.000000    0.546680    0.000000
      6          1           0        0.000000   -0.546680    0.000000
      7          1           0       -1.056104    0.829662    0.000000
      8          1           0       -1.056104   -0.263697    0.000000
      9          1           0       -2.112207    1.112644    0.000000
     10          1           0       -2.112207    0.019285    0.000000
 ---------------------------------------------------------------------
 Rotational constants (GHZ):    181.5394897     20.7770684     18.6433500
 General basis read from cards:  (5D, 7F)
 There are     5 symmetry adapted cartesian basis functions of AG  symmetry.
 There are     0 symmetry adapted cartesian basis functions of BG  symmetry.
 There are     0 symmetry adapted cartesian basis functions of AU  symmetry.
 There are     5 symmetry adapted cartesian basis functions of BU  symmetry.
 There are     5 symmetry adapted basis functions of AG  symmetry.
 There are     0 symmetry adapted basis functions of BG  symmetry.
 There are     0 symmetry adapted basis functions of AU  symmetry.
 There are     5 symmetry adapted basis functions of BU  symmetry.
    10 basis functions,   100 primitive gaussians,    10 cartesian basis functions
     5 alpha electrons        5 beta electrons
       nuclear repulsion energy        13.6155761786 Hartrees.
 NAtoms=   10 NActive=   10 NUniq=    5 SFac= 4.00D+00 NAtFMM=   60 NAOKFM=F Big=F
 Integral buffers will be    131072 words long.
 Regular integral format.
 Two-electron integral symmetry is turned off.
 One-electron integrals computed using PRISM.
 NBasis=    10 RedAO= T EigKep=  1.38D-01  NBF=     5     0     0     5
 NBsUse=    10 1.00D-06 EigRej= -1.00D+00 NBFU=     5     0     0     5
 IOp(28)                       1
                        1                       0
                        2                       1
                        3                       1
                        4                      20
                        5                       0
                        6                       0
                        7                      10
                        8                       1
                        9                       4
                       10                       0
                       11              1073741824
                       12                      20
                       13                       2
                       14                  131070
                       15                       1
                       16                       1
                       17                  131073
                       18                       0
                       19                       0
                       20                       0
                       21                       2
                       22                  131070
                       23                       0
                       24                       0
                       25                       0
                       26                       0
                       27                   65535
                       28                       2
                       29                  131072
                       30                       0
 IHMeth                       1
 ib3: ISMode =                        0                       4
 Enter DskPsm, NBasis=  10 NBas6D=  10 NShell=  10 IDoSP=4.
 Out2e will use a cutoff of  1.00D-10
 FoFCou: FMM=F IPFlag=           0 FMFlag=           0 FMFlg1=           0
         NFxFlg=           0 DoJE=F BraDBF=F KetDBF=F FulRan=T
         wScrn=  0.000000 ICntrl=     600 IOpCl=  9 I1Cent=           0 NGrid=           0
         NMat0=    0 NMatS0=      0 NMatT0=    0 NMatD0=    0 NMtDS0=    0 NMtDT0=    0
 Symmetry not used in FoFCou.
 Entering PrmDigJobTyp =                      20
 LenSav and NKeep                       0                       0
 Entered Stor2E with KNTT1,2                       2                  131070
 Leave Stor2X
 Entering PrmDigJobTyp =                      20
 LenSav and NKeep                       0                       0
 Entered Stor2E with KNTT1,2                       2                  131056
 Leave Stor2X
 Entering PrmDigJobTyp =                      20
 LenSav and NKeep                       0                       0
 Entered Stor2E with KNTT1,2                       2                  131042
 Leave Stor2X
 Entering PrmDigJobTyp =                      20
 LenSav and NKeep                       0                       0
 Entered Stor2E with KNTT1,2                       2                  131028
 Leave Stor2X
 Entering PrmDigJobTyp =                      20
 LenSav and NKeep                       0                       0
 Entered Stor2E with KNTT1,2                       2                  131014
 Leave Stor2X
 Entering PrmDigJobTyp =                      20
 LenSav and NKeep                       0                       0
 Entered Stor2E with KNTT1,2                       2                  131000
 Leave Stor2X
 Entering PrmDigJobTyp =                      20
 LenSav and NKeep                       0                       0
 Entered Stor2E with KNTT1,2                       2                  130986
 Leave Stor2X
 Entering PrmDigJobTyp =                      20
 LenSav and NKeep                       0                       0
 Entered Stor2E with KNTT1,2                       2                  130972
 Leave Stor2X
 Entering PrmDigJobTyp =                      20
 LenSav and NKeep                       0                       0
 Entered Stor2E with KNTT1,2                       2                  130960
 Leave Stor2X
 Entering PrmDigJobTyp =                      20
 LenSav and NKeep                       0                       0
 Entered Stor2E with KNTT1,2                       2                  130946
 Leave Stor2X
 Entering PrmDigJobTyp =                      20
 LenSav and NKeep                       0                       0
 Entered Stor2E with KNTT1,2                       2                  130932
 Leave Stor2X
 Entering PrmDigJobTyp =                      20
 LenSav and NKeep                       0                       0
 Entered Stor2E with KNTT1,2                       2                  130918
 Leave Stor2X
 Entering PrmDigJobTyp =                      20
 LenSav and NKeep                       0                       0
 Entered Stor2E with KNTT1,2                       2                  130904
 Leave Stor2X
 Entering PrmDigJobTyp =                      20
 LenSav and NKeep                       0                       0
 Entered Stor2E with KNTT1,2                       2                  130890
 Leave Stor2X
 Entering PrmDigJobTyp =                      20
 LenSav and NKeep                       0                       0
 Entered Stor2E with KNTT1,2                       2                  130876
 Leave Stor2X
 Entering PrmDigJobTyp =                      20
 LenSav and NKeep                       0                       0
 Entered Stor2E with KNTT1,2                       2                  130862
 Leave Stor2X
 Entering PrmDigJobTyp =                      20
 LenSav and NKeep                       0                       0
 Entered Stor2E with KNTT1,2                       2                  130848
 Leave Stor2X
 Entering PrmDigJobTyp =                      20
 LenSav and NKeep                       0                       0
 Entered Stor2E with KNTT1,2                       2                  130834
 Leave Stor2X
 Entering PrmDigJobTyp =                      20
 LenSav and NKeep                       0                       0
 Entered Stor2E with KNTT1,2                       2                  130820
 Leave Stor2X
 Entering PrmDigJobTyp =                      20
 LenSav and NKeep                       0                       0
 Entered Stor2E with KNTT1,2                       2                  130806
 Leave Stor2X
 Entering PrmDigJobTyp =                      20
 LenSav and NKeep                       0                       0
 Entered Stor2E with KNTT1,2                       2                  130792
 Leave Stor2X
 Entering PrmDigJobTyp =                      20
 LenSav and NKeep                       0                       0
 Entered Stor2E with KNTT1,2                       2                  130778
 Leave Stor2X
 Entering PrmDigJobTyp =                      20
 LenSav and NKeep                       0                       0
 Entered Stor2E with KNTT1,2                       2                  130764
 Leave Stor2X
 Entering PrmDigJobTyp =                      20
 LenSav and NKeep                       0                       0
 Entered Stor2E with KNTT1,2                       2                  130750
 Leave Stor2X
 Entering PrmDigJobTyp =                      20
 LenSav and NKeep                       0                       0
 Entered Stor2E with KNTT1,2                       2                  130736
 Leave Stor2X
 Entering PrmDigJobTyp =                      20
 LenSav and NKeep                       0                       0
 Entered Stor2E with KNTT1,2                       2                  130722
 Leave Stor2X
 Entering PrmDigJobTyp =                      20
 LenSav and NKeep                       0                       0
 Entered Stor2E with KNTT1,2                       2                  130708
 Leave Stor2X
 Entering PrmDigJobTyp =                      20
 LenSav and NKeep                       0                       0
 Entered Stor2E with KNTT1,2                       2                  130700
 Leave Stor2X
 Entering PrmDigJobTyp =                      20
 LenSav and NKeep                       0                       0
 Entered Stor2E with KNTT1,2                       6                  130684
 Leave Stor2X
 Entering PrmDigJobTyp =                      20
 LenSav and NKeep                       0                       0
 Entered Stor2E with KNTT1,2                      16                  130674
 Leave Stor2X
 Entering PrmDigJobTyp =                      20
 LenSav and NKeep                       0                       0
 Entered Stor2E with KNTT1,2                      28                  130666
 Leave Stor2X
 Entering PrmDigJobTyp =                      20
 LenSav and NKeep                       0                       0
 Entered Stor2E with KNTT1,2                      42                  130660
 Leave Stor2X
 Entering PrmDigJobTyp =                      20
 LenSav and NKeep                       0                       0
 Entered Stor2E with KNTT1,2                      56                  130654
 Leave Stor2X
 Entering PrmDigJobTyp =                      20
 LenSav and NKeep                       0                       0
 Entered Stor2E with KNTT1,2                      70                  130648
 Leave Stor2X
 Entering PrmDigJobTyp =                      20
 LenSav and NKeep                       0                       0
 Entered Stor2E with KNTT1,2                      84                  130642
 Leave Stor2X
 Entering PrmDigJobTyp =                      20
 LenSav and NKeep                       0                       0
 Entered Stor2E with KNTT1,2                      98                  130636
 Leave Stor2X
 Entering PrmDigJobTyp =                      20
 LenSav and NKeep                       0                       0
 Entered Stor2E with KNTT1,2                     114                  130632
 Leave Stor2X
 Entering PrmDigJobTyp =                      20
 LenSav and NKeep                       0                       0
 Entered Stor2E with KNTT1,2                     114                  130630
 Leave Stor2X
 Entering PrmDigJobTyp =                      20
 LenSav and NKeep                       0                       0
 Entered Stor2E with KNTT1,2                     114                  130614
 Leave Stor2X
 Entering PrmDigJobTyp =                      20
 LenSav and NKeep                       0                       0
 Entered Stor2E with KNTT1,2                     114                  130598
 Leave Stor2X
 Entering PrmDigJobTyp =                      20
 LenSav and NKeep                       0                       0
 Entered Stor2E with KNTT1,2                     114                  130582
 Leave Stor2X
 Entering PrmDigJobTyp =                      20
 LenSav and NKeep                       0                       0
 Entered Stor2E with KNTT1,2                     114                  130566
 Leave Stor2X
 Entering PrmDigJobTyp =                      20
 LenSav and NKeep                       0                       0
 Entered Stor2E with KNTT1,2                     114                  130550
 Leave Stor2X
 Entering PrmDigJobTyp =                      20
 LenSav and NKeep                       0                       0
 Entered Stor2E with KNTT1,2                     126                  130540
 Leave Stor2X
 Entering PrmDigJobTyp =                      20
 LenSav and NKeep                       0                       0
 Entered Stor2E with KNTT1,2                     136                  130528
 Leave Stor2X
 Entering PrmDigJobTyp =                      20
 LenSav and NKeep                       0                       0
 Entered Stor2E with KNTT1,2                     154                  130524
 Leave Stor2X
 Entering PrmDigJobTyp =                      20
 LenSav and NKeep                       0                       0
 Entered Stor2E with KNTT1,2                     168                  130516
 Leave Stor2X
 Entering PrmDigJobTyp =                      20
 LenSav and NKeep                       0                       0
 Entered Stor2E with KNTT1,2                     174                  130506
 Leave Stor2X
 Entering PrmDigJobTyp =                      20
 LenSav and NKeep                       0                       0
 Entered Stor2E with KNTT1,2                     186                  130498
 Leave Stor2X
 Entering PrmDigJobTyp =                      20
 LenSav and NKeep                       0                       0
 Entered Stor2E with KNTT1,2                     186                  130482
 Leave Stor2X
 Entering PrmDigJobTyp =                      20
 LenSav and NKeep                       0                       0
 Entered Stor2E with KNTT1,2                     186                  130466
 Leave Stor2X
 Entering PrmDigJobTyp =                      20
 LenSav and NKeep                       0                       0
 Entered Stor2E with KNTT1,2                     186                  130450
 Leave Stor2X
 Entering PrmDigJobTyp =                      20
 LenSav and NKeep                       0                       0
 Entered Stor2E with KNTT1,2                     186                  130434
 Leave Stor2X
 Entering PrmDigJobTyp =                      20
 LenSav and NKeep                       0                       0
 Entered Stor2E with KNTT1,2                     186                  130418
 Leave Stor2X
 Entering PrmDigJobTyp =                      20
 LenSav and NKeep                       0                       0
 Entered Stor2E with KNTT1,2                     196                  130408
 Leave Stor2X
 Entering PrmDigJobTyp =                      20
 LenSav and NKeep                       0                       0
 Entered Stor2E with KNTT1,2                     206                  130398
 Leave Stor2X
 Entering PrmDigJobTyp =                      20
 LenSav and NKeep                       0                       0
 Entered Stor2E with KNTT1,2                     224                  130396
 Leave Stor2X
 Entering PrmDigJobTyp =                      20
 LenSav and NKeep                       0                       0
 Entered Stor2E with KNTT1,2                     232                  130384
 Leave Stor2X
 Entering PrmDigJobTyp =                      20
 LenSav and NKeep                       0                       0
 Entered Stor2E with KNTT1,2                     246                  130378
 Leave Stor2X
 Entering PrmDigJobTyp =                      20
 LenSav and NKeep                       0                       0
 Entered Stor2E with KNTT1,2                     246                  130374
 Leave Stor2X
 Entering PrmDigJobTyp =                      20
 LenSav and NKeep                       0                       0
 Entered Stor2E with KNTT1,2                     260                  130364
 Leave Stor2X
 Entering PrmDigJobTyp =                      20
 LenSav and NKeep                       0                       0
 Entered Stor2E with KNTT1,2                     266                  130362
 Leave Stor2X
 Entering PrmDigJobTyp =                      20
 LenSav and NKeep                       0                       0
 Entered Stor2E with KNTT1,2                     278                  130354
 Leave Stor2X
 Entering PrmDigJobTyp =                      20
 LenSav and NKeep                       0                       0
 Entered Stor2E with KNTT1,2                     278                  130336
 Leave Stor2X
 Entering PrmDigJobTyp =                      20
 LenSav and NKeep                       0                       0
 Entered Stor2E with KNTT1,2                     278                  130318
 Leave Stor2X
 Entering PrmDigJobTyp =                      20
 LenSav and NKeep                       0                       0
 Entered Stor2E with KNTT1,2                     278                  130300
 Leave Stor2X
 Entering PrmDigJobTyp =                      20
 LenSav and NKeep                       0                       0
 Entered Stor2E with KNTT1,2                     278                  130282
 Leave Stor2X
 Entering PrmDigJobTyp =                      20
 LenSav and NKeep                       0                       0
 Entered Stor2E with KNTT1,2                     278                  130264
 Leave Stor2X
 Entering PrmDigJobTyp =                      20
 LenSav and NKeep                       0                       0
 Entered Stor2E with KNTT1,2                     278                  130246
 Leave Stor2X
 Entering PrmDigJobTyp =                      20
 LenSav and NKeep                       0                       0
 Entered Stor2E with KNTT1,2                     278                  130228
 Leave Stor2X
 Entering PrmDigJobTyp =                      20
 LenSav and NKeep                       0                       0
 Entered Stor2E with KNTT1,2                     278                  130210
 Leave Stor2X
 Entering PrmDigJobTyp =                      20
 LenSav and NKeep                       0                       0
 Entered Stor2E with KNTT1,2                     278                  130192
 Leave Stor2X
 Entering PrmDigJobTyp =                      20
 LenSav and NKeep                       0                       0
 Entered Stor2E with KNTT1,2                     278                  130174
 Leave Stor2X
 Entering PrmDigJobTyp =                      20
 LenSav and NKeep                       0                       0
 Entered Stor2E with KNTT1,2                     290                  130164
 Leave Stor2X
 Entering PrmDigJobTyp =                      20
 LenSav and NKeep                       0                       0
 Entered Stor2E with KNTT1,2                     302                  130154
 Leave Stor2X
 Entering PrmDigJobTyp =                      20
 LenSav and NKeep                       0                       0
 Entered Stor2E with KNTT1,2                     316                  130146
 Leave Stor2X
 Entering PrmDigJobTyp =                      20
 LenSav and NKeep                       0                       0
 Entered Stor2E with KNTT1,2                     330                  130138
 Leave Stor2X
 Entering PrmDigJobTyp =                      20
 LenSav and NKeep                       0                       0
 Entered Stor2E with KNTT1,2                     344                  130130
 Leave Stor2X
 Entering PrmDigJobTyp =                      20
 LenSav and NKeep                       0                       0
 Entered Stor2E with KNTT1,2                     356                  130120
 Leave Stor2X
 Entering PrmDigJobTyp =                      20
 LenSav and NKeep                       0                       0
 Entered Stor2E with KNTT1,2                     366                  130108
 Leave Stor2X
 Entering PrmDigJobTyp =                      20
 LenSav and NKeep                       0                       0
 Entered Stor2E with KNTT1,2                     382                  130102
 Leave Stor2X
 Entering PrmDigJobTyp =                      20
 LenSav and NKeep                       0                       0
 Entered Stor2E with KNTT1,2                     394                  130092
 Leave Stor2X
 Entering PrmDigJobTyp =                      20
 LenSav and NKeep                       0                       0
 Entered Stor2E with KNTT1,2                     410                  130086
 Leave Stor2X
 Entering PrmDigJobTyp =                      20
 LenSav and NKeep                       0                       0
 Entered Stor2E with KNTT1,2                     416                  130078
 Leave Stor2X
 Entering PrmDigJobTyp =                      20
 LenSav and NKeep                       0                       0
 Entered Stor2E with KNTT1,2                     432                  130068
 Leave Stor2X
 Entering PrmDigJobTyp =                      20
 LenSav and NKeep                       0                       0
 Entered Stor2E with KNTT1,2                     446                  130056
 Leave Stor2X
 Entering PrmDigJobTyp =                      20
 LenSav and NKeep                       0                       0
 Entered Stor2E with KNTT1,2                     460                  130050
 Leave Stor2X
 Entering PrmDigJobTyp =                      20
 LenSav and NKeep                       0                       0
 Entered Stor2E with KNTT1,2                     474                  130040
 Leave Stor2X
 Entering PrmDigJobTyp =                      20
 LenSav and NKeep                       0                       0
 Entered Stor2E with KNTT1,2                     486                  130028
 Leave Stor2X
 Entering PrmDigJobTyp =                      20
 LenSav and NKeep                       0                       0
 Entered Stor2E with KNTT1,2                     500                  130018
 Leave Stor2X
 Entering PrmDigJobTyp =                      20
 LenSav and NKeep                       0                       0
 Entered Stor2E with KNTT1,2                     514                  130004
 Leave Stor2X
 Entering PrmDigJobTyp =                      20
 LenSav and NKeep                       0                       0
 Entered Stor2E with KNTT1,2                     532                  129994
 Leave Stor2X
 Entering PrmDigJobTyp =                      20
 LenSav and NKeep                       0                       0
 Entered Stor2E with KNTT1,2                     550                  129984
 Leave Stor2X
 Entering PrmDigJobTyp =                      20
 LenSav and NKeep                       0                       0
 Entered Stor2E with KNTT1,2                     552                  129980
 Leave Stor2X
 Entering PrmDigJobTyp =                      20
 LenSav and NKeep                       0                       0
 Entered Stor2E with KNTT1,2                     552                  129960
 Leave Stor2X
 Entering PrmDigJobTyp =                      20
 LenSav and NKeep                       0                       0
 Entered Stor2E with KNTT1,2                     552                  129940
 Leave Stor2X
 Entering PrmDigJobTyp =                      20
 LenSav and NKeep                       0                       0
 Entered Stor2E with KNTT1,2                     552                  129920
 Leave Stor2X
 Entering PrmDigJobTyp =                      20
 LenSav and NKeep                       0                       0
 Entered Stor2E with KNTT1,2                     568                  129910
 Leave Stor2X
 Entering PrmDigJobTyp =                      20
 LenSav and NKeep                       0                       0
 Entered Stor2E with KNTT1,2                     582                  129898
 Leave Stor2X
 Entering PrmDigJobTyp =                      20
 LenSav and NKeep                       0                       0
 Entered Stor2E with KNTT1,2                     598                  129888
 Leave Stor2X
 Entering PrmDigJobTyp =                      20
 LenSav and NKeep                       0                       0
 Entered Stor2E with KNTT1,2                     610                  129876
 Leave Stor2X
 Entering PrmDigJobTyp =                      20
 LenSav and NKeep                       0                       0
 Entered Stor2E with KNTT1,2                     626                  129868
 Leave Stor2X
 Entering PrmDigJobTyp =                      20
 LenSav and NKeep                       0                       0
 Entered Stor2E with KNTT1,2                     646                  129856
 Leave Stor2X
 Entering PrmDigJobTyp =                      20
 LenSav and NKeep                       0                       0
 Entered Stor2E with KNTT1,2                     660                  129848
 Leave Stor2X
 Entering PrmDigJobTyp =                      20
 LenSav and NKeep                       0                       0
 Entered Stor2E with KNTT1,2                     666                  129842
 Leave Stor2X
 Entering PrmDigJobTyp =                      20
 LenSav and NKeep                       0                       0
 Entered Stor2E with KNTT1,2                     666                  129820
 Leave Stor2X
 Entering PrmDigJobTyp =                      20
 LenSav and NKeep                       0                       0
 Entered Stor2E with KNTT1,2                     666                  129798
 Leave Stor2X
 Entering PrmDigJobTyp =                      20
 LenSav and NKeep                       0                       0
 Entered Stor2E with KNTT1,2                     666                  129776
 Leave Stor2X
 Entering PrmDigJobTyp =                      20
 LenSav and NKeep                       0                       0
 Entered Stor2E with KNTT1,2                     666                  129754
 Leave Stor2X
 Entering PrmDigJobTyp =                      20
 LenSav and NKeep                       0                       0
 Entered Stor2E with KNTT1,2                     666                  129732
 Leave Stor2X
 Entering PrmDigJobTyp =                      20
 LenSav and NKeep                       0                       0
 Entered Stor2E with KNTT1,2                     666                  129710
 Leave Stor2X
 Entering PrmDigJobTyp =                      20
 LenSav and NKeep                       0                       0
 Entered Stor2E with KNTT1,2                     666                  129688
 Leave Stor2X
 Entering PrmDigJobTyp =                      20
 LenSav and NKeep                       0                       0
 Entered Stor2E with KNTT1,2                     666                  129682
 Leave Stor2X
 Entering PrmDigJobTyp =                      20
 LenSav and NKeep                       0                       0
 Entered Stor2E with KNTT1,2                     682                  129670
 Leave Stor2X
 Entering PrmDigJobTyp =                      20
 LenSav and NKeep                       0                       0
 Entered Stor2E with KNTT1,2                     698                  129658
 Leave Stor2X
 Entering PrmDigJobTyp =                      20
 LenSav and NKeep                       0                       0
 Entered Stor2E with KNTT1,2                     716                  129648
 Leave Stor2X
 Entering PrmDigJobTyp =                      20
 LenSav and NKeep                       0                       0
 Entered Stor2E with KNTT1,2                     734                  129638
 Leave Stor2X
 Entering PrmDigJobTyp =                      20
 LenSav and NKeep                       0                       0
 Entered Stor2E with KNTT1,2                     752                  129628
 Leave Stor2X
 Entering PrmDigJobTyp =                      20
 LenSav and NKeep                       0                       0
 Entered Stor2E with KNTT1,2                     768                  129616
 Leave Stor2X
 Entering PrmDigJobTyp =                      20
 LenSav and NKeep                       0                       0
 Entered Stor2E with KNTT1,2                     786                  129606
 Leave Stor2X
 Entering PrmDigJobTyp =                      20
 LenSav and NKeep                       0                       0
 Entered Stor2E with KNTT1,2                     794                  129602
 Leave Stor2X
 Entering PrmDigJobTyp =                      20
 LenSav and NKeep                       0                       0
 Entered Stor2E with KNTT1,2                     814                  129588
 Leave Stor2X
 Entering PrmDigJobTyp =                      20
 LenSav and NKeep                       0                       0
 Entered Stor2E with KNTT1,2                     834                  129578
 Leave Stor2X
 Entering PrmDigJobTyp =                      20
 LenSav and NKeep                       0                       0
 Entered Stor2E with KNTT1,2                     852                  129566
 Leave Stor2X
 Entering PrmDigJobTyp =                      20
 LenSav and NKeep                       0                       0
 Entered Stor2E with KNTT1,2                     872                  129556
 Leave Stor2X
 Entering PrmDigJobTyp =                      20
 LenSav and NKeep                       0                       0
 Entered Stor2E with KNTT1,2                     874                  129554
 Leave Stor2X
 Entering PrmDigJobTyp =                      20
 LenSav and NKeep                       0                       0
 Entered Stor2E with KNTT1,2                     898                  129544
 Leave Stor2X
 Entering PrmDigJobTyp =                      20
 LenSav and NKeep                       0                       0
 Entered Stor2E with KNTT1,2                     918                  129530
 Leave Stor2X
 Entering PrmDigJobTyp =                      20
 LenSav and NKeep                       0                       0
 Entered Stor2E with KNTT1,2                     944                  129522
 Leave Stor2X
 Entering PrmDigJobTyp =                      20
 LenSav and NKeep                       0                       0
 Entered Stor2E with KNTT1,2                     968                  129512
 Leave Stor2X
 Entering PrmDigJobTyp =                      20
 LenSav and NKeep                       0                       0
 Entered Stor2E with KNTT1,2                     970                  129506
 Leave Stor2X
 Entering PrmDigJobTyp =                      20
 LenSav and NKeep                       0                       0
 Entered Stor2E with KNTT1,2                     994                  129492
 Leave Stor2X
 Entering PrmDigJobTyp =                      20
 LenSav and NKeep                       0                       0
 Entered Stor2E with KNTT1,2                    1002                  129490
 Leave Stor2X
 Entering PrmDigJobTyp =                      20
 LenSav and NKeep                       0                       0
 Entered Stor2E with KNTT1,2                    1022                  129468
 Leave Stor2X
 Entering PrmDigJobTyp =                      20
 LenSav and NKeep                       0                       0
 Entered Stor2E with KNTT1,2                    1042                  129458
 Leave Stor2X
 Entering PrmDigJobTyp =                      20
 LenSav and NKeep                       0                       0
 Entered Stor2E with KNTT1,2                    1042                  129434
 Leave Stor2X
 Entering PrmDigJobTyp =                      20
 LenSav and NKeep                       0                       0
 Entered Stor2E with KNTT1,2                    1042                  129410
 Leave Stor2X
 Entering PrmDigJobTyp =                      20
 LenSav and NKeep                       0                       0
 Entered Stor2E with KNTT1,2                    1042                  129398
 Leave Stor2X
 Entering PrmDigJobTyp =                      20
 LenSav and NKeep                       0                       0
 Entered Stor2E with KNTT1,2                    1062                  129386
 Leave Stor2X
 Entering PrmDigJobTyp =                      20
 LenSav and NKeep                       0                       0
 Entered Stor2E with KNTT1,2                    1086                  129378
 Leave Stor2X
 Entering PrmDigJobTyp =                      20
 LenSav and NKeep                       0                       0
 Entered Stor2E with KNTT1,2                    1096                  129374
 Leave Stor2X
 Entering PrmDigJobTyp =                      20
 LenSav and NKeep                       0                       0
 Entered Stor2E with KNTT1,2                    1116                  129370
 Leave Stor2X
 Entering PrmDigJobTyp =                      20
 LenSav and NKeep                       0                       0
 Entered Stor2E with KNTT1,2                    1132                  129362
 Leave Stor2X
 Entering PrmDigJobTyp =                      20
 LenSav and NKeep                       0                       0
 Entered Stor2E with KNTT1,2                    1156                  129348
 Leave Stor2X
 Entering PrmDigJobTyp =                      20
 LenSav and NKeep                       0                       0
 Entered Stor2E with KNTT1,2                    1166                  129342
 Leave Stor2X
 Entering PrmDigJobTyp =                      20
 LenSav and NKeep                       0                       0
 Entered Stor2E with KNTT1,2                    1180                  129338
 Leave Stor2X
 Entering PrmDigJobTyp =                      20
 LenSav and NKeep                       0                       0
 Entered Stor2E with KNTT1,2                    1204                  129316
 Leave Stor2X
 Entering PrmDigJobTyp =                      20
 LenSav and NKeep                       0                       0
 Entered Stor2E with KNTT1,2                    1204                  129314
 Leave Stor2X
 Entering PrmDigJobTyp =                      20
 LenSav and NKeep                       0                       0
 Entered Stor2E with KNTT1,2                    1206                  129304
 Leave Stor2X
 Entering PrmDigJobTyp =                      20
 LenSav and NKeep                       0                       0
 Entered Stor2E with KNTT1,2                    1206                  129284
 Leave Stor2X
 Entering PrmDigJobTyp =                      20
 LenSav and NKeep                       0                       0
 Entered Stor2E with KNTT1,2                    1224                  129276
 Leave Stor2X
 Entering PrmDigJobTyp =                      20
 LenSav and NKeep                       0                       0
 Entered Stor2E with KNTT1,2                    1228                  129272
 Leave Stor2X
 Entering PrmDigJobTyp =                      20
 LenSav and NKeep                       0                       0
 Entered Stor2E with KNTT1,2                    1236                  129272
 Leave Stor2X
 Entering PrmDigJobTyp =                      20
 LenSav and NKeep                       0                       0
 Entered Stor2E with KNTT1,2                    1250                  129268
 Leave Stor2X
 Entering PrmDigJobTyp =                      20
 LenSav and NKeep                       0                       0
 Entered Stor2E with KNTT1,2                    1252                  129264
 Leave Stor2X
 Entering PrmDigJobTyp =                      20
 LenSav and NKeep                       0                       0
 Entered Stor2E with KNTT1,2                    1260                  129256
 Leave Stor2X
 Entering PrmDigJobTyp =                      20
 LenSav and NKeep                       0                       0
 Entered Stor2E with KNTT1,2                    1262                  129252
 Leave Stor2X
 In PrSumR
 Called IWRITE
         1540 integrals produced for a total of         1540.
 Initial guess from the checkpoint file:  "h10.chk"
 B after Tr=     0.000000    0.000000    0.000000
         Rot=    0.865604    0.000000    0.000000    0.500729 Ang=  60.10 deg.
 Initial guess <Sx>= 0.0000 <Sy>= 0.0000 <Sz>= 0.0000 <S**2>= 0.0000 S= 0.0000
 Two-electron integrals will be kept in memory, NGetB=      152788.
 Requested convergence on RMS density matrix=1.00D-08 within 128 cycles.
 Requested convergence on MAX density matrix=1.00D-06.
 Requested convergence on             energy=1.00D-06.
 No special actions if energy rises.
 Density File Not Found. Continue as usual
 SCF Done:  E(GHF) =  -4.85343680400     A.U. after   12 cycles
            NFock= 12  Conv=0.29D-08     -V/T= 1.9345
 <Sx>= 0.0000 <Sy>= 0.0000 <Sz>= 0.0000 <S**2>= 0.0000 S= 0.0000
 <L.S>= 0.000000000000E+00
 Range of M.O.s used for correlation:     1    10
 NBasis=    10 NAE=    10 NBE=     0 NFC=     0 NFV=     0
 NROrb=     20 NOA=    10 NOB=     0 NVA=    10 NVB=     0
 jaja DoHack is true or false? T
 jaja in hckghf.F, NBasis=                      10
 jaja in hckGHF/FixOG, LC =                      800
 jaja in hckGHF/FixOG, IRwC=                      548
 bfr conversion (real):
                 1             2             3             4             5 
      1a  0.789882D-01  0.429234D-01  0.224022D+00  0.306432D-02  0.132398D+00
      1b -0.429234D-01  0.789882D-01 -0.306432D-02  0.224022D+00  0.347140D+00
      2a  0.512643D-01  0.278578D-01  0.180143D+00  0.246411D-02  0.139869D+00
      2b -0.278578D-01  0.512643D-01 -0.246411D-02  0.180143D+00  0.366728D+00
      3a  0.186717D+00  0.101465D+00  0.243319D+00  0.332829D-02 -0.380831D-01
      3b -0.101465D+00  0.186717D+00 -0.332829D-02  0.243319D+00 -0.998515D-01
      4a  0.174498D+00  0.948251D-01  0.284153D+00  0.388684D-02  0.200773D-01
      4b -0.948251D-01  0.174498D+00 -0.388684D-02  0.284153D+00  0.526415D-01
      5a  0.188818D+00  0.102607D+00 -0.499450D-01 -0.683182D-03 -0.120317D+00
      5b -0.102607D+00  0.188818D+00  0.683182D-03 -0.499450D-01 -0.315462D+00
      6a  0.188818D+00  0.102607D+00  0.499450D-01  0.683182D-03 -0.120317D+00
      6b -0.102607D+00  0.188818D+00 -0.683182D-03  0.499450D-01 -0.315462D+00
      7a  0.174498D+00  0.948251D-01 -0.284153D+00 -0.388684D-02  0.200773D-01
      7b -0.948251D-01  0.174498D+00  0.388684D-02 -0.284153D+00  0.526415D-01
      8a  0.186717D+00  0.101465D+00 -0.243319D+00 -0.332829D-02 -0.380831D-01
      8b -0.101465D+00  0.186717D+00  0.332829D-02 -0.243319D+00 -0.998515D-01
      9a  0.512643D-01  0.278578D-01 -0.180143D+00 -0.246411D-02  0.139869D+00
      9b -0.278578D-01  0.512643D-01  0.246411D-02 -0.180143D+00  0.366728D+00
     10a  0.789882D-01  0.429234D-01 -0.224022D+00 -0.306432D-02  0.132398D+00
     10b -0.429234D-01  0.789882D-01  0.306432D-02 -0.224022D+00  0.347140D+00
                 6             7             8             9            10 
      1a  0.347140D+00  0.181949D+00  0.226282D-02  0.358115D+00  0.319496D-01
      1b -0.132398D+00 -0.226282D-02  0.181949D+00 -0.319496D-01  0.358115D+00
      2a  0.366728D+00 -0.123998D+00 -0.154211D-02  0.543121D+00  0.484550D-01
      2b -0.139869D+00  0.154211D-02 -0.123998D+00 -0.484550D-01  0.543121D+00
      3a -0.998515D-01  0.443486D+00  0.551546D-02 -0.520733D+00 -0.464576D-01
      3b  0.380831D-01 -0.551546D-02  0.443486D+00  0.464576D-01 -0.520733D+00
      4a  0.526415D-01 -0.362165D+00 -0.450411D-02 -0.408873D+00 -0.364780D-01
      4b -0.200773D-01  0.450411D-02 -0.362165D+00  0.364780D-01 -0.408873D+00
      5a -0.315462D+00  0.507446D+00  0.631090D-02  0.196932D+00  0.175694D-01
      5b  0.120317D+00 -0.631090D-02  0.507446D+00 -0.175694D-01  0.196932D+00
      6a -0.315462D+00 -0.507446D+00 -0.631090D-02 -0.196932D+00 -0.175694D-01
      6b  0.120317D+00  0.631090D-02 -0.507446D+00  0.175694D-01 -0.196932D+00
      7a  0.526415D-01  0.362165D+00  0.450411D-02  0.408873D+00  0.364780D-01
      7b -0.200773D-01 -0.450411D-02  0.362165D+00 -0.364780D-01  0.408873D+00
      8a -0.998515D-01 -0.443486D+00 -0.551546D-02  0.520733D+00  0.464576D-01
      8b  0.380831D-01  0.551546D-02 -0.443486D+00 -0.464576D-01  0.520733D+00
      9a  0.366728D+00  0.123998D+00  0.154211D-02 -0.543121D+00 -0.484550D-01
      9b -0.139869D+00 -0.154211D-02  0.123998D+00  0.484550D-01 -0.543121D+00
     10a  0.347140D+00 -0.181949D+00 -0.226282D-02 -0.358115D+00 -0.319496D-01
     10b -0.132398D+00  0.226282D-02 -0.181949D+00  0.319496D-01 -0.358115D+00
                11            12            13            14            15 
      1a  0.512137D+00 -0.450443D-02  0.812267D+00 -0.302365D-01 -0.211166D-01
      1b  0.450443D-02  0.512137D+00  0.302365D-01  0.812267D+00  0.292958D-03
      2a -0.365878D+00  0.321803D-02 -0.571853D+00  0.212871D-01 -0.631728D+00
      2b -0.321803D-02 -0.365878D+00 -0.212871D-01 -0.571853D+00  0.876419D-02
      3a  0.471717D+00 -0.414892D-02 -0.211220D+00  0.786263D-02  0.247521D+00
      3b  0.414892D-02  0.471717D+00 -0.786263D-02 -0.211220D+00 -0.343395D-02
      4a -0.495917D+00  0.436177D-02 -0.199968D+00  0.744378D-02  0.955201D+00
      4b -0.436177D-02 -0.495917D+00 -0.744378D-02 -0.199968D+00 -0.132518D-01
      5a -0.127594D+00  0.112223D-02 -0.593325D+00  0.220864D-01 -0.708813D+00
      5b -0.112223D-02 -0.127594D+00 -0.220864D-01 -0.593325D+00  0.983361D-02
      6a -0.127594D+00  0.112223D-02  0.593325D+00 -0.220864D-01 -0.708813D+00
      6b -0.112223D-02 -0.127594D+00  0.220864D-01  0.593325D+00  0.983361D-02
      7a -0.495917D+00  0.436177D-02  0.199968D+00 -0.744378D-02  0.955201D+00
      7b -0.436177D-02 -0.495917D+00  0.744378D-02  0.199968D+00 -0.132518D-01
      8a  0.471717D+00 -0.414892D-02  0.211220D+00 -0.786263D-02  0.247521D+00
      8b  0.414892D-02  0.471717D+00  0.786263D-02  0.211220D+00 -0.343395D-02
      9a -0.365878D+00  0.321803D-02  0.571853D+00 -0.212871D-01 -0.631728D+00
      9b -0.321803D-02 -0.365878D+00  0.212871D-01  0.571853D+00  0.876419D-02
     10a  0.512137D+00 -0.450443D-02 -0.812267D+00  0.302365D-01 -0.211166D-01
     10b  0.450443D-02  0.512137D+00 -0.302365D-01 -0.812267D+00  0.292958D-03
                16            17            18            19            20 
      1a -0.292958D-03  0.182801D+00 -0.791610D+00  0.604731D-02  0.407818D+00
      1b -0.211166D-01 -0.791610D+00 -0.182801D+00  0.407818D+00 -0.604731D-02
      2a -0.876419D-02 -0.122385D+00  0.529984D+00 -0.853053D-02 -0.575281D+00
      2b -0.631728D+00  0.529984D+00  0.122385D+00 -0.575281D+00  0.853053D-02
      3a  0.343395D-02 -0.243252D+00  0.105339D+01 -0.128866D-01 -0.869042D+00
      3b  0.247521D+00  0.105339D+01  0.243252D+00 -0.869042D+00  0.128866D-01
      4a  0.132518D-01  0.662989D-01 -0.287104D+00  0.153441D-01  0.103477D+01
      4b  0.955201D+00 -0.287104D+00 -0.662989D-01  0.103477D+01 -0.153441D-01
      5a -0.983361D-02  0.117981D+00 -0.510909D+00  0.168761D-01  0.113809D+01
      5b -0.708813D+00 -0.510909D+00 -0.117981D+00  0.113809D+01 -0.168761D-01
      6a -0.983361D-02  0.117981D+00 -0.510909D+00 -0.168761D-01 -0.113809D+01
      6b -0.708813D+00 -0.510909D+00 -0.117981D+00 -0.113809D+01  0.168761D-01
      7a  0.132518D-01  0.662989D-01 -0.287104D+00 -0.153441D-01 -0.103477D+01
      7b  0.955201D+00 -0.287104D+00 -0.662989D-01 -0.103477D+01  0.153441D-01
      8a  0.343395D-02 -0.243252D+00  0.105339D+01  0.128866D-01  0.869042D+00
      8b  0.247521D+00  0.105339D+01  0.243252D+00  0.869042D+00 -0.128866D-01
      9a -0.876419D-02 -0.122385D+00  0.529984D+00  0.853053D-02  0.575281D+00
      9b -0.631728D+00  0.529984D+00  0.122385D+00  0.575281D+00 -0.853053D-02
     10a -0.292958D-03  0.182801D+00 -0.791610D+00 -0.604731D-02 -0.407818D+00
     10b -0.211166D-01 -0.791610D+00 -0.182801D+00 -0.407818D+00  0.604731D-02
 bfr conversion (imaginary):
                 1             2             3             4             5 
      1a  0.000000D+00  0.000000D+00  0.000000D+00  0.000000D+00  0.000000D+00
      1b  0.000000D+00  0.000000D+00  0.000000D+00  0.000000D+00  0.000000D+00
      2a  0.000000D+00  0.000000D+00  0.000000D+00  0.000000D+00  0.000000D+00
      2b  0.000000D+00  0.000000D+00  0.000000D+00  0.000000D+00  0.000000D+00
      3a  0.000000D+00  0.000000D+00  0.000000D+00  0.000000D+00  0.000000D+00
      3b  0.000000D+00  0.000000D+00  0.000000D+00  0.000000D+00  0.000000D+00
      4a  0.000000D+00  0.000000D+00  0.000000D+00  0.000000D+00  0.000000D+00
      4b  0.000000D+00  0.000000D+00  0.000000D+00  0.000000D+00  0.000000D+00
      5a  0.000000D+00  0.000000D+00  0.000000D+00  0.000000D+00  0.000000D+00
      5b  0.000000D+00  0.000000D+00  0.000000D+00  0.000000D+00  0.000000D+00
      6a  0.000000D+00  0.000000D+00  0.000000D+00  0.000000D+00  0.000000D+00
      6b  0.000000D+00  0.000000D+00  0.000000D+00  0.000000D+00  0.000000D+00
      7a  0.000000D+00  0.000000D+00  0.000000D+00  0.000000D+00  0.000000D+00
      7b  0.000000D+00  0.000000D+00  0.000000D+00  0.000000D+00  0.000000D+00
      8a  0.000000D+00  0.000000D+00  0.000000D+00  0.000000D+00  0.000000D+00
      8b  0.000000D+00  0.000000D+00  0.000000D+00  0.000000D+00  0.000000D+00
      9a  0.000000D+00  0.000000D+00  0.000000D+00  0.000000D+00  0.000000D+00
      9b  0.000000D+00  0.000000D+00  0.000000D+00  0.000000D+00  0.000000D+00
     10a  0.000000D+00  0.000000D+00  0.000000D+00  0.000000D+00  0.000000D+00
     10b  0.000000D+00  0.000000D+00  0.000000D+00  0.000000D+00  0.000000D+00
                 6             7             8             9            10 
      1a  0.000000D+00  0.000000D+00  0.000000D+00  0.000000D+00  0.000000D+00
      1b  0.000000D+00  0.000000D+00  0.000000D+00  0.000000D+00  0.000000D+00
      2a  0.000000D+00  0.000000D+00  0.000000D+00  0.000000D+00  0.000000D+00
      2b  0.000000D+00  0.000000D+00  0.000000D+00  0.000000D+00  0.000000D+00
      3a  0.000000D+00  0.000000D+00  0.000000D+00  0.000000D+00  0.000000D+00
      3b  0.000000D+00  0.000000D+00  0.000000D+00  0.000000D+00  0.000000D+00
      4a  0.000000D+00  0.000000D+00  0.000000D+00  0.000000D+00  0.000000D+00
      4b  0.000000D+00  0.000000D+00  0.000000D+00  0.000000D+00  0.000000D+00
      5a  0.000000D+00  0.000000D+00  0.000000D+00  0.000000D+00  0.000000D+00
      5b  0.000000D+00  0.000000D+00  0.000000D+00  0.000000D+00  0.000000D+00
      6a  0.000000D+00  0.000000D+00  0.000000D+00  0.000000D+00  0.000000D+00
      6b  0.000000D+00  0.000000D+00  0.000000D+00  0.000000D+00  0.000000D+00
      7a  0.000000D+00  0.000000D+00  0.000000D+00  0.000000D+00  0.000000D+00
      7b  0.000000D+00  0.000000D+00  0.000000D+00  0.000000D+00  0.000000D+00
      8a  0.000000D+00  0.000000D+00  0.000000D+00  0.000000D+00  0.000000D+00
      8b  0.000000D+00  0.000000D+00  0.000000D+00  0.000000D+00  0.000000D+00
      9a  0.000000D+00  0.000000D+00  0.000000D+00  0.000000D+00  0.000000D+00
      9b  0.000000D+00  0.000000D+00  0.000000D+00  0.000000D+00  0.000000D+00
     10a  0.000000D+00  0.000000D+00  0.000000D+00  0.000000D+00  0.000000D+00
     10b  0.000000D+00  0.000000D+00  0.000000D+00  0.000000D+00  0.000000D+00
                11            12            13            14            15 
      1a  0.000000D+00  0.000000D+00  0.000000D+00  0.000000D+00  0.000000D+00
      1b  0.000000D+00  0.000000D+00  0.000000D+00  0.000000D+00  0.000000D+00
      2a  0.000000D+00  0.000000D+00  0.000000D+00  0.000000D+00  0.000000D+00
      2b  0.000000D+00  0.000000D+00  0.000000D+00  0.000000D+00  0.000000D+00
      3a  0.000000D+00  0.000000D+00  0.000000D+00  0.000000D+00  0.000000D+00
      3b  0.000000D+00  0.000000D+00  0.000000D+00  0.000000D+00  0.000000D+00
      4a  0.000000D+00  0.000000D+00  0.000000D+00  0.000000D+00  0.000000D+00
      4b  0.000000D+00  0.000000D+00  0.000000D+00  0.000000D+00  0.000000D+00
      5a  0.000000D+00  0.000000D+00  0.000000D+00  0.000000D+00  0.000000D+00
      5b  0.000000D+00  0.000000D+00  0.000000D+00  0.000000D+00  0.000000D+00
      6a  0.000000D+00  0.000000D+00  0.000000D+00  0.000000D+00  0.000000D+00
      6b  0.000000D+00  0.000000D+00  0.000000D+00  0.000000D+00  0.000000D+00
      7a  0.000000D+00  0.000000D+00  0.000000D+00  0.000000D+00  0.000000D+00
      7b  0.000000D+00  0.000000D+00  0.000000D+00  0.000000D+00  0.000000D+00
      8a  0.000000D+00  0.000000D+00  0.000000D+00  0.000000D+00  0.000000D+00
      8b  0.000000D+00  0.000000D+00  0.000000D+00  0.000000D+00  0.000000D+00
      9a  0.000000D+00  0.000000D+00  0.000000D+00  0.000000D+00  0.000000D+00
      9b  0.000000D+00  0.000000D+00  0.000000D+00  0.000000D+00  0.000000D+00
     10a  0.000000D+00  0.000000D+00  0.000000D+00  0.000000D+00  0.000000D+00
     10b  0.000000D+00  0.000000D+00  0.000000D+00  0.000000D+00  0.000000D+00
                16            17            18            19            20 
      1a  0.000000D+00  0.000000D+00  0.000000D+00  0.000000D+00  0.000000D+00
      1b  0.000000D+00  0.000000D+00  0.000000D+00  0.000000D+00  0.000000D+00
      2a  0.000000D+00  0.000000D+00  0.000000D+00  0.000000D+00  0.000000D+00
      2b  0.000000D+00  0.000000D+00  0.000000D+00  0.000000D+00  0.000000D+00
      3a  0.000000D+00  0.000000D+00  0.000000D+00  0.000000D+00  0.000000D+00
      3b  0.000000D+00  0.000000D+00  0.000000D+00  0.000000D+00  0.000000D+00
      4a  0.000000D+00  0.000000D+00  0.000000D+00  0.000000D+00  0.000000D+00
      4b  0.000000D+00  0.000000D+00  0.000000D+00  0.000000D+00  0.000000D+00
      5a  0.000000D+00  0.000000D+00  0.000000D+00  0.000000D+00  0.000000D+00
      5b  0.000000D+00  0.000000D+00  0.000000D+00  0.000000D+00  0.000000D+00
      6a  0.000000D+00  0.000000D+00  0.000000D+00  0.000000D+00  0.000000D+00
      6b  0.000000D+00  0.000000D+00  0.000000D+00  0.000000D+00  0.000000D+00
      7a  0.000000D+00  0.000000D+00  0.000000D+00  0.000000D+00  0.000000D+00
      7b  0.000000D+00  0.000000D+00  0.000000D+00  0.000000D+00  0.000000D+00
      8a  0.000000D+00  0.000000D+00  0.000000D+00  0.000000D+00  0.000000D+00
      8b  0.000000D+00  0.000000D+00  0.000000D+00  0.000000D+00  0.000000D+00
      9a  0.000000D+00  0.000000D+00  0.000000D+00  0.000000D+00  0.000000D+00
      9b  0.000000D+00  0.000000D+00  0.000000D+00  0.000000D+00  0.000000D+00
     10a  0.000000D+00  0.000000D+00  0.000000D+00  0.000000D+00  0.000000D+00
     10b  0.000000D+00  0.000000D+00  0.000000D+00  0.000000D+00  0.000000D+00
 afr conversion (alpha, real):
                 1             2             3             4             5 
      1   0.789882D-01  0.429234D-01  0.224022D+00  0.306432D-02  0.132398D+00
      2   0.512643D-01  0.278578D-01  0.180143D+00  0.246411D-02  0.139869D+00
      3   0.186717D+00  0.101465D+00  0.243319D+00  0.332829D-02 -0.380831D-01
      4   0.174498D+00  0.948251D-01  0.284153D+00  0.388684D-02  0.200773D-01
      5   0.188818D+00  0.102607D+00 -0.499450D-01 -0.683182D-03 -0.120317D+00
      6   0.188818D+00  0.102607D+00  0.499450D-01  0.683182D-03 -0.120317D+00
      7   0.174498D+00  0.948251D-01 -0.284153D+00 -0.388684D-02  0.200773D-01
      8   0.186717D+00  0.101465D+00 -0.243319D+00 -0.332829D-02 -0.380831D-01
      9   0.512643D-01  0.278578D-01 -0.180143D+00 -0.246411D-02  0.139869D+00
     10   0.789882D-01  0.429234D-01 -0.224022D+00 -0.306432D-02  0.132398D+00
                 6             7             8             9            10 
      1   0.347140D+00  0.181949D+00  0.226282D-02  0.358115D+00  0.319496D-01
      2   0.366728D+00 -0.123998D+00 -0.154211D-02  0.543121D+00  0.484550D-01
      3  -0.998515D-01  0.443486D+00  0.551546D-02 -0.520733D+00 -0.464576D-01
      4   0.526415D-01 -0.362165D+00 -0.450411D-02 -0.408873D+00 -0.364780D-01
      5  -0.315462D+00  0.507446D+00  0.631090D-02  0.196932D+00  0.175694D-01
      6  -0.315462D+00 -0.507446D+00 -0.631090D-02 -0.196932D+00 -0.175694D-01
      7   0.526415D-01  0.362165D+00  0.450411D-02  0.408873D+00  0.364780D-01
      8  -0.998515D-01 -0.443486D+00 -0.551546D-02  0.520733D+00  0.464576D-01
      9   0.366728D+00  0.123998D+00  0.154211D-02 -0.543121D+00 -0.484550D-01
     10   0.347140D+00 -0.181949D+00 -0.226282D-02 -0.358115D+00 -0.319496D-01
                11            12            13            14            15 
      1   0.512137D+00 -0.450443D-02  0.812267D+00 -0.302365D-01 -0.211166D-01
      2  -0.365878D+00  0.321803D-02 -0.571853D+00  0.212871D-01 -0.631728D+00
      3   0.471717D+00 -0.414892D-02 -0.211220D+00  0.786263D-02  0.247521D+00
      4  -0.495917D+00  0.436177D-02 -0.199968D+00  0.744378D-02  0.955201D+00
      5  -0.127594D+00  0.112223D-02 -0.593325D+00  0.220864D-01 -0.708813D+00
      6  -0.127594D+00  0.112223D-02  0.593325D+00 -0.220864D-01 -0.708813D+00
      7  -0.495917D+00  0.436177D-02  0.199968D+00 -0.744378D-02  0.955201D+00
      8   0.471717D+00 -0.414892D-02  0.211220D+00 -0.786263D-02  0.247521D+00
      9  -0.365878D+00  0.321803D-02  0.571853D+00 -0.212871D-01 -0.631728D+00
     10   0.512137D+00 -0.450443D-02 -0.812267D+00  0.302365D-01 -0.211166D-01
                16            17            18            19            20 
      1  -0.292958D-03  0.182801D+00 -0.791610D+00  0.604731D-02  0.407818D+00
      2  -0.876419D-02 -0.122385D+00  0.529984D+00 -0.853053D-02 -0.575281D+00
      3   0.343395D-02 -0.243252D+00  0.105339D+01 -0.128866D-01 -0.869042D+00
      4   0.132518D-01  0.662989D-01 -0.287104D+00  0.153441D-01  0.103477D+01
      5  -0.983361D-02  0.117981D+00 -0.510909D+00  0.168761D-01  0.113809D+01
      6  -0.983361D-02  0.117981D+00 -0.510909D+00 -0.168761D-01 -0.113809D+01
      7   0.132518D-01  0.662989D-01 -0.287104D+00 -0.153441D-01 -0.103477D+01
      8   0.343395D-02 -0.243252D+00  0.105339D+01  0.128866D-01  0.869042D+00
      9  -0.876419D-02 -0.122385D+00  0.529984D+00  0.853053D-02  0.575281D+00
     10  -0.292958D-03  0.182801D+00 -0.791610D+00 -0.604731D-02 -0.407818D+00
 afr conversion (alpha, imaginary):
                 1             2             3             4             5 
      1   0.000000D+00  0.000000D+00  0.000000D+00  0.000000D+00  0.000000D+00
      2   0.000000D+00  0.000000D+00  0.000000D+00  0.000000D+00  0.000000D+00
      3   0.000000D+00  0.000000D+00  0.000000D+00  0.000000D+00  0.000000D+00
      4   0.000000D+00  0.000000D+00  0.000000D+00  0.000000D+00  0.000000D+00
      5   0.000000D+00  0.000000D+00  0.000000D+00  0.000000D+00  0.000000D+00
      6   0.000000D+00  0.000000D+00  0.000000D+00  0.000000D+00  0.000000D+00
      7   0.000000D+00  0.000000D+00  0.000000D+00  0.000000D+00  0.000000D+00
      8   0.000000D+00  0.000000D+00  0.000000D+00  0.000000D+00  0.000000D+00
      9   0.000000D+00  0.000000D+00  0.000000D+00  0.000000D+00  0.000000D+00
     10   0.000000D+00  0.000000D+00  0.000000D+00  0.000000D+00  0.000000D+00
                 6             7             8             9            10 
      1   0.000000D+00  0.000000D+00  0.000000D+00  0.000000D+00  0.000000D+00
      2   0.000000D+00  0.000000D+00  0.000000D+00  0.000000D+00  0.000000D+00
      3   0.000000D+00  0.000000D+00  0.000000D+00  0.000000D+00  0.000000D+00
      4   0.000000D+00  0.000000D+00  0.000000D+00  0.000000D+00  0.000000D+00
      5   0.000000D+00  0.000000D+00  0.000000D+00  0.000000D+00  0.000000D+00
      6   0.000000D+00  0.000000D+00  0.000000D+00  0.000000D+00  0.000000D+00
      7   0.000000D+00  0.000000D+00  0.000000D+00  0.000000D+00  0.000000D+00
      8   0.000000D+00  0.000000D+00  0.000000D+00  0.000000D+00  0.000000D+00
      9   0.000000D+00  0.000000D+00  0.000000D+00  0.000000D+00  0.000000D+00
     10   0.000000D+00  0.000000D+00  0.000000D+00  0.000000D+00  0.000000D+00
                11            12            13            14            15 
      1   0.000000D+00  0.000000D+00  0.000000D+00  0.000000D+00  0.000000D+00
      2   0.000000D+00  0.000000D+00  0.000000D+00  0.000000D+00  0.000000D+00
      3   0.000000D+00  0.000000D+00  0.000000D+00  0.000000D+00  0.000000D+00
      4   0.000000D+00  0.000000D+00  0.000000D+00  0.000000D+00  0.000000D+00
      5   0.000000D+00  0.000000D+00  0.000000D+00  0.000000D+00  0.000000D+00
      6   0.000000D+00  0.000000D+00  0.000000D+00  0.000000D+00  0.000000D+00
      7   0.000000D+00  0.000000D+00  0.000000D+00  0.000000D+00  0.000000D+00
      8   0.000000D+00  0.000000D+00  0.000000D+00  0.000000D+00  0.000000D+00
      9   0.000000D+00  0.000000D+00  0.000000D+00  0.000000D+00  0.000000D+00
     10   0.000000D+00  0.000000D+00  0.000000D+00  0.000000D+00  0.000000D+00
                16            17            18            19            20 
      1   0.000000D+00  0.000000D+00  0.000000D+00  0.000000D+00  0.000000D+00
      2   0.000000D+00  0.000000D+00  0.000000D+00  0.000000D+00  0.000000D+00
      3   0.000000D+00  0.000000D+00  0.000000D+00  0.000000D+00  0.000000D+00
      4   0.000000D+00  0.000000D+00  0.000000D+00  0.000000D+00  0.000000D+00
      5   0.000000D+00  0.000000D+00  0.000000D+00  0.000000D+00  0.000000D+00
      6   0.000000D+00  0.000000D+00  0.000000D+00  0.000000D+00  0.000000D+00
      7   0.000000D+00  0.000000D+00  0.000000D+00  0.000000D+00  0.000000D+00
      8   0.000000D+00  0.000000D+00  0.000000D+00  0.000000D+00  0.000000D+00
      9   0.000000D+00  0.000000D+00  0.000000D+00  0.000000D+00  0.000000D+00
     10   0.000000D+00  0.000000D+00  0.000000D+00  0.000000D+00  0.000000D+00
 afr conversion (beta, real):
                 1             2             3             4             5 
      1  -0.429234D-01  0.789882D-01 -0.306432D-02  0.224022D+00  0.347140D+00
      2  -0.278578D-01  0.512643D-01 -0.246411D-02  0.180143D+00  0.366728D+00
      3  -0.101465D+00  0.186717D+00 -0.332829D-02  0.243319D+00 -0.998515D-01
      4  -0.948251D-01  0.174498D+00 -0.388684D-02  0.284153D+00  0.526415D-01
      5  -0.102607D+00  0.188818D+00  0.683182D-03 -0.499450D-01 -0.315462D+00
      6  -0.102607D+00  0.188818D+00 -0.683182D-03  0.499450D-01 -0.315462D+00
      7  -0.948251D-01  0.174498D+00  0.388684D-02 -0.284153D+00  0.526415D-01
      8  -0.101465D+00  0.186717D+00  0.332829D-02 -0.243319D+00 -0.998515D-01
      9  -0.278578D-01  0.512643D-01  0.246411D-02 -0.180143D+00  0.366728D+00
     10  -0.429234D-01  0.789882D-01  0.306432D-02 -0.224022D+00  0.347140D+00
                 6             7             8             9            10 
      1  -0.132398D+00 -0.226282D-02  0.181949D+00 -0.319496D-01  0.358115D+00
      2  -0.139869D+00  0.154211D-02 -0.123998D+00 -0.484550D-01  0.543121D+00
      3   0.380831D-01 -0.551546D-02  0.443486D+00  0.464576D-01 -0.520733D+00
      4  -0.200773D-01  0.450411D-02 -0.362165D+00  0.364780D-01 -0.408873D+00
      5   0.120317D+00 -0.631090D-02  0.507446D+00 -0.175694D-01  0.196932D+00
      6   0.120317D+00  0.631090D-02 -0.507446D+00  0.175694D-01 -0.196932D+00
      7  -0.200773D-01 -0.450411D-02  0.362165D+00 -0.364780D-01  0.408873D+00
      8   0.380831D-01  0.551546D-02 -0.443486D+00 -0.464576D-01  0.520733D+00
      9  -0.139869D+00 -0.154211D-02  0.123998D+00  0.484550D-01 -0.543121D+00
     10  -0.132398D+00  0.226282D-02 -0.181949D+00  0.319496D-01 -0.358115D+00
                11            12            13            14            15 
      1   0.450443D-02  0.512137D+00  0.302365D-01  0.812267D+00  0.292958D-03
      2  -0.321803D-02 -0.365878D+00 -0.212871D-01 -0.571853D+00  0.876419D-02
      3   0.414892D-02  0.471717D+00 -0.786263D-02 -0.211220D+00 -0.343395D-02
      4  -0.436177D-02 -0.495917D+00 -0.744378D-02 -0.199968D+00 -0.132518D-01
      5  -0.112223D-02 -0.127594D+00 -0.220864D-01 -0.593325D+00  0.983361D-02
      6  -0.112223D-02 -0.127594D+00  0.220864D-01  0.593325D+00  0.983361D-02
      7  -0.436177D-02 -0.495917D+00  0.744378D-02  0.199968D+00 -0.132518D-01
      8   0.414892D-02  0.471717D+00  0.786263D-02  0.211220D+00 -0.343395D-02
      9  -0.321803D-02 -0.365878D+00  0.212871D-01  0.571853D+00  0.876419D-02
     10   0.450443D-02  0.512137D+00 -0.302365D-01 -0.812267D+00  0.292958D-03
                16            17            18            19            20 
      1  -0.211166D-01 -0.791610D+00 -0.182801D+00  0.407818D+00 -0.604731D-02
      2  -0.631728D+00  0.529984D+00  0.122385D+00 -0.575281D+00  0.853053D-02
      3   0.247521D+00  0.105339D+01  0.243252D+00 -0.869042D+00  0.128866D-01
      4   0.955201D+00 -0.287104D+00 -0.662989D-01  0.103477D+01 -0.153441D-01
      5  -0.708813D+00 -0.510909D+00 -0.117981D+00  0.113809D+01 -0.168761D-01
      6  -0.708813D+00 -0.510909D+00 -0.117981D+00 -0.113809D+01  0.168761D-01
      7   0.955201D+00 -0.287104D+00 -0.662989D-01 -0.103477D+01  0.153441D-01
      8   0.247521D+00  0.105339D+01  0.243252D+00  0.869042D+00 -0.128866D-01
      9  -0.631728D+00  0.529984D+00  0.122385D+00  0.575281D+00 -0.853053D-02
     10  -0.211166D-01 -0.791610D+00 -0.182801D+00 -0.407818D+00  0.604731D-02
 afr conversion (beta, imaginary):
                 1             2             3             4             5 
      1   0.000000D+00  0.000000D+00  0.000000D+00  0.000000D+00  0.000000D+00
      2   0.000000D+00  0.000000D+00  0.000000D+00  0.000000D+00  0.000000D+00
      3   0.000000D+00  0.000000D+00  0.000000D+00  0.000000D+00  0.000000D+00
      4   0.000000D+00  0.000000D+00  0.000000D+00  0.000000D+00  0.000000D+00
      5   0.000000D+00  0.000000D+00  0.000000D+00  0.000000D+00  0.000000D+00
      6   0.000000D+00  0.000000D+00  0.000000D+00  0.000000D+00  0.000000D+00
      7   0.000000D+00  0.000000D+00  0.000000D+00  0.000000D+00  0.000000D+00
      8   0.000000D+00  0.000000D+00  0.000000D+00  0.000000D+00  0.000000D+00
      9   0.000000D+00  0.000000D+00  0.000000D+00  0.000000D+00  0.000000D+00
     10   0.000000D+00  0.000000D+00  0.000000D+00  0.000000D+00  0.000000D+00
                 6             7             8             9            10 
      1   0.000000D+00  0.000000D+00  0.000000D+00  0.000000D+00  0.000000D+00
      2   0.000000D+00  0.000000D+00  0.000000D+00  0.000000D+00  0.000000D+00
      3   0.000000D+00  0.000000D+00  0.000000D+00  0.000000D+00  0.000000D+00
      4   0.000000D+00  0.000000D+00  0.000000D+00  0.000000D+00  0.000000D+00
      5   0.000000D+00  0.000000D+00  0.000000D+00  0.000000D+00  0.000000D+00
      6   0.000000D+00  0.000000D+00  0.000000D+00  0.000000D+00  0.000000D+00
      7   0.000000D+00  0.000000D+00  0.000000D+00  0.000000D+00  0.000000D+00
      8   0.000000D+00  0.000000D+00  0.000000D+00  0.000000D+00  0.000000D+00
      9   0.000000D+00  0.000000D+00  0.000000D+00  0.000000D+00  0.000000D+00
     10   0.000000D+00  0.000000D+00  0.000000D+00  0.000000D+00  0.000000D+00
                11            12            13            14            15 
      1   0.000000D+00  0.000000D+00  0.000000D+00  0.000000D+00  0.000000D+00
      2   0.000000D+00  0.000000D+00  0.000000D+00  0.000000D+00  0.000000D+00
      3   0.000000D+00  0.000000D+00  0.000000D+00  0.000000D+00  0.000000D+00
      4   0.000000D+00  0.000000D+00  0.000000D+00  0.000000D+00  0.000000D+00
      5   0.000000D+00  0.000000D+00  0.000000D+00  0.000000D+00  0.000000D+00
      6   0.000000D+00  0.000000D+00  0.000000D+00  0.000000D+00  0.000000D+00
      7   0.000000D+00  0.000000D+00  0.000000D+00  0.000000D+00  0.000000D+00
      8   0.000000D+00  0.000000D+00  0.000000D+00  0.000000D+00  0.000000D+00
      9   0.000000D+00  0.000000D+00  0.000000D+00  0.000000D+00  0.000000D+00
     10   0.000000D+00  0.000000D+00  0.000000D+00  0.000000D+00  0.000000D+00
                16            17            18            19            20 
      1   0.000000D+00  0.000000D+00  0.000000D+00  0.000000D+00  0.000000D+00
      2   0.000000D+00  0.000000D+00  0.000000D+00  0.000000D+00  0.000000D+00
      3   0.000000D+00  0.000000D+00  0.000000D+00  0.000000D+00  0.000000D+00
      4   0.000000D+00  0.000000D+00  0.000000D+00  0.000000D+00  0.000000D+00
      5   0.000000D+00  0.000000D+00  0.000000D+00  0.000000D+00  0.000000D+00
      6   0.000000D+00  0.000000D+00  0.000000D+00  0.000000D+00  0.000000D+00
      7   0.000000D+00  0.000000D+00  0.000000D+00  0.000000D+00  0.000000D+00
      8   0.000000D+00  0.000000D+00  0.000000D+00  0.000000D+00  0.000000D+00
      9   0.000000D+00  0.000000D+00  0.000000D+00  0.000000D+00  0.000000D+00
     10   0.000000D+00  0.000000D+00  0.000000D+00  0.000000D+00  0.000000D+00
 jaja in hckghf.F, ISPECT =                     548
Spin block MO for GHF transformation
NOA =   10   NOB =   10
NVA =   10   NVB =   10
 NOAvA in Hack                     100
 jaja in tranN3.F, ISPECT =                     548
 in l802/tranN3.F, LSPECT =                      800
 NMat, NBtSiz,MDV                    8372                   16000
                133954722
 TranN3:  NGot= 134217728 NBasic=    263006 NTTT=       550 NMat=      8372.
 Defined bucket =                      51                   10000
 Defined bucket =                      52                   10000
 Defined bucket =                      53                   10000
 Defined bucket =                      55                   10000
 Defined bucket =                      57                   10000
 Defined bucket =                      58                   10000
 Defined bucket =                      60                   10000
 Defined bucket =                      72                   10000
 Defined bucket =                      73                   10000
 Defined bucket =                      74                   10000
 Defined bucket =                      75                   10000
 Defined bucket =                      76                   10000
 (IK/LS) integrals will be saved in memory.
 TrCghf made   2 passes through the AO integrals.
 jaja DoHack is true or false? F
 jaja in hckghf.F, NBasis=                      10
 jaja in hckGHF/FixOG, LC =                      800
 jaja in hckGHF/FixOG, IRwC=                      548
 bfr conversion (alpha, real):
                 1             2             3             4             5 
      1   0.789882D-01  0.429234D-01  0.224022D+00  0.306432D-02  0.132398D+00
      2   0.512643D-01  0.278578D-01  0.180143D+00  0.246411D-02  0.139869D+00
      3   0.186717D+00  0.101465D+00  0.243319D+00  0.332829D-02 -0.380831D-01
      4   0.174498D+00  0.948251D-01  0.284153D+00  0.388684D-02  0.200773D-01
      5   0.188818D+00  0.102607D+00 -0.499450D-01 -0.683182D-03 -0.120317D+00
      6   0.188818D+00  0.102607D+00  0.499450D-01  0.683182D-03 -0.120317D+00
      7   0.174498D+00  0.948251D-01 -0.284153D+00 -0.388684D-02  0.200773D-01
      8   0.186717D+00  0.101465D+00 -0.243319D+00 -0.332829D-02 -0.380831D-01
      9   0.512643D-01  0.278578D-01 -0.180143D+00 -0.246411D-02  0.139869D+00
     10   0.789882D-01  0.429234D-01 -0.224022D+00 -0.306432D-02  0.132398D+00
                 6             7             8             9            10 
      1   0.347140D+00  0.181949D+00  0.226282D-02  0.358115D+00  0.319496D-01
      2   0.366728D+00 -0.123998D+00 -0.154211D-02  0.543121D+00  0.484550D-01
      3  -0.998515D-01  0.443486D+00  0.551546D-02 -0.520733D+00 -0.464576D-01
      4   0.526415D-01 -0.362165D+00 -0.450411D-02 -0.408873D+00 -0.364780D-01
      5  -0.315462D+00  0.507446D+00  0.631090D-02  0.196932D+00  0.175694D-01
      6  -0.315462D+00 -0.507446D+00 -0.631090D-02 -0.196932D+00 -0.175694D-01
      7   0.526415D-01  0.362165D+00  0.450411D-02  0.408873D+00  0.364780D-01
      8  -0.998515D-01 -0.443486D+00 -0.551546D-02  0.520733D+00  0.464576D-01
      9   0.366728D+00  0.123998D+00  0.154211D-02 -0.543121D+00 -0.484550D-01
     10   0.347140D+00 -0.181949D+00 -0.226282D-02 -0.358115D+00 -0.319496D-01
                11            12            13            14            15 
      1   0.512137D+00 -0.450443D-02  0.812267D+00 -0.302365D-01 -0.211166D-01
      2  -0.365878D+00  0.321803D-02 -0.571853D+00  0.212871D-01 -0.631728D+00
      3   0.471717D+00 -0.414892D-02 -0.211220D+00  0.786263D-02  0.247521D+00
      4  -0.495917D+00  0.436177D-02 -0.199968D+00  0.744378D-02  0.955201D+00
      5  -0.127594D+00  0.112223D-02 -0.593325D+00  0.220864D-01 -0.708813D+00
      6  -0.127594D+00  0.112223D-02  0.593325D+00 -0.220864D-01 -0.708813D+00
      7  -0.495917D+00  0.436177D-02  0.199968D+00 -0.744378D-02  0.955201D+00
      8   0.471717D+00 -0.414892D-02  0.211220D+00 -0.786263D-02  0.247521D+00
      9  -0.365878D+00  0.321803D-02  0.571853D+00 -0.212871D-01 -0.631728D+00
     10   0.512137D+00 -0.450443D-02 -0.812267D+00  0.302365D-01 -0.211166D-01
                16            17            18            19            20 
      1  -0.292958D-03  0.182801D+00 -0.791610D+00  0.604731D-02  0.407818D+00
      2  -0.876419D-02 -0.122385D+00  0.529984D+00 -0.853053D-02 -0.575281D+00
      3   0.343395D-02 -0.243252D+00  0.105339D+01 -0.128866D-01 -0.869042D+00
      4   0.132518D-01  0.662989D-01 -0.287104D+00  0.153441D-01  0.103477D+01
      5  -0.983361D-02  0.117981D+00 -0.510909D+00  0.168761D-01  0.113809D+01
      6  -0.983361D-02  0.117981D+00 -0.510909D+00 -0.168761D-01 -0.113809D+01
      7   0.132518D-01  0.662989D-01 -0.287104D+00 -0.153441D-01 -0.103477D+01
      8   0.343395D-02 -0.243252D+00  0.105339D+01  0.128866D-01  0.869042D+00
      9  -0.876419D-02 -0.122385D+00  0.529984D+00  0.853053D-02  0.575281D+00
     10  -0.292958D-03  0.182801D+00 -0.791610D+00 -0.604731D-02 -0.407818D+00
 bfr conversion (alpha, imaginary):
                 1             2             3             4             5 
      1   0.000000D+00  0.000000D+00  0.000000D+00  0.000000D+00  0.000000D+00
      2   0.000000D+00  0.000000D+00  0.000000D+00  0.000000D+00  0.000000D+00
      3   0.000000D+00  0.000000D+00  0.000000D+00  0.000000D+00  0.000000D+00
      4   0.000000D+00  0.000000D+00  0.000000D+00  0.000000D+00  0.000000D+00
      5   0.000000D+00  0.000000D+00  0.000000D+00  0.000000D+00  0.000000D+00
      6   0.000000D+00  0.000000D+00  0.000000D+00  0.000000D+00  0.000000D+00
      7   0.000000D+00  0.000000D+00  0.000000D+00  0.000000D+00  0.000000D+00
      8   0.000000D+00  0.000000D+00  0.000000D+00  0.000000D+00  0.000000D+00
      9   0.000000D+00  0.000000D+00  0.000000D+00  0.000000D+00  0.000000D+00
     10   0.000000D+00  0.000000D+00  0.000000D+00  0.000000D+00  0.000000D+00
                 6             7             8             9            10 
      1   0.000000D+00  0.000000D+00  0.000000D+00  0.000000D+00  0.000000D+00
      2   0.000000D+00  0.000000D+00  0.000000D+00  0.000000D+00  0.000000D+00
[...]
      6b-0.342820D-01 -0.337453D+00  0.145223D+00 -0.246084D+00 -0.172069D+00
      7a 0.620526D-01 -0.180748D+00  0.310436D+00 -0.364065D-01 -0.222618D+00
      7b-0.302141D-01  0.452047D-01 -0.601049D-01  0.337151D-01 -0.817009D-01
      8a-0.194921D+00  0.922443D-01 -0.190321D+00  0.104019D+00 -0.764857D-01
      8b 0.174972D-01 -0.737677D-02 -0.126321D+00  0.392253D-01  0.847304D-01
      9a 0.363669D+00 -0.278406D+00  0.547269D+00 -0.152097D+00 -0.313948D-02
      9b-0.260815D+00  0.154951D+00 -0.297643D+00  0.697502D-01 -0.122294D+00
     10a 0.550328D+00 -0.364109D+00  0.809608D+00 -0.168436D+00  0.184895D-01
     10b-0.784507D-01  0.981801D-01 -0.150845D+00  0.777877D-01  0.125993D-01
                3b            4a            4b            5a            5b
      3b 0.365606D+00
      4a 0.867201D-01  0.443493D+00
      4b 0.337531D+00 -0.774353D-02  0.740672D+00
      5a-0.106099D+00 -0.874063D-01 -0.492627D-01  0.733751D+00
      5b 0.233144D+00 -0.924431D-01 -0.636876D-01 -0.262661D+00  0.664346D+00
      6a-0.181736D+00  0.186765D+00 -0.172061D+00  0.741874D+00 -0.500546D+00
      6b 0.189805D+00  0.225804D-01  0.272151D+00 -0.944922D-01  0.244856D+00
      7a-0.943071D-01 -0.118104D+00  0.515844D-01  0.387908D+00 -0.193322D+00
      7b-0.144989D+00 -0.184547D+00 -0.270683D+00  0.131879D-02  0.128353D+00
      8a-0.259486D+00 -0.110422D+00 -0.194793D+00  0.407268D+00 -0.200723D+00
      8b-0.266605D+00 -0.182187D+00 -0.361512D+00 -0.191057D+00  0.229129D+00
      9a 0.108046D+00  0.139137D+00 -0.297714D-01 -0.533198D+00  0.155547D+00
      9b-0.579673D-01 -0.534698D-01  0.138534D+00  0.173809D+00 -0.402857D+00
     10a 0.873465D-01  0.205819D+00 -0.176983D+00 -0.699242D+00  0.319748D+00
     10b-0.132783D+00 -0.264496D-01 -0.284113D-01 -0.304911D-01 -0.251492D+00
                6a            6b            7a            7b            8a
      6a 0.137431D+01
      6b-0.229312D+00  0.361841D+00
      7a 0.817834D-01 -0.232830D-01  0.982797D+00
      7b-0.664635D-01 -0.117177D+00 -0.900921D-01  0.316142D+00
      8a 0.538803D+00 -0.124024D+00  0.442857D+00  0.902755D-01  0.565577D+00
      8b-0.261148D+00  0.382368D-01 -0.392986D+00  0.338418D+00 -0.145306D-01
      9a-0.645004D+00  0.389580D-01  0.840700D-01 -0.518874D-01 -0.285044D+00
      9b 0.320810D+00 -0.215010D+00 -0.277500D-01  0.161045D+00  0.527920D-01
     10a-0.791003D+00  0.869524D-01  0.221924D+00 -0.129455D+00 -0.211308D+00
     10b 0.691798D-01 -0.147733D+00 -0.596829D-01  0.139304D+00  0.160161D-01
                8b            9a            9b           10a           10b
      8b 0.833372D+00
      9a-0.300704D-01  0.832360D+00
      9b-0.189627D+00 -0.155320D+00  0.998779D+00
     10a 0.193426D-01  0.108949D+01 -0.667586D+00  0.172283D+01
     10b 0.822211D-01  0.779720D-01  0.503697D+00 -0.133441D+00  0.354990D+00
 jaja lower-tri density matrix (imaginary):
                1a            1b            2a            2b            3a
      1a 0.000000D+00
      1b 0.000000D+00  0.000000D+00
      2a 0.000000D+00  0.000000D+00  0.000000D+00
      2b 0.000000D+00  0.000000D+00  0.000000D+00  0.000000D+00
      3a 0.000000D+00  0.000000D+00  0.000000D+00  0.000000D+00  0.000000D+00
      3b 0.000000D+00  0.000000D+00  0.000000D+00  0.000000D+00  0.000000D+00
      4a 0.000000D+00  0.000000D+00  0.000000D+00  0.000000D+00  0.000000D+00
      4b 0.000000D+00  0.000000D+00  0.000000D+00  0.000000D+00  0.000000D+00
      5a 0.000000D+00  0.000000D+00  0.000000D+00  0.000000D+00  0.000000D+00
      5b 0.000000D+00  0.000000D+00  0.000000D+00  0.000000D+00  0.000000D+00
      6a 0.000000D+00  0.000000D+00  0.000000D+00  0.000000D+00  0.000000D+00
      6b 0.000000D+00  0.000000D+00  0.000000D+00  0.000000D+00  0.000000D+00
      7a 0.000000D+00  0.000000D+00  0.000000D+00  0.000000D+00  0.000000D+00
      7b 0.000000D+00  0.000000D+00  0.000000D+00  0.000000D+00  0.000000D+00
      8a 0.000000D+00  0.000000D+00  0.000000D+00  0.000000D+00  0.000000D+00
      8b 0.000000D+00  0.000000D+00  0.000000D+00  0.000000D+00  0.000000D+00
      9a 0.000000D+00  0.000000D+00  0.000000D+00  0.000000D+00  0.000000D+00
      9b 0.000000D+00  0.000000D+00  0.000000D+00  0.000000D+00  0.000000D+00
     10a 0.000000D+00  0.000000D+00  0.000000D+00  0.000000D+00  0.000000D+00
     10b 0.000000D+00  0.000000D+00  0.000000D+00  0.000000D+00  0.000000D+00
                3b            4a            4b            5a            5b
      3b 0.000000D+00
      4a 0.000000D+00  0.000000D+00
      4b 0.000000D+00  0.000000D+00  0.000000D+00
      5a 0.000000D+00  0.000000D+00  0.000000D+00  0.000000D+00
      5b 0.000000D+00  0.000000D+00  0.000000D+00  0.000000D+00  0.000000D+00
      6a 0.000000D+00  0.000000D+00  0.000000D+00  0.000000D+00  0.000000D+00
      6b 0.000000D+00  0.000000D+00  0.000000D+00  0.000000D+00  0.000000D+00
      7a 0.000000D+00  0.000000D+00  0.000000D+00  0.000000D+00  0.000000D+00
      7b 0.000000D+00  0.000000D+00  0.000000D+00  0.000000D+00  0.000000D+00
      8a 0.000000D+00  0.000000D+00  0.000000D+00  0.000000D+00  0.000000D+00
      8b 0.000000D+00  0.000000D+00  0.000000D+00  0.000000D+00  0.000000D+00
      9a 0.000000D+00  0.000000D+00  0.000000D+00  0.000000D+00  0.000000D+00
      9b 0.000000D+00  0.000000D+00  0.000000D+00  0.000000D+00  0.000000D+00
     10a 0.000000D+00  0.000000D+00  0.000000D+00  0.000000D+00  0.000000D+00
     10b 0.000000D+00  0.000000D+00  0.000000D+00  0.000000D+00  0.000000D+00
                6a            6b            7a            7b            8a
      6a 0.000000D+00
      6b 0.000000D+00  0.000000D+00
      7a 0.000000D+00  0.000000D+00  0.000000D+00
      7b 0.000000D+00  0.000000D+00  0.000000D+00  0.000000D+00
      8a 0.000000D+00  0.000000D+00  0.000000D+00  0.000000D+00  0.000000D+00
      8b 0.000000D+00  0.000000D+00  0.000000D+00  0.000000D+00  0.000000D+00
      9a 0.000000D+00  0.000000D+00  0.000000D+00  0.000000D+00  0.000000D+00
      9b 0.000000D+00  0.000000D+00  0.000000D+00  0.000000D+00  0.000000D+00
     10a 0.000000D+00  0.000000D+00  0.000000D+00  0.000000D+00  0.000000D+00
     10b 0.000000D+00  0.000000D+00  0.000000D+00  0.000000D+00  0.000000D+00
                8b            9a            9b           10a           10b
      8b 0.000000D+00
      9a 0.000000D+00  0.000000D+00
      9b 0.000000D+00  0.000000D+00  0.000000D+00
     10a 0.000000D+00  0.000000D+00  0.000000D+00  0.000000D+00
     10b 0.000000D+00  0.000000D+00  0.000000D+00  0.000000D+00  0.000000D+00
 jaja non-ortho density matrix               [Gau-style] (real):
                 1             2             3             4             5 
      1a  0.656595D+00 -0.116222D+00  0.920666D+00  0.840109D-01  0.645711D-01
      1b -0.116222D+00  0.970383D+00 -0.661548D+00  0.606229D+00  0.146785D-01
      2a  0.920666D+00 -0.661548D+00  0.173104D+01 -0.187033D+00 -0.279733D+00
      2b  0.840109D-01  0.606229D+00 -0.187033D+00  0.453636D+00  0.413259D-02
      3a  0.645711D-01  0.146785D-01 -0.279733D+00  0.413259D-02  0.112503D+01
      3b  0.113520D-01 -0.773285D-01  0.869950D-01 -0.139953D+00 -0.117755D+00
      4a  0.214263D+00 -0.149160D+00  0.299576D+00 -0.612065D-01  0.434563D+00
      4b -0.793885D-01  0.113227D+00 -0.370691D-01  0.276811D-01 -0.396541D+00
      5a -0.369663D+00  0.124326D+00 -0.557810D+00  0.324834D-01  0.235834D+00
      5b  0.106554D+00 -0.322967D+00  0.314336D+00 -0.273128D+00 -0.243224D+00
      6a -0.554165D+00  0.315957D+00 -0.896644D+00  0.126960D+00  0.531337D+00
      6b -0.342820D-01 -0.337453D+00  0.145223D+00 -0.246084D+00 -0.172069D+00
      7a  0.620526D-01 -0.180748D+00  0.310436D+00 -0.364065D-01 -0.222618D+00
      7b -0.302141D-01  0.452047D-01 -0.601049D-01  0.337151D-01 -0.817009D-01
      8a -0.194921D+00  0.922443D-01 -0.190321D+00  0.104019D+00 -0.764857D-01
      8b  0.174972D-01 -0.737677D-02 -0.126321D+00  0.392253D-01  0.847304D-01
      9a  0.363669D+00 -0.278406D+00  0.547269D+00 -0.152097D+00 -0.313948D-02
      9b -0.260815D+00  0.154951D+00 -0.297643D+00  0.697502D-01 -0.122294D+00
     10a  0.550328D+00 -0.364109D+00  0.809608D+00 -0.168436D+00  0.184895D-01
     10b -0.784507D-01  0.981801D-01 -0.150845D+00  0.777877D-01  0.125993D-01
                 6             7             8             9            10 
      1a  0.113520D-01  0.214263D+00 -0.793885D-01 -0.369663D+00  0.106554D+00
      1b -0.773285D-01 -0.149160D+00  0.113227D+00  0.124326D+00 -0.322967D+00
      2a  0.869950D-01  0.299576D+00 -0.370691D-01 -0.557810D+00  0.314336D+00
      2b -0.139953D+00 -0.612065D-01  0.276811D-01  0.324834D-01 -0.273128D+00
      3a -0.117755D+00  0.434563D+00 -0.396541D+00  0.235834D+00 -0.243224D+00
      3b  0.365606D+00  0.867201D-01  0.337531D+00 -0.106099D+00  0.233144D+00
      4a  0.867201D-01  0.443493D+00 -0.774353D-02 -0.874063D-01 -0.924431D-01
      4b  0.337531D+00 -0.774353D-02  0.740672D+00 -0.492627D-01 -0.636876D-01
      5a -0.106099D+00 -0.874063D-01 -0.492627D-01  0.733751D+00 -0.262661D+00
      5b  0.233144D+00 -0.924431D-01 -0.636876D-01 -0.262661D+00  0.664346D+00
      6a -0.181736D+00  0.186765D+00 -0.172061D+00  0.741874D+00 -0.500546D+00
      6b  0.189805D+00  0.225804D-01  0.272151D+00 -0.944922D-01  0.244856D+00
      7a -0.943071D-01 -0.118104D+00  0.515844D-01  0.387908D+00 -0.193322D+00
      7b -0.144989D+00 -0.184547D+00 -0.270683D+00  0.131879D-02  0.128353D+00
      8a -0.259486D+00 -0.110422D+00 -0.194793D+00  0.407268D+00 -0.200723D+00
      8b -0.266605D+00 -0.182187D+00 -0.361512D+00 -0.191057D+00  0.229129D+00
      9a  0.108046D+00  0.139137D+00 -0.297714D-01 -0.533198D+00  0.155547D+00
      9b -0.579673D-01 -0.534698D-01  0.138534D+00  0.173809D+00 -0.402857D+00
     10a  0.873465D-01  0.205819D+00 -0.176983D+00 -0.699242D+00  0.319748D+00
     10b -0.132783D+00 -0.264496D-01 -0.284113D-01 -0.304911D-01 -0.251492D+00
                11            12            13            14            15 
      1a -0.554165D+00 -0.342820D-01  0.620526D-01 -0.302141D-01 -0.194921D+00
      1b  0.315957D+00 -0.337453D+00 -0.180748D+00  0.452047D-01  0.922443D-01
      2a -0.896644D+00  0.145223D+00  0.310436D+00 -0.601049D-01 -0.190321D+00
      2b  0.126960D+00 -0.246084D+00 -0.364065D-01  0.337151D-01  0.104019D+00
      3a  0.531337D+00 -0.172069D+00 -0.222618D+00 -0.817009D-01 -0.764857D-01
      3b -0.181736D+00  0.189805D+00 -0.943071D-01 -0.144989D+00 -0.259486D+00
      4a  0.186765D+00  0.225804D-01 -0.118104D+00 -0.184547D+00 -0.110422D+00
      4b -0.172061D+00  0.272151D+00  0.515844D-01 -0.270683D+00 -0.194793D+00
      5a  0.741874D+00 -0.944922D-01  0.387908D+00  0.131879D-02  0.407268D+00
      5b -0.500546D+00  0.244856D+00 -0.193322D+00  0.128353D+00 -0.200723D+00
      6a  0.137431D+01 -0.229312D+00  0.817834D-01 -0.664635D-01  0.538803D+00
      6b -0.229312D+00  0.361841D+00 -0.232830D-01 -0.117177D+00 -0.124024D+00
      7a  0.817834D-01 -0.232830D-01  0.982797D+00 -0.900921D-01  0.442857D+00
      7b -0.664635D-01 -0.117177D+00 -0.900921D-01  0.316142D+00  0.902755D-01
      8a  0.538803D+00 -0.124024D+00  0.442857D+00  0.902755D-01  0.565577D+00
      8b -0.261148D+00  0.382368D-01 -0.392986D+00  0.338418D+00 -0.145306D-01
      9a -0.645004D+00  0.389580D-01  0.840700D-01 -0.518874D-01 -0.285044D+00
      9b  0.320810D+00 -0.215010D+00 -0.277500D-01  0.161045D+00  0.527920D-01
     10a -0.791003D+00  0.869524D-01  0.221924D+00 -0.129455D+00 -0.211308D+00
     10b  0.691798D-01 -0.147733D+00 -0.596829D-01  0.139304D+00  0.160161D-01
                16            17            18            19            20 
      1a  0.174972D-01  0.363669D+00 -0.260815D+00  0.550328D+00 -0.784507D-01
      1b -0.737677D-02 -0.278406D+00  0.154951D+00 -0.364109D+00  0.981801D-01
      2a -0.126321D+00  0.547269D+00 -0.297643D+00  0.809608D+00 -0.150845D+00
      2b  0.392253D-01 -0.152097D+00  0.697502D-01 -0.168436D+00  0.777877D-01
      3a  0.847304D-01 -0.313948D-02 -0.122294D+00  0.184895D-01  0.125993D-01
      3b -0.266605D+00  0.108046D+00 -0.579673D-01  0.873465D-01 -0.132783D+00
      4a -0.182187D+00  0.139137D+00 -0.534698D-01  0.205819D+00 -0.264496D-01
      4b -0.361512D+00 -0.297714D-01  0.138534D+00 -0.176983D+00 -0.284113D-01
      5a -0.191057D+00 -0.533198D+00  0.173809D+00 -0.699242D+00 -0.304911D-01
      5b  0.229129D+00  0.155547D+00 -0.402857D+00  0.319748D+00 -0.251492D+00
      6a -0.261148D+00 -0.645004D+00  0.320810D+00 -0.791003D+00  0.691798D-01
      6b  0.382368D-01  0.389580D-01 -0.215010D+00  0.869524D-01 -0.147733D+00
      7a -0.392986D+00  0.840700D-01 -0.277500D-01  0.221924D+00 -0.596829D-01
      7b  0.338418D+00 -0.518874D-01  0.161045D+00 -0.129455D+00  0.139304D+00
      8a -0.145306D-01 -0.285044D+00  0.527920D-01 -0.211308D+00  0.160161D-01
      8b  0.833372D+00 -0.300704D-01 -0.189627D+00  0.193426D-01  0.822211D-01
      9a -0.300704D-01  0.832360D+00 -0.155320D+00  0.108949D+01  0.779720D-01
      9b -0.189627D+00 -0.155320D+00  0.998779D+00 -0.667586D+00  0.503697D+00
     10a  0.193426D-01  0.108949D+01 -0.667586D+00  0.172283D+01 -0.133441D+00
     10b  0.822211D-01  0.779720D-01  0.503697D+00 -0.133441D+00  0.354990D+00
 jaja non-ortho density matrix               [Gau-style] (imaginary):
                 1             2             3             4             5 
      1a  0.000000D+00  0.000000D+00  0.000000D+00  0.000000D+00  0.000000D+00
      1b  0.000000D+00  0.000000D+00  0.000000D+00  0.000000D+00  0.000000D+00
      2a  0.000000D+00  0.000000D+00  0.000000D+00  0.000000D+00  0.000000D+00
      2b  0.000000D+00  0.000000D+00  0.000000D+00  0.000000D+00  0.000000D+00
      3a  0.000000D+00  0.000000D+00  0.000000D+00  0.000000D+00  0.000000D+00
      3b  0.000000D+00  0.000000D+00  0.000000D+00  0.000000D+00  0.000000D+00
      4a  0.000000D+00  0.000000D+00  0.000000D+00  0.000000D+00  0.000000D+00
      4b  0.000000D+00  0.000000D+00  0.000000D+00  0.000000D+00  0.000000D+00
      5a  0.000000D+00  0.000000D+00  0.000000D+00  0.000000D+00  0.000000D+00
      5b  0.000000D+00  0.000000D+00  0.000000D+00  0.000000D+00  0.000000D+00
      6a  0.000000D+00  0.000000D+00  0.000000D+00  0.000000D+00  0.000000D+00
      6b  0.000000D+00  0.000000D+00  0.000000D+00  0.000000D+00  0.000000D+00
      7a  0.000000D+00  0.000000D+00  0.000000D+00  0.000000D+00  0.000000D+00
      7b  0.000000D+00  0.000000D+00  0.000000D+00  0.000000D+00  0.000000D+00
      8a  0.000000D+00  0.000000D+00  0.000000D+00  0.000000D+00  0.000000D+00
      8b  0.000000D+00  0.000000D+00  0.000000D+00  0.000000D+00  0.000000D+00
      9a  0.000000D+00  0.000000D+00  0.000000D+00  0.000000D+00  0.000000D+00
      9b  0.000000D+00  0.000000D+00  0.000000D+00  0.000000D+00  0.000000D+00
     10a  0.000000D+00  0.000000D+00  0.000000D+00  0.000000D+00  0.000000D+00
     10b  0.000000D+00  0.000000D+00  0.000000D+00  0.000000D+00  0.000000D+00
                 6             7             8             9            10 
      1a  0.000000D+00  0.000000D+00  0.000000D+00  0.000000D+00  0.000000D+00
      1b  0.000000D+00  0.000000D+00  0.000000D+00  0.000000D+00  0.000000D+00
      2a  0.000000D+00  0.000000D+00  0.000000D+00  0.000000D+00  0.000000D+00
      2b  0.000000D+00  0.000000D+00  0.000000D+00  0.000000D+00  0.000000D+00
      3a  0.000000D+00  0.000000D+00  0.000000D+00  0.000000D+00  0.000000D+00
      3b  0.000000D+00  0.000000D+00  0.000000D+00  0.000000D+00  0.000000D+00
      4a  0.000000D+00  0.000000D+00  0.000000D+00  0.000000D+00  0.000000D+00
      4b  0.000000D+00  0.000000D+00  0.000000D+00  0.000000D+00  0.000000D+00
      5a  0.000000D+00  0.000000D+00  0.000000D+00  0.000000D+00  0.000000D+00
      5b  0.000000D+00  0.000000D+00  0.000000D+00  0.000000D+00  0.000000D+00
      6a  0.000000D+00  0.000000D+00  0.000000D+00  0.000000D+00  0.000000D+00
      6b  0.000000D+00  0.000000D+00  0.000000D+00  0.000000D+00  0.000000D+00
      7a  0.000000D+00  0.000000D+00  0.000000D+00  0.000000D+00  0.000000D+00
      7b  0.000000D+00  0.000000D+00  0.000000D+00  0.000000D+00  0.000000D+00
      8a  0.000000D+00  0.000000D+00  0.000000D+00  0.000000D+00  0.000000D+00
      8b  0.000000D+00  0.000000D+00  0.000000D+00  0.000000D+00  0.000000D+00
      9a  0.000000D+00  0.000000D+00  0.000000D+00  0.000000D+00  0.000000D+00
      9b  0.000000D+00  0.000000D+00  0.000000D+00  0.000000D+00  0.000000D+00
     10a  0.000000D+00  0.000000D+00  0.000000D+00  0.000000D+00  0.000000D+00
     10b  0.000000D+00  0.000000D+00  0.000000D+00  0.000000D+00  0.000000D+00
                11            12            13            14            15 
      1a  0.000000D+00  0.000000D+00  0.000000D+00  0.000000D+00  0.000000D+00
      1b  0.000000D+00  0.000000D+00  0.000000D+00  0.000000D+00  0.000000D+00
      2a  0.000000D+00  0.000000D+00  0.000000D+00  0.000000D+00  0.000000D+00
      2b  0.000000D+00  0.000000D+00  0.000000D+00  0.000000D+00  0.000000D+00
      3a  0.000000D+00  0.000000D+00  0.000000D+00  0.000000D+00  0.000000D+00
      3b  0.000000D+00  0.000000D+00  0.000000D+00  0.000000D+00  0.000000D+00
      4a  0.000000D+00  0.000000D+00  0.000000D+00  0.000000D+00  0.000000D+00
      4b  0.000000D+00  0.000000D+00  0.000000D+00  0.000000D+00  0.000000D+00
      5a  0.000000D+00  0.000000D+00  0.000000D+00  0.000000D+00  0.000000D+00
      5b  0.000000D+00  0.000000D+00  0.000000D+00  0.000000D+00  0.000000D+00
      6a  0.000000D+00  0.000000D+00  0.000000D+00  0.000000D+00  0.000000D+00
      6b  0.000000D+00  0.000000D+00  0.000000D+00  0.000000D+00  0.000000D+00
      7a  0.000000D+00  0.000000D+00  0.000000D+00  0.000000D+00  0.000000D+00
      7b  0.000000D+00  0.000000D+00  0.000000D+00  0.000000D+00  0.000000D+00
      8a  0.000000D+00  0.000000D+00  0.000000D+00  0.000000D+00  0.000000D+00
      8b  0.000000D+00  0.000000D+00  0.000000D+00  0.000000D+00  0.000000D+00
      9a  0.000000D+00  0.000000D+00  0.000000D+00  0.000000D+00  0.000000D+00
      9b  0.000000D+00  0.000000D+00  0.000000D+00  0.000000D+00  0.000000D+00
     10a  0.000000D+00  0.000000D+00  0.000000D+00  0.000000D+00  0.000000D+00
     10b  0.000000D+00  0.000000D+00  0.000000D+00  0.000000D+00  0.000000D+00
                16            17            18            19            20 
      1a  0.000000D+00  0.000000D+00  0.000000D+00  0.000000D+00  0.000000D+00
      1b  0.000000D+00  0.000000D+00  0.000000D+00  0.000000D+00  0.000000D+00
      2a  0.000000D+00  0.000000D+00  0.000000D+00  0.000000D+00  0.000000D+00
      2b  0.000000D+00  0.000000D+00  0.000000D+00  0.000000D+00  0.000000D+00
      3a  0.000000D+00  0.000000D+00  0.000000D+00  0.000000D+00  0.000000D+00
      3b  0.000000D+00  0.000000D+00  0.000000D+00  0.000000D+00  0.000000D+00
      4a  0.000000D+00  0.000000D+00  0.000000D+00  0.000000D+00  0.000000D+00
      4b  0.000000D+00  0.000000D+00  0.000000D+00  0.000000D+00  0.000000D+00
      5a  0.000000D+00  0.000000D+00  0.000000D+00  0.000000D+00  0.000000D+00
      5b  0.000000D+00  0.000000D+00  0.000000D+00  0.000000D+00  0.000000D+00
      6a  0.000000D+00  0.000000D+00  0.000000D+00  0.000000D+00  0.000000D+00
      6b  0.000000D+00  0.000000D+00  0.000000D+00  0.000000D+00  0.000000D+00
      7a  0.000000D+00  0.000000D+00  0.000000D+00  0.000000D+00  0.000000D+00
      7b  0.000000D+00  0.000000D+00  0.000000D+00  0.000000D+00  0.000000D+00
      8a  0.000000D+00  0.000000D+00  0.000000D+00  0.000000D+00  0.000000D+00
      8b  0.000000D+00  0.000000D+00  0.000000D+00  0.000000D+00  0.000000D+00
      9a  0.000000D+00  0.000000D+00  0.000000D+00  0.000000D+00  0.000000D+00
      9b  0.000000D+00  0.000000D+00  0.000000D+00  0.000000D+00  0.000000D+00
     10a  0.000000D+00  0.000000D+00  0.000000D+00  0.000000D+00  0.000000D+00
     10b  0.000000D+00  0.000000D+00  0.000000D+00  0.000000D+00  0.000000D+00
FORTRAN STOP
