 Entering Gaussian System, Link 0=gdv
 AtFile(1): H.gbs
            H     0
            S   10   1.00
               1000.000000000000            0.000068713567
                316.227766000000            0.000169141320
                100.000000000000            0.000823394812
                 31.622776600000            0.003425569236
                 10.000000000000            0.013951996000
                  3.162277660000            0.056909313560
                  1.000000000000            0.198286399900
                  0.316227766000            0.496922426700
                  0.100000000000            0.369846276400
                  0.031622776600            0.003752720039
            ****
 Initial command:
 /users/lcj1/GHF_hess/exe-dir/l1.exe "/users/lcj1/GHF_hess/h10_2rows/follow25/follow45/bck/Gau-7705.inp" -scrdir="/users/lcj1/GHF_hess/h10_2rows/follow25/follow45/bck/"
 Entering Link 1 = /users/lcj1/GHF_hess/exe-dir/l1.exe PID=      7706.
  
 Copyright (c) 1988,1990,1992,1993,1995,1998,2003,2009,2012,
            Gaussian, Inc.  All Rights Reserved.
  
 This is the private, development version of
 the Gaussian(R) DV system of programs. It is based on
 the Gaussian(R) 09 system (copyright 2009, Gaussian, Inc.),
 the Gaussian(R) 03 system (copyright 2003, Gaussian, Inc.),
 the Gaussian(R) 98 system (copyright 1998, Gaussian, Inc.),
 the Gaussian(R) 94 system (copyright 1995, Gaussian, Inc.),
 the Gaussian 92(TM) system (copyright 1992, Gaussian, Inc.),
 the Gaussian 90(TM) system (copyright 1990, Gaussian, Inc.),
 the Gaussian 88(TM) system (copyright 1988, Gaussian, Inc.),
 the Gaussian 86(TM) system (copyright 1986, Carnegie Mellon
 University), and the Gaussian 82(TM) system (copyright 1983,
 Carnegie Mellon University). Gaussian is a federally registered
 trademark of Gaussian, Inc.
  
 This software contains proprietary and confidential information,
 including trade secrets, belonging to Gaussian, Inc.
  
 This software is provided under written license and may be
 used, copied, transmitted, or stored only in accord with that
 written license.
  
 The following legend is applicable only to US Government
 contracts under FAR:
  
                    RESTRICTED RIGHTS LEGEND
  
 Use, reproduction and disclosure by the US Government is
 subject to restrictions as set forth in subparagraphs (a)
 and (c) of the Commercial Computer Software - Restricted
 Rights clause in FAR 52.227-19.
  
 Gaussian, Inc.
 340 Quinnipiac St., Bldg. 40, Wallingford CT 06492
  
  
 ---------------------------------------------------------------
 Warning -- This program may not be used in any manner that
 competes with the business of Gaussian, Inc. or will provide
 assistance to any competitor of Gaussian, Inc.  The licensee
 of this program is prohibited from giving any competitor of
 Gaussian, Inc. access to this program.  By using this program,
 the user acknowledges that Gaussian, Inc. is engaged in the
 business of creating and licensing software in the field of
 computational chemistry and represents and warrants to the
 licensee that it is not a competitor of Gaussian, Inc. and that
 it will not use this program in any manner prohibited above.
 ---------------------------------------------------------------
  

 Cite this work as:
 Gaussian Development Version, Revision H.21,
 M. J. Frisch, G. W. Trucks, H. B. Schlegel, G. E. Scuseria, 
 M. A. Robb, J. R. Cheeseman, G. Scalmani, V. Barone, B. Mennucci, 
 G. A. Petersson, H. Nakatsuji, M. Caricato, X. Li, H. P. Hratchian, 
 A. F. Izmaylov, J. Bloino, G. Zheng, J. L. Sonnenberg, W. Liang, 
 M. Hada, M. Ehara, K. Toyota, R. Fukuda, J. Hasegawa, M. Ishida, 
 T. Nakajima, Y. Honda, O. Kitao, H. Nakai, T. Vreven, 
 J. A. Montgomery, Jr., J. E. Peralta, F. Ogliaro, M. Bearpark, 
 J. J. Heyd, E. Brothers, K. N. Kudin, V. N. Staroverov, T. Keith, 
 R. Kobayashi, J. Normand, K. Raghavachari, A. Rendell, J. C. Burant, 
 S. S. Iyengar, J. Tomasi, M. Cossi, N. Rega, J. M. Millam, M. Klene, 
 J. E. Knox, J. B. Cross, V. Bakken, C. Adamo, J. Jaramillo, 
 R. Gomperts, R. E. Stratmann, O. Yazyev, A. J. Austin, R. Cammi, 
 C. Pomelli, J. W. Ochterski, R. L. Martin, K. Morokuma, 
 V. G. Zakrzewski, G. A. Voth, P. Salvador, J. J. Dannenberg, 
 S. Dapprich, P. V. Parandekar, N. J. Mayhall, A. D. Daniels, 
 O. Farkas, J. B. Foresman, J. V. Ortiz, J. Cioslowski, 
 and D. J. Fox, Gaussian, Inc., Wallingford CT, 2010.
 
 ******************************************
 Gaussian DV:  EM64L-GDVRevH.21 13-May-2012
                28-Feb-2017 
 ******************************************
 %chk=h10.chk
 ----------------------------------------------------------------------
 #ghf/gen scf(tight,novaracc,noincfock,fulldiag) stable guess=read geom
 =nocrowd use=l802 use=l902 test
 ----------------------------------------------------------------------
 ********************************************
   THE COMPLEX ERI TRANSFORMATION WITH L802  
        COMPLEX STABILITY WITH L902          
 ********************************************
 1/38=1/1;
 2/12=1,17=6,18=5,40=1/2;
 3/5=7,16=1,25=20,28=1,116=7/1,2,3,20;
 4/5=1/1;
 5/5=100001,16=1,32=2,38=6/2;
 8/6=1,10=90,11=11/1,2;
 9/8=4,13=1/1,2;
 6/7=2,8=2,9=2,10=2,28=1/1;
 99/5=1,9=1/99;
 ----------------------------------------------------------------------
 hf stability analysis of h10 triangular lattice, y= 0.6299221068523126
 5 alpha= 34.500000000000000
 ----------------------------------------------------------------------
 Symbolic Z-Matrix:
 Charge =  0 Multiplicity = 1
 H
 H                    1     1.11214 
 H                    1     1.11214  2     111. 
 H                    2     1.11214  1     69.      3     0.       0
 H                    3     1.11214  1     180.     2     0.       0
 H                    4     1.11214  2     180.     1     0.       0
 H                    5     1.11214  3     180.     2     0.       0
 H                    6     1.11214  4     180.     1     0.       0
 H                    7     1.11214  5     180.     2     0.       0
 H                    8     1.11214  6     180.     1     0.       0
 
                          Input orientation:                          
 ---------------------------------------------------------------------
 Center     Atomic      Atomic             Coordinates (Angstroms)
 Number     Number       Type             X           Y           Z
 ---------------------------------------------------------------------
      1          1           0        0.000000    0.000000    0.000000
      2          1           0        0.000000    0.000000    1.112138
      3          1           0        1.038271    0.000000   -0.398555
      4          1           0        1.038271    0.000000    0.713584
      5          1           0        2.076541    0.000000   -0.797109
      6          1           0        2.076541    0.000000    0.315029
      7          1           0        3.114812    0.000000   -1.195664
      8          1           0        3.114812    0.000000   -0.083526
      9          1           0        4.153082    0.000000   -1.594219
     10          1           0        4.153082    0.000000   -0.482081
 ---------------------------------------------------------------------
                    Distance matrix (angstroms):
                    1          2          3          4          5
     1  H    0.000000
     2  H    1.112138   0.000000
     3  H    1.112138   1.833085   0.000000
     4  H    1.259844   1.112138   1.112138   0.000000
     5  H    2.224277   2.820860   1.112138   1.833085   0.000000
     6  H    2.100302   2.224277   1.259844   1.112138   1.112138
     7  H    3.336415   3.876597   2.224277   2.820860   1.112138
     8  H    3.115931   3.336415   2.100302   2.224277   1.259844
     9  H    4.448553   4.957062   3.336415   3.876597   2.224277
    10  H    4.180968   4.448553   3.115931   3.336415   2.100302
                    6          7          8          9         10
     6  H    0.000000
     7  H    1.833085   0.000000
     8  H    1.112138   1.112138   0.000000
     9  H    2.820860   1.112138   1.833085   0.000000
    10  H    2.224277   1.259844   1.112138   1.112138   0.000000
 Stoichiometry    H10
 Framework group  C2H[SGH(H10)]
 Deg. of freedom     9
 Full point group                 C2H     NOp   4
 Largest Abelian subgroup         C2H     NOp   4
 Largest concise Abelian subgroup C2      NOp   2
                         Standard orientation:                         
 ---------------------------------------------------------------------
 Center     Atomic      Atomic             Coordinates (Angstroms)
 Number     Number       Type             X           Y           Z
 ---------------------------------------------------------------------
      1          1           0        2.076541   -0.241040    0.000000
      2          1           0        2.076541   -1.353179    0.000000
      3          1           0        1.038271    0.157514    0.000000
      4          1           0        1.038271   -0.954624    0.000000
      5          1           0        0.000000    0.556069    0.000000
      6          1           0        0.000000   -0.556069    0.000000
      7          1           0       -1.038271    0.954624    0.000000
      8          1           0       -1.038271   -0.157514    0.000000
      9          1           0       -2.076541    1.353179    0.000000
     10          1           0       -2.076541    0.241040    0.000000
 ---------------------------------------------------------------------
 Rotational constants (GHZ):    189.4127027     19.9134397     18.0190510
 General basis read from cards:  (5D, 7F)
 There are     5 symmetry adapted cartesian basis functions of AG  symmetry.
 There are     0 symmetry adapted cartesian basis functions of BG  symmetry.
 There are     0 symmetry adapted cartesian basis functions of AU  symmetry.
 There are     5 symmetry adapted cartesian basis functions of BU  symmetry.
 There are     5 symmetry adapted basis functions of AG  symmetry.
 There are     0 symmetry adapted basis functions of BG  symmetry.
 There are     0 symmetry adapted basis functions of AU  symmetry.
 There are     5 symmetry adapted basis functions of BU  symmetry.
    10 basis functions,   100 primitive gaussians,    10 cartesian basis functions
     5 alpha electrons        5 beta electrons
       nuclear repulsion energy        13.4849422832 Hartrees.
 NAtoms=   10 NActive=   10 NUniq=    5 SFac= 4.00D+00 NAtFMM=   60 NAOKFM=F Big=F
 Integral buffers will be    131072 words long.
 Regular integral format.
 Two-electron integral symmetry is turned off.
 One-electron integrals computed using PRISM.
 NBasis=    10 RedAO= T EigKep=  1.54D-01  NBF=     5     0     0     5
 NBsUse=    10 1.00D-06 EigRej= -1.00D+00 NBFU=     5     0     0     5
 IOp(28)                       1
                        1                       0
                        2                       1
                        3                       1
                        4                      20
                        5                       0
                        6                       0
                        7                      10
                        8                       1
                        9                       4
                       10                       0
                       11              1073741824
                       12                      20
                       13                       2
                       14                  131070
                       15                       1
                       16                       1
                       17                  131073
                       18                       0
                       19                       0
                       20                       0
                       21                       2
                       22                  131070
                       23                       0
                       24                       0
                       25                       0
                       26                       0
                       27                   65535
                       28                       2
                       29                  131072
                       30                       0
 IHMeth                       1
 ib3: ISMode =                        0                       4
 Enter DskPsm, NBasis=  10 NBas6D=  10 NShell=  10 IDoSP=4.
 Out2e will use a cutoff of  1.00D-10
 FoFCou: FMM=F IPFlag=           0 FMFlag=           0 FMFlg1=           0
         NFxFlg=           0 DoJE=F BraDBF=F KetDBF=F FulRan=T
         wScrn=  0.000000 ICntrl=     600 IOpCl=  9 I1Cent=           0 NGrid=           0
         NMat0=    0 NMatS0=      0 NMatT0=    0 NMatD0=    0 NMtDS0=    0 NMtDT0=    0
 Symmetry not used in FoFCou.
 Entering PrmDigJobTyp =                      20
 LenSav and NKeep                       0                       0
 Entered Stor2E with KNTT1,2                       2                  131070
 Leave Stor2X
 Entering PrmDigJobTyp =                      20
 LenSav and NKeep                       0                       0
 Entered Stor2E with KNTT1,2                       2                  131056
 Leave Stor2X
 Entering PrmDigJobTyp =                      20
 LenSav and NKeep                       0                       0
 Entered Stor2E with KNTT1,2                       2                  131042
 Leave Stor2X
 Entering PrmDigJobTyp =                      20
 LenSav and NKeep                       0                       0
 Entered Stor2E with KNTT1,2                       2                  131028
 Leave Stor2X
 Entering PrmDigJobTyp =                      20
 LenSav and NKeep                       0                       0
 Entered Stor2E with KNTT1,2                       2                  131014
 Leave Stor2X
 Entering PrmDigJobTyp =                      20
 LenSav and NKeep                       0                       0
 Entered Stor2E with KNTT1,2                       2                  131000
 Leave Stor2X
 Entering PrmDigJobTyp =                      20
 LenSav and NKeep                       0                       0
 Entered Stor2E with KNTT1,2                       2                  130986
 Leave Stor2X
 Entering PrmDigJobTyp =                      20
 LenSav and NKeep                       0                       0
 Entered Stor2E with KNTT1,2                       2                  130972
 Leave Stor2X
 Entering PrmDigJobTyp =                      20
 LenSav and NKeep                       0                       0
 Entered Stor2E with KNTT1,2                       2                  130960
 Leave Stor2X
 Entering PrmDigJobTyp =                      20
 LenSav and NKeep                       0                       0
 Entered Stor2E with KNTT1,2                       2                  130946
 Leave Stor2X
 Entering PrmDigJobTyp =                      20
 LenSav and NKeep                       0                       0
 Entered Stor2E with KNTT1,2                       2                  130932
 Leave Stor2X
 Entering PrmDigJobTyp =                      20
 LenSav and NKeep                       0                       0
 Entered Stor2E with KNTT1,2                       2                  130918
 Leave Stor2X
 Entering PrmDigJobTyp =                      20
 LenSav and NKeep                       0                       0
 Entered Stor2E with KNTT1,2                       2                  130904
 Leave Stor2X
 Entering PrmDigJobTyp =                      20
 LenSav and NKeep                       0                       0
 Entered Stor2E with KNTT1,2                       2                  130890
 Leave Stor2X
 Entering PrmDigJobTyp =                      20
 LenSav and NKeep                       0                       0
 Entered Stor2E with KNTT1,2                       2                  130876
 Leave Stor2X
 Entering PrmDigJobTyp =                      20
 LenSav and NKeep                       0                       0
 Entered Stor2E with KNTT1,2                       2                  130862
 Leave Stor2X
 Entering PrmDigJobTyp =                      20
 LenSav and NKeep                       0                       0
 Entered Stor2E with KNTT1,2                       2                  130848
 Leave Stor2X
 Entering PrmDigJobTyp =                      20
 LenSav and NKeep                       0                       0
 Entered Stor2E with KNTT1,2                       2                  130834
 Leave Stor2X
 Entering PrmDigJobTyp =                      20
 LenSav and NKeep                       0                       0
 Entered Stor2E with KNTT1,2                       2                  130820
 Leave Stor2X
 Entering PrmDigJobTyp =                      20
 LenSav and NKeep                       0                       0
 Entered Stor2E with KNTT1,2                       2                  130806
 Leave Stor2X
 Entering PrmDigJobTyp =                      20
 LenSav and NKeep                       0                       0
 Entered Stor2E with KNTT1,2                       2                  130792
 Leave Stor2X
 Entering PrmDigJobTyp =                      20
 LenSav and NKeep                       0                       0
 Entered Stor2E with KNTT1,2                       2                  130778
 Leave Stor2X
 Entering PrmDigJobTyp =                      20
 LenSav and NKeep                       0                       0
 Entered Stor2E with KNTT1,2                       2                  130764
 Leave Stor2X
 Entering PrmDigJobTyp =                      20
 LenSav and NKeep                       0                       0
 Entered Stor2E with KNTT1,2                       2                  130750
 Leave Stor2X
 Entering PrmDigJobTyp =                      20
 LenSav and NKeep                       0                       0
 Entered Stor2E with KNTT1,2                       2                  130736
 Leave Stor2X
 Entering PrmDigJobTyp =                      20
 LenSav and NKeep                       0                       0
 Entered Stor2E with KNTT1,2                       2                  130722
 Leave Stor2X
 Entering PrmDigJobTyp =                      20
 LenSav and NKeep                       0                       0
 Entered Stor2E with KNTT1,2                       2                  130708
 Leave Stor2X
 Entering PrmDigJobTyp =                      20
 LenSav and NKeep                       0                       0
 Entered Stor2E with KNTT1,2                       2                  130700
 Leave Stor2X
 Entering PrmDigJobTyp =                      20
 LenSav and NKeep                       0                       0
 Entered Stor2E with KNTT1,2                       6                  130684
 Leave Stor2X
 Entering PrmDigJobTyp =                      20
 LenSav and NKeep                       0                       0
 Entered Stor2E with KNTT1,2                      16                  130674
 Leave Stor2X
 Entering PrmDigJobTyp =                      20
 LenSav and NKeep                       0                       0
 Entered Stor2E with KNTT1,2                      28                  130666
 Leave Stor2X
 Entering PrmDigJobTyp =                      20
 LenSav and NKeep                       0                       0
 Entered Stor2E with KNTT1,2                      42                  130660
 Leave Stor2X
 Entering PrmDigJobTyp =                      20
 LenSav and NKeep                       0                       0
 Entered Stor2E with KNTT1,2                      56                  130654
 Leave Stor2X
 Entering PrmDigJobTyp =                      20
 LenSav and NKeep                       0                       0
 Entered Stor2E with KNTT1,2                      70                  130648
 Leave Stor2X
 Entering PrmDigJobTyp =                      20
 LenSav and NKeep                       0                       0
 Entered Stor2E with KNTT1,2                      84                  130642
 Leave Stor2X
 Entering PrmDigJobTyp =                      20
 LenSav and NKeep                       0                       0
 Entered Stor2E with KNTT1,2                      98                  130636
 Leave Stor2X
 Entering PrmDigJobTyp =                      20
 LenSav and NKeep                       0                       0
 Entered Stor2E with KNTT1,2                     114                  130632
 Leave Stor2X
 Entering PrmDigJobTyp =                      20
 LenSav and NKeep                       0                       0
 Entered Stor2E with KNTT1,2                     114                  130630
 Leave Stor2X
 Entering PrmDigJobTyp =                      20
 LenSav and NKeep                       0                       0
 Entered Stor2E with KNTT1,2                     114                  130614
 Leave Stor2X
 Entering PrmDigJobTyp =                      20
 LenSav and NKeep                       0                       0
 Entered Stor2E with KNTT1,2                     114                  130598
 Leave Stor2X
 Entering PrmDigJobTyp =                      20
 LenSav and NKeep                       0                       0
 Entered Stor2E with KNTT1,2                     114                  130582
 Leave Stor2X
 Entering PrmDigJobTyp =                      20
 LenSav and NKeep                       0                       0
 Entered Stor2E with KNTT1,2                     114                  130566
 Leave Stor2X
 Entering PrmDigJobTyp =                      20
 LenSav and NKeep                       0                       0
 Entered Stor2E with KNTT1,2                     114                  130550
 Leave Stor2X
 Entering PrmDigJobTyp =                      20
 LenSav and NKeep                       0                       0
 Entered Stor2E with KNTT1,2                     114                  130534
 Leave Stor2X
 Entering PrmDigJobTyp =                      20
 LenSav and NKeep                       0                       0
 Entered Stor2E with KNTT1,2                     114                  130518
 Leave Stor2X
 Entering PrmDigJobTyp =                      20
 LenSav and NKeep                       0                       0
 Entered Stor2E with KNTT1,2                     114                  130502
 Leave Stor2X
 Entering PrmDigJobTyp =                      20
 LenSav and NKeep                       0                       0
 Entered Stor2E with KNTT1,2                     114                  130490
 Leave Stor2X
 Entering PrmDigJobTyp =                      20
 LenSav and NKeep                       0                       0
 Entered Stor2E with KNTT1,2                     126                  130480
 Leave Stor2X
 Entering PrmDigJobTyp =                      20
 LenSav and NKeep                       0                       0
 Entered Stor2E with KNTT1,2                     136                  130468
 Leave Stor2X
 Entering PrmDigJobTyp =                      20
 LenSav and NKeep                       0                       0
 Entered Stor2E with KNTT1,2                     150                  130460
 Leave Stor2X
 Entering PrmDigJobTyp =                      20
 LenSav and NKeep                       0                       0
 Entered Stor2E with KNTT1,2                     170                  130458
 Leave Stor2X
 Entering PrmDigJobTyp =                      20
 LenSav and NKeep                       0                       0
 Entered Stor2E with KNTT1,2                     178                  130444
 Leave Stor2X
 Entering PrmDigJobTyp =                      20
 LenSav and NKeep                       0                       0
 Entered Stor2E with KNTT1,2                     190                  130434
 Leave Stor2X
 Entering PrmDigJobTyp =                      20
 LenSav and NKeep                       0                       0
 Entered Stor2E with KNTT1,2                     204                  130426
 Leave Stor2X
 Entering PrmDigJobTyp =                      20
 LenSav and NKeep                       0                       0
 Entered Stor2E with KNTT1,2                     218                  130418
 Leave Stor2X
 Entering PrmDigJobTyp =                      20
 LenSav and NKeep                       0                       0
 Entered Stor2E with KNTT1,2                     220                  130414
 Leave Stor2X
 Entering PrmDigJobTyp =                      20
 LenSav and NKeep                       0                       0
 Entered Stor2E with KNTT1,2                     234                  130402
 Leave Stor2X
 Entering PrmDigJobTyp =                      20
 LenSav and NKeep                       0                       0
 Entered Stor2E with KNTT1,2                     252                  130394
 Leave Stor2X
 Entering PrmDigJobTyp =                      20
 LenSav and NKeep                       0                       0
 Entered Stor2E with KNTT1,2                     254                  130392
 Leave Stor2X
 Entering PrmDigJobTyp =                      20
 LenSav and NKeep                       0                       0
 Entered Stor2E with KNTT1,2                     254                  130378
 Leave Stor2X
 Entering PrmDigJobTyp =                      20
 LenSav and NKeep                       0                       0
 Entered Stor2E with KNTT1,2                     254                  130364
 Leave Stor2X
 Entering PrmDigJobTyp =                      20
 LenSav and NKeep                       0                       0
 Entered Stor2E with KNTT1,2                     254                  130350
 Leave Stor2X
 Entering PrmDigJobTyp =                      20
 LenSav and NKeep                       0                       0
 Entered Stor2E with KNTT1,2                     254                  130336
 Leave Stor2X
 Entering PrmDigJobTyp =                      20
 LenSav and NKeep                       0                       0
 Entered Stor2E with KNTT1,2                     254                  130322
 Leave Stor2X
 Entering PrmDigJobTyp =                      20
 LenSav and NKeep                       0                       0
 Entered Stor2E with KNTT1,2                     254                  130312
 Leave Stor2X
 Entering PrmDigJobTyp =                      20
 LenSav and NKeep                       0                       0
 Entered Stor2E with KNTT1,2                     264                  130302
 Leave Stor2X
 Entering PrmDigJobTyp =                      20
 LenSav and NKeep                       0                       0
 Entered Stor2E with KNTT1,2                     274                  130292
 Leave Stor2X
 Entering PrmDigJobTyp =                      20
 LenSav and NKeep                       0                       0
 Entered Stor2E with KNTT1,2                     292                  130290
 Leave Stor2X
 Entering PrmDigJobTyp =                      20
 LenSav and NKeep                       0                       0
 Entered Stor2E with KNTT1,2                     300                  130278
 Leave Stor2X
 Entering PrmDigJobTyp =                      20
 LenSav and NKeep                       0                       0
 Entered Stor2E with KNTT1,2                     314                  130272
 Leave Stor2X
 Entering PrmDigJobTyp =                      20
 LenSav and NKeep                       0                       0
 Entered Stor2E with KNTT1,2                     314                  130268
 Leave Stor2X
 Entering PrmDigJobTyp =                      20
 LenSav and NKeep                       0                       0
 Entered Stor2E with KNTT1,2                     326                  130258
 Leave Stor2X
 Entering PrmDigJobTyp =                      20
 LenSav and NKeep                       0                       0
 Entered Stor2E with KNTT1,2                     338                  130248
 Leave Stor2X
 Entering PrmDigJobTyp =                      20
 LenSav and NKeep                       0                       0
 Entered Stor2E with KNTT1,2                     346                  130244
 Leave Stor2X
 Entering PrmDigJobTyp =                      20
 LenSav and NKeep                       0                       0
 Entered Stor2E with KNTT1,2                     358                  130236
 Leave Stor2X
 Entering PrmDigJobTyp =                      20
 LenSav and NKeep                       0                       0
 Entered Stor2E with KNTT1,2                     358                  130218
 Leave Stor2X
 Entering PrmDigJobTyp =                      20
 LenSav and NKeep                       0                       0
 Entered Stor2E with KNTT1,2                     358                  130200
 Leave Stor2X
 Entering PrmDigJobTyp =                      20
 LenSav and NKeep                       0                       0
 Entered Stor2E with KNTT1,2                     358                  130182
 Leave Stor2X
 Entering PrmDigJobTyp =                      20
 LenSav and NKeep                       0                       0
 Entered Stor2E with KNTT1,2                     358                  130164
 Leave Stor2X
 Entering PrmDigJobTyp =                      20
 LenSav and NKeep                       0                       0
 Entered Stor2E with KNTT1,2                     358                  130146
 Leave Stor2X
 Entering PrmDigJobTyp =                      20
 LenSav and NKeep                       0                       0
 Entered Stor2E with KNTT1,2                     358                  130128
 Leave Stor2X
 Entering PrmDigJobTyp =                      20
 LenSav and NKeep                       0                       0
 Entered Stor2E with KNTT1,2                     358                  130116
 Leave Stor2X
 Entering PrmDigJobTyp =                      20
 LenSav and NKeep                       0                       0
 Entered Stor2E with KNTT1,2                     370                  130106
 Leave Stor2X
 Entering PrmDigJobTyp =                      20
 LenSav and NKeep                       0                       0
 Entered Stor2E with KNTT1,2                     382                  130096
 Leave Stor2X
 Entering PrmDigJobTyp =                      20
 LenSav and NKeep                       0                       0
 Entered Stor2E with KNTT1,2                     398                  130090
 Leave Stor2X
 Entering PrmDigJobTyp =                      20
 LenSav and NKeep                       0                       0
 Entered Stor2E with KNTT1,2                     410                  130080
 Leave Stor2X
 Entering PrmDigJobTyp =                      20
 LenSav and NKeep                       0                       0
 Entered Stor2E with KNTT1,2                     424                  130072
 Leave Stor2X
 Entering PrmDigJobTyp =                      20
 LenSav and NKeep                       0                       0
 Entered Stor2E with KNTT1,2                     436                  130062
 Leave Stor2X
 Entering PrmDigJobTyp =                      20
 LenSav and NKeep                       0                       0
 Entered Stor2E with KNTT1,2                     450                  130054
 Leave Stor2X
 Entering PrmDigJobTyp =                      20
 LenSav and NKeep                       0                       0
 Entered Stor2E with KNTT1,2                     450                  130052
 Leave Stor2X
 Entering PrmDigJobTyp =                      20
 LenSav and NKeep                       0                       0
 Entered Stor2E with KNTT1,2                     464                  130040
 Leave Stor2X
 Entering PrmDigJobTyp =                      20
 LenSav and NKeep                       0                       0
 Entered Stor2E with KNTT1,2                     480                  130030
 Leave Stor2X
 Entering PrmDigJobTyp =                      20
 LenSav and NKeep                       0                       0
 Entered Stor2E with KNTT1,2                     494                  130018
 Leave Stor2X
 Entering PrmDigJobTyp =                      20
 LenSav and NKeep                       0                       0
 Entered Stor2E with KNTT1,2                     498                  130016
 Leave Stor2X
 Entering PrmDigJobTyp =                      20
 LenSav and NKeep                       0                       0
 Entered Stor2E with KNTT1,2                     512                  130006
 Leave Stor2X
 Entering PrmDigJobTyp =                      20
 LenSav and NKeep                       0                       0
 Entered Stor2E with KNTT1,2                     526                  129996
 Leave Stor2X
 Entering PrmDigJobTyp =                      20
 LenSav and NKeep                       0                       0
 Entered Stor2E with KNTT1,2                     544                  129986
 Leave Stor2X
 Entering PrmDigJobTyp =                      20
 LenSav and NKeep                       0                       0
 Entered Stor2E with KNTT1,2                     552                  129980
 Leave Stor2X
 Entering PrmDigJobTyp =                      20
 LenSav and NKeep                       0                       0
 Entered Stor2E with KNTT1,2                     552                  129960
 Leave Stor2X
 Entering PrmDigJobTyp =                      20
 LenSav and NKeep                       0                       0
 Entered Stor2E with KNTT1,2                     552                  129940
 Leave Stor2X
 Entering PrmDigJobTyp =                      20
 LenSav and NKeep                       0                       0
 Entered Stor2E with KNTT1,2                     552                  129920
 Leave Stor2X
 Entering PrmDigJobTyp =                      20
 LenSav and NKeep                       0                       0
 Entered Stor2E with KNTT1,2                     552                  129900
 Leave Stor2X
 Entering PrmDigJobTyp =                      20
 LenSav and NKeep                       0                       0
 Entered Stor2E with KNTT1,2                     552                  129880
 Leave Stor2X
 Entering PrmDigJobTyp =                      20
 LenSav and NKeep                       0                       0
 Entered Stor2E with KNTT1,2                     570                  129870
 Leave Stor2X
 Entering PrmDigJobTyp =                      20
 LenSav and NKeep                       0                       0
 Entered Stor2E with KNTT1,2                     582                  129854
 Leave Stor2X
 Entering PrmDigJobTyp =                      20
 LenSav and NKeep                       0                       0
 Entered Stor2E with KNTT1,2                     604                  129848
 Leave Stor2X
 Entering PrmDigJobTyp =                      20
 LenSav and NKeep                       0                       0
 Entered Stor2E with KNTT1,2                     618                  129834
 Leave Stor2X
 Entering PrmDigJobTyp =                      20
 LenSav and NKeep                       0                       0
 Entered Stor2E with KNTT1,2                     630                  129828
 Leave Stor2X
 Entering PrmDigJobTyp =                      20
 LenSav and NKeep                       0                       0
 Entered Stor2E with KNTT1,2                     652                  129818
 Leave Stor2X
 Entering PrmDigJobTyp =                      20
 LenSav and NKeep                       0                       0
 Entered Stor2E with KNTT1,2                     670                  129804
 Leave Stor2X
 Entering PrmDigJobTyp =                      20
 LenSav and NKeep                       0                       0
 Entered Stor2E with KNTT1,2                     672                  129800
 Leave Stor2X
 Entering PrmDigJobTyp =                      20
 LenSav and NKeep                       0                       0
 Entered Stor2E with KNTT1,2                     688                  129788
 Leave Stor2X
 Entering PrmDigJobTyp =                      20
 LenSav and NKeep                       0                       0
 Entered Stor2E with KNTT1,2                     696                  129784
 Leave Stor2X
 Entering PrmDigJobTyp =                      20
 LenSav and NKeep                       0                       0
 Entered Stor2E with KNTT1,2                     714                  129770
 Leave Stor2X
 Entering PrmDigJobTyp =                      20
 LenSav and NKeep                       0                       0
 Entered Stor2E with KNTT1,2                     732                  129760
 Leave Stor2X
 Entering PrmDigJobTyp =                      20
 LenSav and NKeep                       0                       0
 Entered Stor2E with KNTT1,2                     752                  129750
 Leave Stor2X
 Entering PrmDigJobTyp =                      20
 LenSav and NKeep                       0                       0
 Entered Stor2E with KNTT1,2                     752                  129728
 Leave Stor2X
 Entering PrmDigJobTyp =                      20
 LenSav and NKeep                       0                       0
 Entered Stor2E with KNTT1,2                     752                  129706
 Leave Stor2X
 Entering PrmDigJobTyp =                      20
 LenSav and NKeep                       0                       0
 Entered Stor2E with KNTT1,2                     752                  129684
 Leave Stor2X
 Entering PrmDigJobTyp =                      20
 LenSav and NKeep                       0                       0
 Entered Stor2E with KNTT1,2                     752                  129662
 Leave Stor2X
 Entering PrmDigJobTyp =                      20
 LenSav and NKeep                       0                       0
 Entered Stor2E with KNTT1,2                     752                  129640
 Leave Stor2X
 Entering PrmDigJobTyp =                      20
 LenSav and NKeep                       0                       0
 Entered Stor2E with KNTT1,2                     752                  129630
 Leave Stor2X
 Entering PrmDigJobTyp =                      20
 LenSav and NKeep                       0                       0
 Entered Stor2E with KNTT1,2                     768                  129618
 Leave Stor2X
 Entering PrmDigJobTyp =                      20
 LenSav and NKeep                       0                       0
 Entered Stor2E with KNTT1,2                     786                  129608
 Leave Stor2X
 Entering PrmDigJobTyp =                      20
 LenSav and NKeep                       0                       0
 Entered Stor2E with KNTT1,2                     804                  129598
 Leave Stor2X
 Entering PrmDigJobTyp =                      20
 LenSav and NKeep                       0                       0
 Entered Stor2E with KNTT1,2                     820                  129586
 Leave Stor2X
 Entering PrmDigJobTyp =                      20
 LenSav and NKeep                       0                       0
 Entered Stor2E with KNTT1,2                     838                  129576
 Leave Stor2X
 Entering PrmDigJobTyp =                      20
 LenSav and NKeep                       0                       0
 Entered Stor2E with KNTT1,2                     848                  129570
 Leave Stor2X
 Entering PrmDigJobTyp =                      20
 LenSav and NKeep                       0                       0
 Entered Stor2E with KNTT1,2                     872                  129560
 Leave Stor2X
 Entering PrmDigJobTyp =                      20
 LenSav and NKeep                       0                       0
 Entered Stor2E with KNTT1,2                     892                  129546
 Leave Stor2X
 Entering PrmDigJobTyp =                      20
 LenSav and NKeep                       0                       0
 Entered Stor2E with KNTT1,2                     904                  129542
 Leave Stor2X
 Entering PrmDigJobTyp =                      20
 LenSav and NKeep                       0                       0
 Entered Stor2E with KNTT1,2                     922                  129532
 Leave Stor2X
 Entering PrmDigJobTyp =                      20
 LenSav and NKeep                       0                       0
 Entered Stor2E with KNTT1,2                     936                  129526
 Leave Stor2X
 Entering PrmDigJobTyp =                      20
 LenSav and NKeep                       0                       0
 Entered Stor2E with KNTT1,2                     958                  129514
 Leave Stor2X
 Entering PrmDigJobTyp =                      20
 LenSav and NKeep                       0                       0
 Entered Stor2E with KNTT1,2                     982                  129504
 Leave Stor2X
 Entering PrmDigJobTyp =                      20
 LenSav and NKeep                       0                       0
 Entered Stor2E with KNTT1,2                     984                  129502
 Leave Stor2X
 Entering PrmDigJobTyp =                      20
 LenSav and NKeep                       0                       0
 Entered Stor2E with KNTT1,2                    1008                  129486
 Leave Stor2X
 Entering PrmDigJobTyp =                      20
 LenSav and NKeep                       0                       0
 Entered Stor2E with KNTT1,2                    1020                  129478
 Leave Stor2X
 Entering PrmDigJobTyp =                      20
 LenSav and NKeep                       0                       0
 Entered Stor2E with KNTT1,2                    1042                  129458
 Leave Stor2X
 Entering PrmDigJobTyp =                      20
 LenSav and NKeep                       0                       0
 Entered Stor2E with KNTT1,2                    1042                  129434
 Leave Stor2X
 Entering PrmDigJobTyp =                      20
 LenSav and NKeep                       0                       0
 Entered Stor2E with KNTT1,2                    1042                  129418
 Leave Stor2X
 Entering PrmDigJobTyp =                      20
 LenSav and NKeep                       0                       0
 Entered Stor2E with KNTT1,2                    1064                  129406
 Leave Stor2X
 Entering PrmDigJobTyp =                      20
 LenSav and NKeep                       0                       0
 Entered Stor2E with KNTT1,2                    1078                  129402
 Leave Stor2X
 Entering PrmDigJobTyp =                      20
 LenSav and NKeep                       0                       0
 Entered Stor2E with KNTT1,2                    1098                  129394
 Leave Stor2X
 Entering PrmDigJobTyp =                      20
 LenSav and NKeep                       0                       0
 Entered Stor2E with KNTT1,2                    1110                  129390
 Leave Stor2X
 Entering PrmDigJobTyp =                      20
 LenSav and NKeep                       0                       0
 Entered Stor2E with KNTT1,2                    1126                  129382
 Leave Stor2X
 Entering PrmDigJobTyp =                      20
 LenSav and NKeep                       0                       0
 Entered Stor2E with KNTT1,2                    1138                  129374
 Leave Stor2X
 Entering PrmDigJobTyp =                      20
 LenSav and NKeep                       0                       0
 Entered Stor2E with KNTT1,2                    1150                  129362
 Leave Stor2X
 Entering PrmDigJobTyp =                      20
 LenSav and NKeep                       0                       0
 Entered Stor2E with KNTT1,2                    1152                  129358
 Leave Stor2X
 Entering PrmDigJobTyp =                      20
 LenSav and NKeep                       0                       0
 Entered Stor2E with KNTT1,2                    1152                  129338
 Leave Stor2X
 Entering PrmDigJobTyp =                      20
 LenSav and NKeep                       0                       0
 Entered Stor2E with KNTT1,2                    1170                  129330
 Leave Stor2X
 Entering PrmDigJobTyp =                      20
 LenSav and NKeep                       0                       0
 Entered Stor2E with KNTT1,2                    1180                  129326
 Leave Stor2X
 Entering PrmDigJobTyp =                      20
 LenSav and NKeep                       0                       0
 Entered Stor2E with KNTT1,2                    1188                  129326
 Leave Stor2X
 Entering PrmDigJobTyp =                      20
 LenSav and NKeep                       0                       0
 Entered Stor2E with KNTT1,2                    1196                  129322
 Leave Stor2X
 Entering PrmDigJobTyp =                      20
 LenSav and NKeep                       0                       0
 Entered Stor2E with KNTT1,2                    1202                  129318
 Leave Stor2X
 Entering PrmDigJobTyp =                      20
 LenSav and NKeep                       0                       0
 Entered Stor2E with KNTT1,2                    1206                  129310
 Leave Stor2X
 Entering PrmDigJobTyp =                      20
 LenSav and NKeep                       0                       0
 Entered Stor2E with KNTT1,2                    1206                  129306
 Leave Stor2X
 Entering PrmDigJobTyp =                      20
 LenSav and NKeep                       0                       0
 Entered Stor2E with KNTT1,2                    1206                  129304
 Leave Stor2X
 Entering PrmDigJobTyp =                      20
 LenSav and NKeep                       0                       0
 Entered Stor2E with KNTT1,2                    1206                  129284
 Leave Stor2X
 Entering PrmDigJobTyp =                      20
 LenSav and NKeep                       0                       0
 Entered Stor2E with KNTT1,2                    1224                  129276
 Leave Stor2X
 Entering PrmDigJobTyp =                      20
 LenSav and NKeep                       0                       0
 Entered Stor2E with KNTT1,2                    1234                  129272
 Leave Stor2X
 Entering PrmDigJobTyp =                      20
 LenSav and NKeep                       0                       0
 Entered Stor2E with KNTT1,2                    1238                  129268
 Leave Stor2X
 Entering PrmDigJobTyp =                      20
 LenSav and NKeep                       0                       0
 Entered Stor2E with KNTT1,2                    1246                  129264
 Leave Stor2X
 Entering PrmDigJobTyp =                      20
 LenSav and NKeep                       0                       0
 Entered Stor2E with KNTT1,2                    1252                  129260
 Leave Stor2X
 Entering PrmDigJobTyp =                      20
 LenSav and NKeep                       0                       0
 Entered Stor2E with KNTT1,2                    1260                  129256
 Leave Stor2X
 Entering PrmDigJobTyp =                      20
 LenSav and NKeep                       0                       0
 Entered Stor2E with KNTT1,2                    1260                  129252
 Leave Stor2X
 Entering PrmDigJobTyp =                      20
 LenSav and NKeep                       0                       0
 Entered Stor2E with KNTT1,2                    1262                  129252
 Leave Stor2X
 In PrSumR
 Called IWRITE
         1540 integrals produced for a total of         1540.
 Initial guess from the checkpoint file:  "h10.chk"
 B after Tr=     0.000000    0.000000    0.000000
         Rot=    0.839753    0.000000    0.000000    0.542968 Ang=  65.77 deg.
 Initial guess <Sx>= 0.0000 <Sy>= 0.0000 <Sz>= 0.0000 <S**2>= 0.0000 S= 0.0000
 Two-electron integrals will be kept in memory, NGetB=      152788.
 Requested convergence on RMS density matrix=1.00D-08 within 128 cycles.
 Requested convergence on MAX density matrix=1.00D-06.
 Requested convergence on             energy=1.00D-06.
 No special actions if energy rises.
 Density File Not Found. Continue as usual
 SCF Done:  E(GHF) =  -4.86253757824     A.U. after   12 cycles
            NFock= 12  Conv=0.38D-08     -V/T= 1.9454
 <Sx>= 0.0000 <Sy>= 0.0000 <Sz>= 0.0000 <S**2>= 0.0000 S= 0.0000
 <L.S>= 0.000000000000E+00
 Range of M.O.s used for correlation:     1    10
 NBasis=    10 NAE=    10 NBE=     0 NFC=     0 NFV=     0
 NROrb=     20 NOA=    10 NOB=     0 NVA=    10 NVB=     0
 jaja DoHack is true or false? T
 jaja in hckghf.F, NBasis=                      10
 jaja in hckGHF/FixOG, LC =                      800
 jaja in hckGHF/FixOG, IRwC=                      548
 bfr conversion (real):
                 1             2             3             4             5 
      1a  0.655968D-01  0.769141D-01  0.224235D+00 -0.595494D-01  0.339464D+00
      1b  0.769141D-01 -0.655968D-01  0.595494D-01  0.224235D+00  0.116364D+00
      2a  0.368561D-01  0.432148D-01  0.165508D+00 -0.439534D-01  0.365232D+00
      2b  0.432148D-01 -0.368561D-01  0.439534D-01  0.165508D+00  0.125197D+00
      3a  0.139108D+00  0.163108D+00  0.223109D+00 -0.592505D-01 -0.128544D+00
      3b  0.163108D+00 -0.139108D+00  0.592505D-01  0.223109D+00 -0.440634D-01
      4a  0.128354D+00  0.150499D+00  0.279586D+00 -0.742487D-01  0.854278D-01
      4b  0.150499D+00 -0.128354D+00  0.742487D-01  0.279586D+00  0.292836D-01
      5a  0.136627D+00  0.160199D+00 -0.643180D-01  0.170807D-01 -0.313799D+00
      5b  0.160199D+00 -0.136627D+00 -0.170807D-01 -0.643180D-01 -0.107566D+00
      6a  0.136627D+00  0.160199D+00  0.643180D-01 -0.170807D-01 -0.313799D+00
      6b  0.160199D+00 -0.136627D+00  0.170807D-01  0.643180D-01 -0.107566D+00
      7a  0.128354D+00  0.150499D+00 -0.279586D+00  0.742487D-01  0.854278D-01
      7b  0.150499D+00 -0.128354D+00 -0.742487D-01 -0.279586D+00  0.292836D-01
      8a  0.139108D+00  0.163108D+00 -0.223109D+00  0.592505D-01 -0.128544D+00
      8b  0.163108D+00 -0.139108D+00 -0.592505D-01 -0.223109D+00 -0.440634D-01
      9a  0.368561D-01  0.432148D-01 -0.165508D+00  0.439534D-01  0.365232D+00
      9b  0.432148D-01 -0.368561D-01 -0.439534D-01 -0.165508D+00  0.125197D+00
     10a  0.655968D-01  0.769141D-01 -0.224235D+00  0.595494D-01  0.339464D+00
     10b  0.769141D-01 -0.655968D-01 -0.595494D-01 -0.224235D+00  0.116364D+00
                 6             7             8             9            10 
      1a -0.116364D+00  0.200985D+00 -0.340424D-02  0.320385D+00 -0.108740D-01
      1b  0.339464D+00  0.340424D-02  0.200985D+00  0.108740D-01  0.320385D+00
      2a -0.125197D+00 -0.133715D+00  0.226483D-02  0.555952D+00 -0.188692D-01
      2b  0.365232D+00 -0.226483D-02 -0.133715D+00  0.188692D-01  0.555952D+00
      3a  0.440634D-01  0.473025D+00 -0.801199D-02 -0.501737D+00  0.170291D-01
      3b -0.128544D+00  0.801199D-02  0.473025D+00 -0.170291D-01 -0.501737D+00
      4a -0.292836D-01 -0.348793D+00  0.590778D-02 -0.367240D+00  0.124643D-01
      4b  0.854278D-01 -0.590778D-02 -0.348793D+00 -0.124643D-01 -0.367240D+00
      5a  0.107566D+00  0.500610D+00 -0.847922D-02  0.272957D+00 -0.926425D-02
      5b -0.313799D+00  0.847922D-02  0.500610D+00  0.926425D-02  0.272957D+00
      6a  0.107566D+00 -0.500610D+00  0.847922D-02 -0.272957D+00  0.926425D-02
      6b -0.313799D+00 -0.847922D-02 -0.500610D+00 -0.926425D-02 -0.272957D+00
      7a -0.292836D-01  0.348793D+00 -0.590778D-02  0.367240D+00 -0.124643D-01
      7b  0.854278D-01  0.590778D-02  0.348793D+00  0.124643D-01  0.367240D+00
      8a  0.440634D-01 -0.473025D+00  0.801199D-02  0.501737D+00 -0.170291D-01
      8b -0.128544D+00 -0.801199D-02 -0.473025D+00  0.170291D-01  0.501737D+00
      9a -0.125197D+00  0.133715D+00 -0.226483D-02 -0.555952D+00  0.188692D-01
      9b  0.365232D+00  0.226483D-02  0.133715D+00 -0.188692D-01 -0.555952D+00
     10a -0.116364D+00 -0.200985D+00  0.340424D-02 -0.320385D+00  0.108740D-01
     10b  0.339464D+00 -0.340424D-02 -0.200985D+00 -0.108740D-01 -0.320385D+00
                11            12            13            14            15 
      1a  0.472738D+00 -0.287160D+00  0.687987D+00 -0.494480D+00  0.494675D-01
      1b  0.287160D+00  0.472738D+00  0.494480D+00  0.687987D+00  0.178279D-03
      2a -0.302810D+00  0.183939D+00 -0.429962D+00  0.309029D+00 -0.684827D+00
      2b -0.183939D+00 -0.302810D+00 -0.309029D+00 -0.429962D+00 -0.246810D-02
      3a  0.386840D+00 -0.234982D+00 -0.249612D+00  0.179405D+00  0.887777D-01
      3b  0.234982D+00  0.386840D+00 -0.179405D+00 -0.249612D+00  0.319952D-03
      4a -0.415570D+00  0.252434D+00 -0.198521D+00  0.142684D+00  0.965144D+00
      4b -0.252434D+00 -0.415570D+00 -0.142684D+00 -0.198521D+00  0.347835D-02
      5a -0.150608D+00  0.914855D-01 -0.447654D+00  0.321744D+00 -0.593252D+00
      5b -0.914855D-01 -0.150608D+00 -0.321744D+00 -0.447654D+00 -0.213806D-02
      6a -0.150608D+00  0.914855D-01  0.447654D+00 -0.321744D+00 -0.593252D+00
      6b -0.914855D-01 -0.150608D+00  0.321744D+00  0.447654D+00 -0.213806D-02
      7a -0.415570D+00  0.252434D+00  0.198521D+00 -0.142684D+00  0.965144D+00
      7b -0.252434D+00 -0.415570D+00  0.142684D+00  0.198521D+00  0.347835D-02
      8a  0.386840D+00 -0.234982D+00  0.249612D+00 -0.179405D+00  0.887777D-01
      8b  0.234982D+00  0.386840D+00  0.179405D+00  0.249612D+00  0.319952D-03
      9a -0.302810D+00  0.183939D+00  0.429962D+00 -0.309029D+00 -0.684827D+00
      9b -0.183939D+00 -0.302810D+00  0.309029D+00  0.429962D+00 -0.246810D-02
     10a  0.472738D+00 -0.287160D+00 -0.687987D+00  0.494480D+00  0.494675D-01
     10b  0.287160D+00  0.472738D+00 -0.494480D+00 -0.687987D+00  0.178279D-03
                16            17            18            19            20 
      1a -0.178279D-03 -0.862089D-01 -0.778445D+00  0.328514D+00  0.168383D-02
      1b  0.494675D-01 -0.778445D+00  0.862089D-01 -0.168383D-02  0.328514D+00
      2a  0.246810D-02  0.485148D-01  0.438076D+00 -0.566107D+00 -0.290163D-02
      2b -0.684827D+00  0.438076D+00 -0.485148D-01  0.290163D-02 -0.566107D+00
      3a -0.319952D-03  0.122534D+00  0.110645D+01 -0.776066D+00 -0.397779D-02
      3b  0.887777D-01  0.110645D+01 -0.122534D+00  0.397779D-02 -0.776066D+00
      4a -0.347835D-02 -0.126910D-01 -0.114596D+00  0.101490D+01  0.520197D-02
      4b  0.965144D+00 -0.114596D+00  0.126910D-01 -0.520197D-02  0.101490D+01
      5a  0.213806D-02 -0.731126D-01 -0.660189D+00  0.108480D+01  0.556022D-02
      5b -0.593252D+00 -0.660189D+00  0.731126D-01 -0.556022D-02  0.108480D+01
      6a  0.213806D-02 -0.731126D-01 -0.660189D+00 -0.108480D+01 -0.556022D-02
      6b -0.593252D+00 -0.660189D+00  0.731126D-01  0.556022D-02 -0.108480D+01
      7a -0.347835D-02 -0.126910D-01 -0.114596D+00 -0.101490D+01 -0.520197D-02
      7b  0.965144D+00 -0.114596D+00  0.126910D-01  0.520197D-02 -0.101490D+01
      8a -0.319952D-03  0.122534D+00  0.110645D+01  0.776066D+00  0.397779D-02
      8b  0.887777D-01  0.110645D+01 -0.122534D+00 -0.397779D-02  0.776066D+00
      9a  0.246810D-02  0.485148D-01  0.438076D+00  0.566107D+00  0.290163D-02
      9b -0.684827D+00  0.438076D+00 -0.485148D-01 -0.290163D-02  0.566107D+00
     10a -0.178279D-03 -0.862089D-01 -0.778445D+00 -0.328514D+00 -0.168383D-02
     10b  0.494675D-01 -0.778445D+00  0.862089D-01  0.168383D-02 -0.328514D+00
 bfr conversion (imaginary):
                 1             2             3             4             5 
      1a  0.000000D+00  0.000000D+00  0.000000D+00  0.000000D+00  0.000000D+00
      1b  0.000000D+00  0.000000D+00  0.000000D+00  0.000000D+00  0.000000D+00
      2a  0.000000D+00  0.000000D+00  0.000000D+00  0.000000D+00  0.000000D+00
      2b  0.000000D+00  0.000000D+00  0.000000D+00  0.000000D+00  0.000000D+00
      3a  0.000000D+00  0.000000D+00  0.000000D+00  0.000000D+00  0.000000D+00
      3b  0.000000D+00  0.000000D+00  0.000000D+00  0.000000D+00  0.000000D+00
      4a  0.000000D+00  0.000000D+00  0.000000D+00  0.000000D+00  0.000000D+00
      4b  0.000000D+00  0.000000D+00  0.000000D+00  0.000000D+00  0.000000D+00
      5a  0.000000D+00  0.000000D+00  0.000000D+00  0.000000D+00  0.000000D+00
      5b  0.000000D+00  0.000000D+00  0.000000D+00  0.000000D+00  0.000000D+00
      6a  0.000000D+00  0.000000D+00  0.000000D+00  0.000000D+00  0.000000D+00
      6b  0.000000D+00  0.000000D+00  0.000000D+00  0.000000D+00  0.000000D+00
      7a  0.000000D+00  0.000000D+00  0.000000D+00  0.000000D+00  0.000000D+00
      7b  0.000000D+00  0.000000D+00  0.000000D+00  0.000000D+00  0.000000D+00
      8a  0.000000D+00  0.000000D+00  0.000000D+00  0.000000D+00  0.000000D+00
      8b  0.000000D+00  0.000000D+00  0.000000D+00  0.000000D+00  0.000000D+00
      9a  0.000000D+00  0.000000D+00  0.000000D+00  0.000000D+00  0.000000D+00
      9b  0.000000D+00  0.000000D+00  0.000000D+00  0.000000D+00  0.000000D+00
     10a  0.000000D+00  0.000000D+00  0.000000D+00  0.000000D+00  0.000000D+00
     10b  0.000000D+00  0.000000D+00  0.000000D+00  0.000000D+00  0.000000D+00
                 6             7             8             9            10 
      1a  0.000000D+00  0.000000D+00  0.000000D+00  0.000000D+00  0.000000D+00
      1b  0.000000D+00  0.000000D+00  0.000000D+00  0.000000D+00  0.000000D+00
      2a  0.000000D+00  0.000000D+00  0.000000D+00  0.000000D+00  0.000000D+00
      2b  0.000000D+00  0.000000D+00  0.000000D+00  0.000000D+00  0.000000D+00
      3a  0.000000D+00  0.000000D+00  0.000000D+00  0.000000D+00  0.000000D+00
      3b  0.000000D+00  0.000000D+00  0.000000D+00  0.000000D+00  0.000000D+00
      4a  0.000000D+00  0.000000D+00  0.000000D+00  0.000000D+00  0.000000D+00
      4b  0.000000D+00  0.000000D+00  0.000000D+00  0.000000D+00  0.000000D+00
      5a  0.000000D+00  0.000000D+00  0.000000D+00  0.000000D+00  0.000000D+00
      5b  0.000000D+00  0.000000D+00  0.000000D+00  0.000000D+00  0.000000D+00
      6a  0.000000D+00  0.000000D+00  0.000000D+00  0.000000D+00  0.000000D+00
      6b  0.000000D+00  0.000000D+00  0.000000D+00  0.000000D+00  0.000000D+00
      7a  0.000000D+00  0.000000D+00  0.000000D+00  0.000000D+00  0.000000D+00
      7b  0.000000D+00  0.000000D+00  0.000000D+00  0.000000D+00  0.000000D+00
      8a  0.000000D+00  0.000000D+00  0.000000D+00  0.000000D+00  0.000000D+00
      8b  0.000000D+00  0.000000D+00  0.000000D+00  0.000000D+00  0.000000D+00
      9a  0.000000D+00  0.000000D+00  0.000000D+00  0.000000D+00  0.000000D+00
      9b  0.000000D+00  0.000000D+00  0.000000D+00  0.000000D+00  0.000000D+00
     10a  0.000000D+00  0.000000D+00  0.000000D+00  0.000000D+00  0.000000D+00
     10b  0.000000D+00  0.000000D+00  0.000000D+00  0.000000D+00  0.000000D+00
                11            12            13            14            15 
      1a  0.000000D+00  0.000000D+00  0.000000D+00  0.000000D+00  0.000000D+00
      1b  0.000000D+00  0.000000D+00  0.000000D+00  0.000000D+00  0.000000D+00
      2a  0.000000D+00  0.000000D+00  0.000000D+00  0.000000D+00  0.000000D+00
      2b  0.000000D+00  0.000000D+00  0.000000D+00  0.000000D+00  0.000000D+00
      3a  0.000000D+00  0.000000D+00  0.000000D+00  0.000000D+00  0.000000D+00
      3b  0.000000D+00  0.000000D+00  0.000000D+00  0.000000D+00  0.000000D+00
      4a  0.000000D+00  0.000000D+00  0.000000D+00  0.000000D+00  0.000000D+00
      4b  0.000000D+00  0.000000D+00  0.000000D+00  0.000000D+00  0.000000D+00
      5a  0.000000D+00  0.000000D+00  0.000000D+00  0.000000D+00  0.000000D+00
      5b  0.000000D+00  0.000000D+00  0.000000D+00  0.000000D+00  0.000000D+00
      6a  0.000000D+00  0.000000D+00  0.000000D+00  0.000000D+00  0.000000D+00
      6b  0.000000D+00  0.000000D+00  0.000000D+00  0.000000D+00  0.000000D+00
      7a  0.000000D+00  0.000000D+00  0.000000D+00  0.000000D+00  0.000000D+00
      7b  0.000000D+00  0.000000D+00  0.000000D+00  0.000000D+00  0.000000D+00
      8a  0.000000D+00  0.000000D+00  0.000000D+00  0.000000D+00  0.000000D+00
      8b  0.000000D+00  0.000000D+00  0.000000D+00  0.000000D+00  0.000000D+00
      9a  0.000000D+00  0.000000D+00  0.000000D+00  0.000000D+00  0.000000D+00
      9b  0.000000D+00  0.000000D+00  0.000000D+00  0.000000D+00  0.000000D+00
     10a  0.000000D+00  0.000000D+00  0.000000D+00  0.000000D+00  0.000000D+00
     10b  0.000000D+00  0.000000D+00  0.000000D+00  0.000000D+00  0.000000D+00
                16            17            18            19            20 
      1a  0.000000D+00  0.000000D+00  0.000000D+00  0.000000D+00  0.000000D+00
      1b  0.000000D+00  0.000000D+00  0.000000D+00  0.000000D+00  0.000000D+00
      2a  0.000000D+00  0.000000D+00  0.000000D+00  0.000000D+00  0.000000D+00
      2b  0.000000D+00  0.000000D+00  0.000000D+00  0.000000D+00  0.000000D+00
      3a  0.000000D+00  0.000000D+00  0.000000D+00  0.000000D+00  0.000000D+00
      3b  0.000000D+00  0.000000D+00  0.000000D+00  0.000000D+00  0.000000D+00
      4a  0.000000D+00  0.000000D+00  0.000000D+00  0.000000D+00  0.000000D+00
      4b  0.000000D+00  0.000000D+00  0.000000D+00  0.000000D+00  0.000000D+00
      5a  0.000000D+00  0.000000D+00  0.000000D+00  0.000000D+00  0.000000D+00
      5b  0.000000D+00  0.000000D+00  0.000000D+00  0.000000D+00  0.000000D+00
      6a  0.000000D+00  0.000000D+00  0.000000D+00  0.000000D+00  0.000000D+00
      6b  0.000000D+00  0.000000D+00  0.000000D+00  0.000000D+00  0.000000D+00
      7a  0.000000D+00  0.000000D+00  0.000000D+00  0.000000D+00  0.000000D+00
      7b  0.000000D+00  0.000000D+00  0.000000D+00  0.000000D+00  0.000000D+00
      8a  0.000000D+00  0.000000D+00  0.000000D+00  0.000000D+00  0.000000D+00
      8b  0.000000D+00  0.000000D+00  0.000000D+00  0.000000D+00  0.000000D+00
      9a  0.000000D+00  0.000000D+00  0.000000D+00  0.000000D+00  0.000000D+00
      9b  0.000000D+00  0.000000D+00  0.000000D+00  0.000000D+00  0.000000D+00
     10a  0.000000D+00  0.000000D+00  0.000000D+00  0.000000D+00  0.000000D+00
     10b  0.000000D+00  0.000000D+00  0.000000D+00  0.000000D+00  0.000000D+00
 afr conversion (alpha, real):
                 1             2             3             4             5 
      1   0.655968D-01  0.769141D-01  0.224235D+00 -0.595494D-01  0.339464D+00
      2   0.368561D-01  0.432148D-01  0.165508D+00 -0.439534D-01  0.365232D+00
      3   0.139108D+00  0.163108D+00  0.223109D+00 -0.592505D-01 -0.128544D+00
      4   0.128354D+00  0.150499D+00  0.279586D+00 -0.742487D-01  0.854278D-01
      5   0.136627D+00  0.160199D+00 -0.643180D-01  0.170807D-01 -0.313799D+00
      6   0.136627D+00  0.160199D+00  0.643180D-01 -0.170807D-01 -0.313799D+00
      7   0.128354D+00  0.150499D+00 -0.279586D+00  0.742487D-01  0.854278D-01
      8   0.139108D+00  0.163108D+00 -0.223109D+00  0.592505D-01 -0.128544D+00
      9   0.368561D-01  0.432148D-01 -0.165508D+00  0.439534D-01  0.365232D+00
     10   0.655968D-01  0.769141D-01 -0.224235D+00  0.595494D-01  0.339464D+00
                 6             7             8             9            10 
      1  -0.116364D+00  0.200985D+00 -0.340424D-02  0.320385D+00 -0.108740D-01
      2  -0.125197D+00 -0.133715D+00  0.226483D-02  0.555952D+00 -0.188692D-01
      3   0.440634D-01  0.473025D+00 -0.801199D-02 -0.501737D+00  0.170291D-01
      4  -0.292836D-01 -0.348793D+00  0.590778D-02 -0.367240D+00  0.124643D-01
      5   0.107566D+00  0.500610D+00 -0.847922D-02  0.272957D+00 -0.926425D-02
      6   0.107566D+00 -0.500610D+00  0.847922D-02 -0.272957D+00  0.926425D-02
      7  -0.292836D-01  0.348793D+00 -0.590778D-02  0.367240D+00 -0.124643D-01
      8   0.440634D-01 -0.473025D+00  0.801199D-02  0.501737D+00 -0.170291D-01
      9  -0.125197D+00  0.133715D+00 -0.226483D-02 -0.555952D+00  0.188692D-01
     10  -0.116364D+00 -0.200985D+00  0.340424D-02 -0.320385D+00  0.108740D-01
                11            12            13            14            15 
      1   0.472738D+00 -0.287160D+00  0.687987D+00 -0.494480D+00  0.494675D-01
      2  -0.302810D+00  0.183939D+00 -0.429962D+00  0.309029D+00 -0.684827D+00
      3   0.386840D+00 -0.234982D+00 -0.249612D+00  0.179405D+00  0.887777D-01
      4  -0.415570D+00  0.252434D+00 -0.198521D+00  0.142684D+00  0.965144D+00
      5  -0.150608D+00  0.914855D-01 -0.447654D+00  0.321744D+00 -0.593252D+00
      6  -0.150608D+00  0.914855D-01  0.447654D+00 -0.321744D+00 -0.593252D+00
      7  -0.415570D+00  0.252434D+00  0.198521D+00 -0.142684D+00  0.965144D+00
      8   0.386840D+00 -0.234982D+00  0.249612D+00 -0.179405D+00  0.887777D-01
      9  -0.302810D+00  0.183939D+00  0.429962D+00 -0.309029D+00 -0.684827D+00
     10   0.472738D+00 -0.287160D+00 -0.687987D+00  0.494480D+00  0.494675D-01
                16            17            18            19            20 
      1  -0.178279D-03 -0.862089D-01 -0.778445D+00  0.328514D+00  0.168383D-02
      2   0.246810D-02  0.485148D-01  0.438076D+00 -0.566107D+00 -0.290163D-02
      3  -0.319952D-03  0.122534D+00  0.110645D+01 -0.776066D+00 -0.397779D-02
      4  -0.347835D-02 -0.126910D-01 -0.114596D+00  0.101490D+01  0.520197D-02
      5   0.213806D-02 -0.731126D-01 -0.660189D+00  0.108480D+01  0.556022D-02
      6   0.213806D-02 -0.731126D-01 -0.660189D+00 -0.108480D+01 -0.556022D-02
      7  -0.347835D-02 -0.126910D-01 -0.114596D+00 -0.101490D+01 -0.520197D-02
      8  -0.319952D-03  0.122534D+00  0.110645D+01  0.776066D+00  0.397779D-02
      9   0.246810D-02  0.485148D-01  0.438076D+00  0.566107D+00  0.290163D-02
     10  -0.178279D-03 -0.862089D-01 -0.778445D+00 -0.328514D+00 -0.168383D-02
 afr conversion (alpha, imaginary):
                 1             2             3             4             5 
      1   0.000000D+00  0.000000D+00  0.000000D+00  0.000000D+00  0.000000D+00
      2   0.000000D+00  0.000000D+00  0.000000D+00  0.000000D+00  0.000000D+00
      3   0.000000D+00  0.000000D+00  0.000000D+00  0.000000D+00  0.000000D+00
      4   0.000000D+00  0.000000D+00  0.000000D+00  0.000000D+00  0.000000D+00
      5   0.000000D+00  0.000000D+00  0.000000D+00  0.000000D+00  0.000000D+00
      6   0.000000D+00  0.000000D+00  0.000000D+00  0.000000D+00  0.000000D+00
      7   0.000000D+00  0.000000D+00  0.000000D+00  0.000000D+00  0.000000D+00
      8   0.000000D+00  0.000000D+00  0.000000D+00  0.000000D+00  0.000000D+00
      9   0.000000D+00  0.000000D+00  0.000000D+00  0.000000D+00  0.000000D+00
     10   0.000000D+00  0.000000D+00  0.000000D+00  0.000000D+00  0.000000D+00
                 6             7             8             9            10 
      1   0.000000D+00  0.000000D+00  0.000000D+00  0.000000D+00  0.000000D+00
      2   0.000000D+00  0.000000D+00  0.000000D+00  0.000000D+00  0.000000D+00
      3   0.000000D+00  0.000000D+00  0.000000D+00  0.000000D+00  0.000000D+00
      4   0.000000D+00  0.000000D+00  0.000000D+00  0.000000D+00  0.000000D+00
      5   0.000000D+00  0.000000D+00  0.000000D+00  0.000000D+00  0.000000D+00
      6   0.000000D+00  0.000000D+00  0.000000D+00  0.000000D+00  0.000000D+00
      7   0.000000D+00  0.000000D+00  0.000000D+00  0.000000D+00  0.000000D+00
      8   0.000000D+00  0.000000D+00  0.000000D+00  0.000000D+00  0.000000D+00
      9   0.000000D+00  0.000000D+00  0.000000D+00  0.000000D+00  0.000000D+00
     10   0.000000D+00  0.000000D+00  0.000000D+00  0.000000D+00  0.000000D+00
                11            12            13            14            15 
      1   0.000000D+00  0.000000D+00  0.000000D+00  0.000000D+00  0.000000D+00
      2   0.000000D+00  0.000000D+00  0.000000D+00  0.000000D+00  0.000000D+00
      3   0.000000D+00  0.000000D+00  0.000000D+00  0.000000D+00  0.000000D+00
      4   0.000000D+00  0.000000D+00  0.000000D+00  0.000000D+00  0.000000D+00
      5   0.000000D+00  0.000000D+00  0.000000D+00  0.000000D+00  0.000000D+00
      6   0.000000D+00  0.000000D+00  0.000000D+00  0.000000D+00  0.000000D+00
      7   0.000000D+00  0.000000D+00  0.000000D+00  0.000000D+00  0.000000D+00
      8   0.000000D+00  0.000000D+00  0.000000D+00  0.000000D+00  0.000000D+00
      9   0.000000D+00  0.000000D+00  0.000000D+00  0.000000D+00  0.000000D+00
     10   0.000000D+00  0.000000D+00  0.000000D+00  0.000000D+00  0.000000D+00
                16            17            18            19            20 
      1   0.000000D+00  0.000000D+00  0.000000D+00  0.000000D+00  0.000000D+00
      2   0.000000D+00  0.000000D+00  0.000000D+00  0.000000D+00  0.000000D+00
      3   0.000000D+00  0.000000D+00  0.000000D+00  0.000000D+00  0.000000D+00
      4   0.000000D+00  0.000000D+00  0.000000D+00  0.000000D+00  0.000000D+00
      5   0.000000D+00  0.000000D+00  0.000000D+00  0.000000D+00  0.000000D+00
      6   0.000000D+00  0.000000D+00  0.000000D+00  0.000000D+00  0.000000D+00
      7   0.000000D+00  0.000000D+00  0.000000D+00  0.000000D+00  0.000000D+00
      8   0.000000D+00  0.000000D+00  0.000000D+00  0.000000D+00  0.000000D+00
      9   0.000000D+00  0.000000D+00  0.000000D+00  0.000000D+00  0.000000D+00
     10   0.000000D+00  0.000000D+00  0.000000D+00  0.000000D+00  0.000000D+00
 afr conversion (beta, real):
                 1             2             3             4             5 
      1   0.769141D-01 -0.655968D-01  0.595494D-01  0.224235D+00  0.116364D+00
      2   0.432148D-01 -0.368561D-01  0.439534D-01  0.165508D+00  0.125197D+00
      3   0.163108D+00 -0.139108D+00  0.592505D-01  0.223109D+00 -0.440634D-01
      4   0.150499D+00 -0.128354D+00  0.742487D-01  0.279586D+00  0.292836D-01
      5   0.160199D+00 -0.136627D+00 -0.170807D-01 -0.643180D-01 -0.107566D+00
      6   0.160199D+00 -0.136627D+00  0.170807D-01  0.643180D-01 -0.107566D+00
      7   0.150499D+00 -0.128354D+00 -0.742487D-01 -0.279586D+00  0.292836D-01
      8   0.163108D+00 -0.139108D+00 -0.592505D-01 -0.223109D+00 -0.440634D-01
      9   0.432148D-01 -0.368561D-01 -0.439534D-01 -0.165508D+00  0.125197D+00
     10   0.769141D-01 -0.655968D-01 -0.595494D-01 -0.224235D+00  0.116364D+00
                 6             7             8             9            10 
      1   0.339464D+00  0.340424D-02  0.200985D+00  0.108740D-01  0.320385D+00
      2   0.365232D+00 -0.226483D-02 -0.133715D+00  0.188692D-01  0.555952D+00
      3  -0.128544D+00  0.801199D-02  0.473025D+00 -0.170291D-01 -0.501737D+00
      4   0.854278D-01 -0.590778D-02 -0.348793D+00 -0.124643D-01 -0.367240D+00
      5  -0.313799D+00  0.847922D-02  0.500610D+00  0.926425D-02  0.272957D+00
      6  -0.313799D+00 -0.847922D-02 -0.500610D+00 -0.926425D-02 -0.272957D+00
      7   0.854278D-01  0.590778D-02  0.348793D+00  0.124643D-01  0.367240D+00
      8  -0.128544D+00 -0.801199D-02 -0.473025D+00  0.170291D-01  0.501737D+00
      9   0.365232D+00  0.226483D-02  0.133715D+00 -0.188692D-01 -0.555952D+00
     10   0.339464D+00 -0.340424D-02 -0.200985D+00 -0.108740D-01 -0.320385D+00
                11            12            13            14            15 
      1   0.287160D+00  0.472738D+00  0.494480D+00  0.687987D+00  0.178279D-03
      2  -0.183939D+00 -0.302810D+00 -0.309029D+00 -0.429962D+00 -0.246810D-02
      3   0.234982D+00  0.386840D+00 -0.179405D+00 -0.249612D+00  0.319952D-03
      4  -0.252434D+00 -0.415570D+00 -0.142684D+00 -0.198521D+00  0.347835D-02
      5  -0.914855D-01 -0.150608D+00 -0.321744D+00 -0.447654D+00 -0.213806D-02
      6  -0.914855D-01 -0.150608D+00  0.321744D+00  0.447654D+00 -0.213806D-02
      7  -0.252434D+00 -0.415570D+00  0.142684D+00  0.198521D+00  0.347835D-02
      8   0.234982D+00  0.386840D+00  0.179405D+00  0.249612D+00  0.319952D-03
      9  -0.183939D+00 -0.302810D+00  0.309029D+00  0.429962D+00 -0.246810D-02
     10   0.287160D+00  0.472738D+00 -0.494480D+00 -0.687987D+00  0.178279D-03
                16            17            18            19            20 
      1   0.494675D-01 -0.778445D+00  0.862089D-01 -0.168383D-02  0.328514D+00
      2  -0.684827D+00  0.438076D+00 -0.485148D-01  0.290163D-02 -0.566107D+00
      3   0.887777D-01  0.110645D+01 -0.122534D+00  0.397779D-02 -0.776066D+00
      4   0.965144D+00 -0.114596D+00  0.126910D-01 -0.520197D-02  0.101490D+01
      5  -0.593252D+00 -0.660189D+00  0.731126D-01 -0.556022D-02  0.108480D+01
      6  -0.593252D+00 -0.660189D+00  0.731126D-01  0.556022D-02 -0.108480D+01
      7   0.965144D+00 -0.114596D+00  0.126910D-01  0.520197D-02 -0.101490D+01
      8   0.887777D-01  0.110645D+01 -0.122534D+00 -0.397779D-02  0.776066D+00
      9  -0.684827D+00  0.438076D+00 -0.485148D-01 -0.290163D-02  0.566107D+00
     10   0.494675D-01 -0.778445D+00  0.862089D-01  0.168383D-02 -0.328514D+00
 afr conversion (beta, imaginary):
                 1             2             3             4             5 
      1   0.000000D+00  0.000000D+00  0.000000D+00  0.000000D+00  0.000000D+00
      2   0.000000D+00  0.000000D+00  0.000000D+00  0.000000D+00  0.000000D+00
      3   0.000000D+00  0.000000D+00  0.000000D+00  0.000000D+00  0.000000D+00
      4   0.000000D+00  0.000000D+00  0.000000D+00  0.000000D+00  0.000000D+00
      5   0.000000D+00  0.000000D+00  0.000000D+00  0.000000D+00  0.000000D+00
      6   0.000000D+00  0.000000D+00  0.000000D+00  0.000000D+00  0.000000D+00
      7   0.000000D+00  0.000000D+00  0.000000D+00  0.000000D+00  0.000000D+00
      8   0.000000D+00  0.000000D+00  0.000000D+00  0.000000D+00  0.000000D+00
      9   0.000000D+00  0.000000D+00  0.000000D+00  0.000000D+00  0.000000D+00
     10   0.000000D+00  0.000000D+00  0.000000D+00  0.000000D+00  0.000000D+00
                 6             7             8             9            10 
      1   0.000000D+00  0.000000D+00  0.000000D+00  0.000000D+00  0.000000D+00
      2   0.000000D+00  0.000000D+00  0.000000D+00  0.000000D+00  0.000000D+00
      3   0.000000D+00  0.000000D+00  0.000000D+00  0.000000D+00  0.000000D+00
      4   0.000000D+00  0.000000D+00  0.000000D+00  0.000000D+00  0.000000D+00
      5   0.000000D+00  0.000000D+00  0.000000D+00  0.000000D+00  0.000000D+00
      6   0.000000D+00  0.000000D+00  0.000000D+00  0.000000D+00  0.000000D+00
      7   0.000000D+00  0.000000D+00  0.000000D+00  0.000000D+00  0.000000D+00
      8   0.000000D+00  0.000000D+00  0.000000D+00  0.000000D+00  0.000000D+00
      9   0.000000D+00  0.000000D+00  0.000000D+00  0.000000D+00  0.000000D+00
     10   0.000000D+00  0.000000D+00  0.000000D+00  0.000000D+00  0.000000D+00
                11            12            13            14            15 
      1   0.000000D+00  0.000000D+00  0.000000D+00  0.000000D+00  0.000000D+00
      2   0.000000D+00  0.000000D+00  0.000000D+00  0.000000D+00  0.000000D+00
      3   0.000000D+00  0.000000D+00  0.000000D+00  0.000000D+00  0.000000D+00
      4   0.000000D+00  0.000000D+00  0.000000D+00  0.000000D+00  0.000000D+00
      5   0.000000D+00  0.000000D+00  0.000000D+00  0.000000D+00  0.000000D+00
      6   0.000000D+00  0.000000D+00  0.000000D+00  0.000000D+00  0.000000D+00
      7   0.000000D+00  0.000000D+00  0.000000D+00  0.000000D+00  0.000000D+00
      8   0.000000D+00  0.000000D+00  0.000000D+00  0.000000D+00  0.000000D+00
      9   0.000000D+00  0.000000D+00  0.000000D+00  0.000000D+00  0.000000D+00
     10   0.000000D+00  0.000000D+00  0.000000D+00  0.000000D+00  0.000000D+00
                16            17            18            19            20 
      1   0.000000D+00  0.000000D+00  0.000000D+00  0.000000D+00  0.000000D+00
      2   0.000000D+00  0.000000D+00  0.000000D+00  0.000000D+00  0.000000D+00
      3   0.000000D+00  0.000000D+00  0.000000D+00  0.000000D+00  0.000000D+00
      4   0.000000D+00  0.000000D+00  0.000000D+00  0.000000D+00  0.000000D+00
      5   0.000000D+00  0.000000D+00  0.000000D+00  0.000000D+00  0.000000D+00
      6   0.000000D+00  0.000000D+00  0.000000D+00  0.000000D+00  0.000000D+00
      7   0.000000D+00  0.000000D+00  0.000000D+00  0.000000D+00  0.000000D+00
      8   0.000000D+00  0.000000D+00  0.000000D+00  0.000000D+00  0.000000D+00
      9   0.000000D+00  0.000000D+00  0.000000D+00  0.000000D+00  0.000000D+00
     10   0.000000D+00  0.000000D+00  0.000000D+00  0.000000D+00  0.000000D+00
 jaja in hckghf.F, ISPECT =                     548
Spin block MO for GHF transformation
NOA =   10   NOB =   10
NVA =   10   NVB =   10
 NOAvA in Hack                     100
 jaja in tranN3.F, ISPECT =                     548
 in l802/tranN3.F, LSPECT =                      800
 NMat, NBtSiz,MDV                    8372                   16000
                133954722
 TranN3:  NGot= 134217728 NBasic=    263006 NTTT=       550 NMat=      8372.
 Defined bucket =                      51                   10000
 Defined bucket =                      52                   10000
 Defined bucket =                      53                   10000
 Defined bucket =                      55                   10000
 Defined bucket =                      57                   10000
 Defined bucket =                      58                   10000
 Defined bucket =                      60                   10000
 Defined bucket =                      72                   10000
 Defined bucket =                      73                   10000
 Defined bucket =                      74                   10000
 Defined bucket =                      75                   10000
 Defined bucket =                      76                   10000
 (IK/LS) integrals will be saved in memory.
 TrCghf made   2 passes through the AO integrals.
 jaja DoHack is true or false? F
 jaja in hckghf.F, NBasis=                      10
 jaja in hckGHF/FixOG, LC =                      800
 jaja in hckGHF/FixOG, IRwC=                      548
 bfr conversion (alpha, real):
                 1             2             3             4             5 
      1   0.655968D-01  0.769141D-01  0.224235D+00 -0.595494D-01  0.339464D+00
      2   0.368561D-01  0.432148D-01  0.165508D+00 -0.439534D-01  0.365232D+00
      3   0.139108D+00  0.163108D+00  0.223109D+00 -0.592505D-01 -0.128544D+00
      4   0.128354D+00  0.150499D+00  0.279586D+00 -0.742487D-01  0.854278D-01
      5   0.136627D+00  0.160199D+00 -0.643180D-01  0.170807D-01 -0.313799D+00
      6   0.136627D+00  0.160199D+00  0.643180D-01 -0.170807D-01 -0.313799D+00
      7   0.128354D+00  0.150499D+00 -0.279586D+00  0.742487D-01  0.854278D-01
      8   0.139108D+00  0.163108D+00 -0.223109D+00  0.592505D-01 -0.128544D+00
      9   0.368561D-01  0.432148D-01 -0.165508D+00  0.439534D-01  0.365232D+00
     10   0.655968D-01  0.769141D-01 -0.224235D+00  0.595494D-01  0.339464D+00
                 6             7             8             9            10 
      1  -0.116364D+00  0.200985D+00 -0.340424D-02  0.320385D+00 -0.108740D-01
      2  -0.125197D+00 -0.133715D+00  0.226483D-02  0.555952D+00 -0.188692D-01
      3   0.440634D-01  0.473025D+00 -0.801199D-02 -0.501737D+00  0.170291D-01
      4  -0.292836D-01 -0.348793D+00  0.590778D-02 -0.367240D+00  0.124643D-01
      5   0.107566D+00  0.500610D+00 -0.847922D-02  0.272957D+00 -0.926425D-02
      6   0.107566D+00 -0.500610D+00  0.847922D-02 -0.272957D+00  0.926425D-02
      7  -0.292836D-01  0.348793D+00 -0.590778D-02  0.367240D+00 -0.124643D-01
      8   0.440634D-01 -0.473025D+00  0.801199D-02  0.501737D+00 -0.170291D-01
      9  -0.125197D+00  0.133715D+00 -0.226483D-02 -0.555952D+00  0.188692D-01
     10  -0.116364D+00 -0.200985D+00  0.340424D-02 -0.320385D+00  0.108740D-01
                11            12            13            14            15 
      1   0.472738D+00 -0.287160D+00  0.687987D+00 -0.494480D+00  0.494675D-01
      2  -0.302810D+00  0.183939D+00 -0.429962D+00  0.309029D+00 -0.684827D+00
      3   0.386840D+00 -0.234982D+00 -0.249612D+00  0.179405D+00  0.887777D-01
      4  -0.415570D+00  0.252434D+00 -0.198521D+00  0.142684D+00  0.965144D+00
      5  -0.150608D+00  0.914855D-01 -0.447654D+00  0.321744D+00 -0.593252D+00
      6  -0.150608D+00  0.914855D-01  0.447654D+00 -0.321744D+00 -0.593252D+00
      7  -0.415570D+00  0.252434D+00  0.198521D+00 -0.142684D+00  0.965144D+00
      8   0.386840D+00 -0.234982D+00  0.249612D+00 -0.179405D+00  0.887777D-01
      9  -0.302810D+00  0.183939D+00  0.429962D+00 -0.309029D+00 -0.684827D+00
     10   0.472738D+00 -0.287160D+00 -0.687987D+00  0.494480D+00  0.494675D-01
[...]
      6b-0.526700D+00 -0.627856D-02 -0.330502D+00 -0.633431D+00 -0.183344D+01
      7a 0.121660D+01 -0.122170D+01  0.645834D+00 -0.201882D+00  0.172476D+01
      7b-0.994725D+00  0.936961D+00 -0.310696D+00  0.340709D+00 -0.167364D+01
      8a 0.144176D+01 -0.146449D+01  0.560324D+00 -0.326078D+00  0.249046D+01
      8b-0.133507D+01  0.913338D+00 -0.481945D+00  0.763972D-01 -0.268006D+01
      9a 0.705975D+00 -0.747002D+00  0.272579D+00 -0.359897D+00  0.773912D+00
      9b-0.826835D+00  0.121832D+01 -0.405368D+00  0.695376D+00 -0.548005D+00
     10a 0.730791D+00 -0.655693D+00  0.213588D+00 -0.234537D+00  0.105502D+01
     10b-0.679258D+00  0.922373D+00 -0.314370D+00  0.557725D+00 -0.525786D+00
                3b            4a            4b            5a            5b
      3b 0.200782D+01
      4a-0.206447D+01  0.314040D+01
      4b 0.219883D+01 -0.294982D+01  0.334665D+01
      5a-0.230115D+01  0.274081D+01 -0.266206D+01  0.357096D+01
      5b 0.225609D+01 -0.258674D+01  0.208140D+01 -0.321831D+01  0.380061D+01
      6a-0.184492D+01  0.258800D+01 -0.241584D+01  0.275507D+01 -0.250672D+01
      6b 0.182867D+01 -0.201509D+01  0.195733D+01 -0.227213D+01  0.248123D+01
      7a-0.168966D+01  0.209851D+01 -0.222613D+01  0.257903D+01 -0.204257D+01
      7b 0.748437D+00 -0.153897D+01  0.107539D+01 -0.164182D+01  0.165931D+01
      8a-0.187729D+01  0.266963D+01 -0.242172D+01  0.325191D+01 -0.293121D+01
      8b 0.147753D+01 -0.240570D+01  0.181859D+01 -0.291973D+01  0.313082D+01
      9a-0.392139D+00  0.991842D+00 -0.908956D+00  0.531158D+00 -0.452030D+00
      9b 0.240175D+00 -0.101777D+01  0.107758D+01 -0.625406D+00 -0.206782D+00
     10a-0.655201D+00  0.113111D+01 -0.948682D+00  0.858253D+00 -0.118325D+01
     10b 0.748138D-01 -0.721703D+00  0.677638D+00 -0.629014D+00  0.937326D-02
                6a            6b            7a            7b            8a
      6a 0.265004D+01
      6b-0.175328D+01  0.216700D+01
      7a 0.186129D+01 -0.154097D+01  0.241430D+01
      7b-0.146564D+01  0.739759D+00 -0.130239D+01  0.167174D+01
      8a 0.270131D+01 -0.183722D+01  0.261269D+01 -0.203695D+01  0.363577D+01
      8b-0.230041D+01  0.189701D+01 -0.217769D+01  0.215861D+01 -0.333180D+01
      9a 0.587975D+00 -0.312382D+00  0.852394D+00 -0.807535D+00  0.793476D+00
      9b-0.776221D+00 -0.164933D+00 -0.105334D+01  0.106091D+01 -0.100499D+01
     10a 0.804161D+00 -0.731252D+00  0.947787D+00 -0.799273D+00  0.116898D+01
     10b-0.639513D+00 -0.911768D-01 -0.823908D+00  0.948844D+00 -0.103352D+01
                8b            9a            9b           10a           10b
      8b 0.372320D+01
      9a-0.760873D+00  0.104950D+01
      9b 0.528880D+00 -0.113358D+01  0.229845D+01
     10a-0.129414D+01  0.808077D+00 -0.261377D+00  0.114697D+01
     10b 0.819187D+00 -0.664794D+00  0.154518D+01 -0.137299D+00  0.121295D+01
 jaja lower-tri density matrix (imaginary):
                1a            1b            2a            2b            3a
      1a 0.000000D+00
      1b 0.000000D+00  0.000000D+00
      2a 0.000000D+00  0.000000D+00  0.000000D+00
      2b 0.000000D+00  0.000000D+00  0.000000D+00  0.000000D+00
      3a 0.000000D+00  0.000000D+00  0.000000D+00  0.000000D+00  0.000000D+00
      3b 0.000000D+00  0.000000D+00  0.000000D+00  0.000000D+00  0.000000D+00
      4a 0.000000D+00  0.000000D+00  0.000000D+00  0.000000D+00  0.000000D+00
      4b 0.000000D+00  0.000000D+00  0.000000D+00  0.000000D+00  0.000000D+00
      5a 0.000000D+00  0.000000D+00  0.000000D+00  0.000000D+00  0.000000D+00
      5b 0.000000D+00  0.000000D+00  0.000000D+00  0.000000D+00  0.000000D+00
      6a 0.000000D+00  0.000000D+00  0.000000D+00  0.000000D+00  0.000000D+00
      6b 0.000000D+00  0.000000D+00  0.000000D+00  0.000000D+00  0.000000D+00
      7a 0.000000D+00  0.000000D+00  0.000000D+00  0.000000D+00  0.000000D+00
      7b 0.000000D+00  0.000000D+00  0.000000D+00  0.000000D+00  0.000000D+00
      8a 0.000000D+00  0.000000D+00  0.000000D+00  0.000000D+00  0.000000D+00
      8b 0.000000D+00  0.000000D+00  0.000000D+00  0.000000D+00  0.000000D+00
      9a 0.000000D+00  0.000000D+00  0.000000D+00  0.000000D+00  0.000000D+00
      9b 0.000000D+00  0.000000D+00  0.000000D+00  0.000000D+00  0.000000D+00
     10a 0.000000D+00  0.000000D+00  0.000000D+00  0.000000D+00  0.000000D+00
     10b 0.000000D+00  0.000000D+00  0.000000D+00  0.000000D+00  0.000000D+00
                3b            4a            4b            5a            5b
      3b 0.000000D+00
      4a 0.000000D+00  0.000000D+00
      4b 0.000000D+00  0.000000D+00  0.000000D+00
      5a 0.000000D+00  0.000000D+00  0.000000D+00  0.000000D+00
      5b 0.000000D+00  0.000000D+00  0.000000D+00  0.000000D+00  0.000000D+00
      6a 0.000000D+00  0.000000D+00  0.000000D+00  0.000000D+00  0.000000D+00
      6b 0.000000D+00  0.000000D+00  0.000000D+00  0.000000D+00  0.000000D+00
      7a 0.000000D+00  0.000000D+00  0.000000D+00  0.000000D+00  0.000000D+00
      7b 0.000000D+00  0.000000D+00  0.000000D+00  0.000000D+00  0.000000D+00
      8a 0.000000D+00  0.000000D+00  0.000000D+00  0.000000D+00  0.000000D+00
      8b 0.000000D+00  0.000000D+00  0.000000D+00  0.000000D+00  0.000000D+00
      9a 0.000000D+00  0.000000D+00  0.000000D+00  0.000000D+00  0.000000D+00
      9b 0.000000D+00  0.000000D+00  0.000000D+00  0.000000D+00  0.000000D+00
     10a 0.000000D+00  0.000000D+00  0.000000D+00  0.000000D+00  0.000000D+00
     10b 0.000000D+00  0.000000D+00  0.000000D+00  0.000000D+00  0.000000D+00
                6a            6b            7a            7b            8a
      6a 0.000000D+00
      6b 0.000000D+00  0.000000D+00
      7a 0.000000D+00  0.000000D+00  0.000000D+00
      7b 0.000000D+00  0.000000D+00  0.000000D+00  0.000000D+00
      8a 0.000000D+00  0.000000D+00  0.000000D+00  0.000000D+00  0.000000D+00
      8b 0.000000D+00  0.000000D+00  0.000000D+00  0.000000D+00  0.000000D+00
      9a 0.000000D+00  0.000000D+00  0.000000D+00  0.000000D+00  0.000000D+00
      9b 0.000000D+00  0.000000D+00  0.000000D+00  0.000000D+00  0.000000D+00
     10a 0.000000D+00  0.000000D+00  0.000000D+00  0.000000D+00  0.000000D+00
     10b 0.000000D+00  0.000000D+00  0.000000D+00  0.000000D+00  0.000000D+00
                8b            9a            9b           10a           10b
      8b 0.000000D+00
      9a 0.000000D+00  0.000000D+00
      9b 0.000000D+00  0.000000D+00  0.000000D+00
     10a 0.000000D+00  0.000000D+00  0.000000D+00  0.000000D+00
     10b 0.000000D+00  0.000000D+00  0.000000D+00  0.000000D+00  0.000000D+00
 jaja non-ortho density matrix               [Gau-style] (real):
                 1             2             3             4             5 
      1a  0.148550D+01 -0.163797D+01  0.689230D+00 -0.782224D+00  0.124681D+01
      1b -0.163797D+01  0.256954D+01 -0.378808D+00  0.157522D+01 -0.100371D+01
      2a  0.689230D+00 -0.378808D+00  0.869222D+00  0.760656D-01  0.150384D+00
      2b -0.782224D+00  0.157522D+01  0.760656D-01  0.125344D+01 -0.173018D+00
      3a  0.124681D+01 -0.100371D+01  0.150384D+00 -0.173018D+00  0.294656D+01
      3b -0.743093D+00  0.631721D+00 -0.417132D+00 -0.269893D+00 -0.160828D+01
      4a  0.156072D+01 -0.145467D+01  0.643924D+00 -0.256589D+00  0.264819D+01
      4b -0.147930D+01  0.178490D+01 -0.502389D+00  0.518774D+00 -0.220522D+01
      5a  0.117103D+01 -0.102702D+01  0.408559D+00  0.933118D-01  0.269081D+01
      5b -0.935279D+00  0.333390D+00 -0.370527D+00 -0.577711D+00 -0.276434D+01
      6a  0.981884D+00 -0.108094D+01  0.159026D+00 -0.157126D+00  0.239558D+01
      6b -0.526700D+00 -0.627856D-02 -0.330502D+00 -0.633431D+00 -0.183344D+01
      7a  0.121660D+01 -0.122170D+01  0.645834D+00 -0.201882D+00  0.172476D+01
      7b -0.994725D+00  0.936961D+00 -0.310696D+00  0.340709D+00 -0.167364D+01
      8a  0.144176D+01 -0.146449D+01  0.560324D+00 -0.326078D+00  0.249046D+01
      8b -0.133507D+01  0.913338D+00 -0.481945D+00  0.763972D-01 -0.268006D+01
      9a  0.705975D+00 -0.747002D+00  0.272579D+00 -0.359897D+00  0.773912D+00
      9b -0.826835D+00  0.121832D+01 -0.405368D+00  0.695376D+00 -0.548005D+00
     10a  0.730791D+00 -0.655693D+00  0.213588D+00 -0.234537D+00  0.105502D+01
     10b -0.679258D+00  0.922373D+00 -0.314370D+00  0.557725D+00 -0.525786D+00
                 6             7             8             9            10 
      1a -0.743093D+00  0.156072D+01 -0.147930D+01  0.117103D+01 -0.935279D+00
      1b  0.631721D+00 -0.145467D+01  0.178490D+01 -0.102702D+01  0.333390D+00
      2a -0.417132D+00  0.643924D+00 -0.502389D+00  0.408559D+00 -0.370527D+00
      2b -0.269893D+00 -0.256589D+00  0.518774D+00  0.933118D-01 -0.577711D+00
      3a -0.160828D+01  0.264819D+01 -0.220522D+01  0.269081D+01 -0.276434D+01
      3b  0.200782D+01 -0.206447D+01  0.219883D+01 -0.230115D+01  0.225609D+01
      4a -0.206447D+01  0.314040D+01 -0.294982D+01  0.274081D+01 -0.258674D+01
      4b  0.219883D+01 -0.294982D+01  0.334665D+01 -0.266206D+01  0.208140D+01
      5a -0.230115D+01  0.274081D+01 -0.266206D+01  0.357096D+01 -0.321831D+01
      5b  0.225609D+01 -0.258674D+01  0.208140D+01 -0.321831D+01  0.380061D+01
      6a -0.184492D+01  0.258800D+01 -0.241584D+01  0.275507D+01 -0.250672D+01
      6b  0.182867D+01 -0.201509D+01  0.195733D+01 -0.227213D+01  0.248123D+01
      7a -0.168966D+01  0.209851D+01 -0.222613D+01  0.257903D+01 -0.204257D+01
      7b  0.748437D+00 -0.153897D+01  0.107539D+01 -0.164182D+01  0.165931D+01
      8a -0.187729D+01  0.266963D+01 -0.242172D+01  0.325191D+01 -0.293121D+01
      8b  0.147753D+01 -0.240570D+01  0.181859D+01 -0.291973D+01  0.313082D+01
      9a -0.392139D+00  0.991842D+00 -0.908956D+00  0.531158D+00 -0.452030D+00
      9b  0.240175D+00 -0.101777D+01  0.107758D+01 -0.625406D+00 -0.206782D+00
     10a -0.655201D+00  0.113111D+01 -0.948682D+00  0.858253D+00 -0.118325D+01
     10b  0.748138D-01 -0.721703D+00  0.677638D+00 -0.629014D+00  0.937326D-02
                11            12            13            14            15 
      1a  0.981884D+00 -0.526700D+00  0.121660D+01 -0.994725D+00  0.144176D+01
      1b -0.108094D+01 -0.627856D-02 -0.122170D+01  0.936961D+00 -0.146449D+01
      2a  0.159026D+00 -0.330502D+00  0.645834D+00 -0.310696D+00  0.560324D+00
      2b -0.157126D+00 -0.633431D+00 -0.201882D+00  0.340709D+00 -0.326078D+00
      3a  0.239558D+01 -0.183344D+01  0.172476D+01 -0.167364D+01  0.249046D+01
      3b -0.184492D+01  0.182867D+01 -0.168966D+01  0.748437D+00 -0.187729D+01
      4a  0.258800D+01 -0.201509D+01  0.209851D+01 -0.153897D+01  0.266963D+01
      4b -0.241584D+01  0.195733D+01 -0.222613D+01  0.107539D+01 -0.242172D+01
      5a  0.275507D+01 -0.227213D+01  0.257903D+01 -0.164182D+01  0.325191D+01
      5b -0.250672D+01  0.248123D+01 -0.204257D+01  0.165931D+01 -0.293121D+01
      6a  0.265004D+01 -0.175328D+01  0.186129D+01 -0.146564D+01  0.270131D+01
      6b -0.175328D+01  0.216700D+01 -0.154097D+01  0.739759D+00 -0.183722D+01
      7a  0.186129D+01 -0.154097D+01  0.241430D+01 -0.130239D+01  0.261269D+01
      7b -0.146564D+01  0.739759D+00 -0.130239D+01  0.167174D+01 -0.203695D+01
      8a  0.270131D+01 -0.183722D+01  0.261269D+01 -0.203695D+01  0.363577D+01
      8b -0.230041D+01  0.189701D+01 -0.217769D+01  0.215861D+01 -0.333180D+01
      9a  0.587975D+00 -0.312382D+00  0.852394D+00 -0.807535D+00  0.793476D+00
      9b -0.776221D+00 -0.164933D+00 -0.105334D+01  0.106091D+01 -0.100499D+01
     10a  0.804161D+00 -0.731252D+00  0.947787D+00 -0.799273D+00  0.116898D+01
     10b -0.639513D+00 -0.911768D-01 -0.823908D+00  0.948844D+00 -0.103352D+01
                16            17            18            19            20 
      1a -0.133507D+01  0.705975D+00 -0.826835D+00  0.730791D+00 -0.679258D+00
      1b  0.913338D+00 -0.747002D+00  0.121832D+01 -0.655693D+00  0.922373D+00
      2a -0.481945D+00  0.272579D+00 -0.405368D+00  0.213588D+00 -0.314370D+00
      2b  0.763972D-01 -0.359897D+00  0.695376D+00 -0.234537D+00  0.557725D+00
      3a -0.268006D+01  0.773912D+00 -0.548005D+00  0.105502D+01 -0.525786D+00
      3b  0.147753D+01 -0.392139D+00  0.240175D+00 -0.655201D+00  0.748138D-01
      4a -0.240570D+01  0.991842D+00 -0.101777D+01  0.113111D+01 -0.721703D+00
      4b  0.181859D+01 -0.908956D+00  0.107758D+01 -0.948682D+00  0.677638D+00
      5a -0.291973D+01  0.531158D+00 -0.625406D+00  0.858253D+00 -0.629014D+00
      5b  0.313082D+01 -0.452030D+00 -0.206782D+00 -0.118325D+01  0.937326D-02
      6a -0.230041D+01  0.587975D+00 -0.776221D+00  0.804161D+00 -0.639513D+00
      6b  0.189701D+01 -0.312382D+00 -0.164933D+00 -0.731252D+00 -0.911768D-01
      7a -0.217769D+01  0.852394D+00 -0.105334D+01  0.947787D+00 -0.823908D+00
      7b  0.215861D+01 -0.807535D+00  0.106091D+01 -0.799273D+00  0.948844D+00
      8a -0.333180D+01  0.793476D+00 -0.100499D+01  0.116898D+01 -0.103352D+01
      8b  0.372320D+01 -0.760873D+00  0.528880D+00 -0.129414D+01  0.819187D+00
      9a -0.760873D+00  0.104950D+01 -0.113358D+01  0.808077D+00 -0.664794D+00
      9b  0.528880D+00 -0.113358D+01  0.229845D+01 -0.261377D+00  0.154518D+01
     10a -0.129414D+01  0.808077D+00 -0.261377D+00  0.114697D+01 -0.137299D+00
     10b  0.819187D+00 -0.664794D+00  0.154518D+01 -0.137299D+00  0.121295D+01
 jaja non-ortho density matrix               [Gau-style] (imaginary):
                 1             2             3             4             5 
      1a  0.000000D+00  0.000000D+00  0.000000D+00  0.000000D+00  0.000000D+00
      1b  0.000000D+00  0.000000D+00  0.000000D+00  0.000000D+00  0.000000D+00
      2a  0.000000D+00  0.000000D+00  0.000000D+00  0.000000D+00  0.000000D+00
      2b  0.000000D+00  0.000000D+00  0.000000D+00  0.000000D+00  0.000000D+00
      3a  0.000000D+00  0.000000D+00  0.000000D+00  0.000000D+00  0.000000D+00
      3b  0.000000D+00  0.000000D+00  0.000000D+00  0.000000D+00  0.000000D+00
      4a  0.000000D+00  0.000000D+00  0.000000D+00  0.000000D+00  0.000000D+00
      4b  0.000000D+00  0.000000D+00  0.000000D+00  0.000000D+00  0.000000D+00
      5a  0.000000D+00  0.000000D+00  0.000000D+00  0.000000D+00  0.000000D+00
      5b  0.000000D+00  0.000000D+00  0.000000D+00  0.000000D+00  0.000000D+00
      6a  0.000000D+00  0.000000D+00  0.000000D+00  0.000000D+00  0.000000D+00
      6b  0.000000D+00  0.000000D+00  0.000000D+00  0.000000D+00  0.000000D+00
      7a  0.000000D+00  0.000000D+00  0.000000D+00  0.000000D+00  0.000000D+00
      7b  0.000000D+00  0.000000D+00  0.000000D+00  0.000000D+00  0.000000D+00
      8a  0.000000D+00  0.000000D+00  0.000000D+00  0.000000D+00  0.000000D+00
      8b  0.000000D+00  0.000000D+00  0.000000D+00  0.000000D+00  0.000000D+00
      9a  0.000000D+00  0.000000D+00  0.000000D+00  0.000000D+00  0.000000D+00
      9b  0.000000D+00  0.000000D+00  0.000000D+00  0.000000D+00  0.000000D+00
     10a  0.000000D+00  0.000000D+00  0.000000D+00  0.000000D+00  0.000000D+00
     10b  0.000000D+00  0.000000D+00  0.000000D+00  0.000000D+00  0.000000D+00
                 6             7             8             9            10 
      1a  0.000000D+00  0.000000D+00  0.000000D+00  0.000000D+00  0.000000D+00
      1b  0.000000D+00  0.000000D+00  0.000000D+00  0.000000D+00  0.000000D+00
      2a  0.000000D+00  0.000000D+00  0.000000D+00  0.000000D+00  0.000000D+00
      2b  0.000000D+00  0.000000D+00  0.000000D+00  0.000000D+00  0.000000D+00
      3a  0.000000D+00  0.000000D+00  0.000000D+00  0.000000D+00  0.000000D+00
      3b  0.000000D+00  0.000000D+00  0.000000D+00  0.000000D+00  0.000000D+00
      4a  0.000000D+00  0.000000D+00  0.000000D+00  0.000000D+00  0.000000D+00
      4b  0.000000D+00  0.000000D+00  0.000000D+00  0.000000D+00  0.000000D+00
      5a  0.000000D+00  0.000000D+00  0.000000D+00  0.000000D+00  0.000000D+00
      5b  0.000000D+00  0.000000D+00  0.000000D+00  0.000000D+00  0.000000D+00
      6a  0.000000D+00  0.000000D+00  0.000000D+00  0.000000D+00  0.000000D+00
      6b  0.000000D+00  0.000000D+00  0.000000D+00  0.000000D+00  0.000000D+00
      7a  0.000000D+00  0.000000D+00  0.000000D+00  0.000000D+00  0.000000D+00
      7b  0.000000D+00  0.000000D+00  0.000000D+00  0.000000D+00  0.000000D+00
      8a  0.000000D+00  0.000000D+00  0.000000D+00  0.000000D+00  0.000000D+00
      8b  0.000000D+00  0.000000D+00  0.000000D+00  0.000000D+00  0.000000D+00
      9a  0.000000D+00  0.000000D+00  0.000000D+00  0.000000D+00  0.000000D+00
      9b  0.000000D+00  0.000000D+00  0.000000D+00  0.000000D+00  0.000000D+00
     10a  0.000000D+00  0.000000D+00  0.000000D+00  0.000000D+00  0.000000D+00
     10b  0.000000D+00  0.000000D+00  0.000000D+00  0.000000D+00  0.000000D+00
                11            12            13            14            15 
      1a  0.000000D+00  0.000000D+00  0.000000D+00  0.000000D+00  0.000000D+00
      1b  0.000000D+00  0.000000D+00  0.000000D+00  0.000000D+00  0.000000D+00
      2a  0.000000D+00  0.000000D+00  0.000000D+00  0.000000D+00  0.000000D+00
      2b  0.000000D+00  0.000000D+00  0.000000D+00  0.000000D+00  0.000000D+00
      3a  0.000000D+00  0.000000D+00  0.000000D+00  0.000000D+00  0.000000D+00
      3b  0.000000D+00  0.000000D+00  0.000000D+00  0.000000D+00  0.000000D+00
      4a  0.000000D+00  0.000000D+00  0.000000D+00  0.000000D+00  0.000000D+00
      4b  0.000000D+00  0.000000D+00  0.000000D+00  0.000000D+00  0.000000D+00
      5a  0.000000D+00  0.000000D+00  0.000000D+00  0.000000D+00  0.000000D+00
      5b  0.000000D+00  0.000000D+00  0.000000D+00  0.000000D+00  0.000000D+00
      6a  0.000000D+00  0.000000D+00  0.000000D+00  0.000000D+00  0.000000D+00
      6b  0.000000D+00  0.000000D+00  0.000000D+00  0.000000D+00  0.000000D+00
      7a  0.000000D+00  0.000000D+00  0.000000D+00  0.000000D+00  0.000000D+00
      7b  0.000000D+00  0.000000D+00  0.000000D+00  0.000000D+00  0.000000D+00
      8a  0.000000D+00  0.000000D+00  0.000000D+00  0.000000D+00  0.000000D+00
      8b  0.000000D+00  0.000000D+00  0.000000D+00  0.000000D+00  0.000000D+00
      9a  0.000000D+00  0.000000D+00  0.000000D+00  0.000000D+00  0.000000D+00
      9b  0.000000D+00  0.000000D+00  0.000000D+00  0.000000D+00  0.000000D+00
     10a  0.000000D+00  0.000000D+00  0.000000D+00  0.000000D+00  0.000000D+00
     10b  0.000000D+00  0.000000D+00  0.000000D+00  0.000000D+00  0.000000D+00
                16            17            18            19            20 
      1a  0.000000D+00  0.000000D+00  0.000000D+00  0.000000D+00  0.000000D+00
      1b  0.000000D+00  0.000000D+00  0.000000D+00  0.000000D+00  0.000000D+00
      2a  0.000000D+00  0.000000D+00  0.000000D+00  0.000000D+00  0.000000D+00
      2b  0.000000D+00  0.000000D+00  0.000000D+00  0.000000D+00  0.000000D+00
      3a  0.000000D+00  0.000000D+00  0.000000D+00  0.000000D+00  0.000000D+00
      3b  0.000000D+00  0.000000D+00  0.000000D+00  0.000000D+00  0.000000D+00
      4a  0.000000D+00  0.000000D+00  0.000000D+00  0.000000D+00  0.000000D+00
      4b  0.000000D+00  0.000000D+00  0.000000D+00  0.000000D+00  0.000000D+00
      5a  0.000000D+00  0.000000D+00  0.000000D+00  0.000000D+00  0.000000D+00
      5b  0.000000D+00  0.000000D+00  0.000000D+00  0.000000D+00  0.000000D+00
      6a  0.000000D+00  0.000000D+00  0.000000D+00  0.000000D+00  0.000000D+00
      6b  0.000000D+00  0.000000D+00  0.000000D+00  0.000000D+00  0.000000D+00
      7a  0.000000D+00  0.000000D+00  0.000000D+00  0.000000D+00  0.000000D+00
      7b  0.000000D+00  0.000000D+00  0.000000D+00  0.000000D+00  0.000000D+00
      8a  0.000000D+00  0.000000D+00  0.000000D+00  0.000000D+00  0.000000D+00
      8b  0.000000D+00  0.000000D+00  0.000000D+00  0.000000D+00  0.000000D+00
      9a  0.000000D+00  0.000000D+00  0.000000D+00  0.000000D+00  0.000000D+00
      9b  0.000000D+00  0.000000D+00  0.000000D+00  0.000000D+00  0.000000D+00
     10a  0.000000D+00  0.000000D+00  0.000000D+00  0.000000D+00  0.000000D+00
     10b  0.000000D+00  0.000000D+00  0.000000D+00  0.000000D+00  0.000000D+00
FORTRAN STOP
