 Entering Gaussian System, Link 0=gdv
 AtFile(1): H.gbs
            H     0
            S   10   1.00
               1000.000000000000            0.000068713567
                316.227766000000            0.000169141320
                100.000000000000            0.000823394812
                 31.622776600000            0.003425569236
                 10.000000000000            0.013951996000
                  3.162277660000            0.056909313560
                  1.000000000000            0.198286399900
                  0.316227766000            0.496922426700
                  0.100000000000            0.369846276400
                  0.031622776600            0.003752720039
            ****
 Initial command:
 /users/lcj1/GHF_hess/exe-dir/l1.exe "/users/lcj1/GHF_hess/h10_2rows/follow25/follow45/bck/Gau-15799.inp" -scrdir="/users/lcj1/GHF_hess/h10_2rows/follow25/follow45/bck/"
 Entering Link 1 = /users/lcj1/GHF_hess/exe-dir/l1.exe PID=     15800.
  
 Copyright (c) 1988,1990,1992,1993,1995,1998,2003,2009,2012,
            Gaussian, Inc.  All Rights Reserved.
  
 This is the private, development version of
 the Gaussian(R) DV system of programs. It is based on
 the Gaussian(R) 09 system (copyright 2009, Gaussian, Inc.),
 the Gaussian(R) 03 system (copyright 2003, Gaussian, Inc.),
 the Gaussian(R) 98 system (copyright 1998, Gaussian, Inc.),
 the Gaussian(R) 94 system (copyright 1995, Gaussian, Inc.),
 the Gaussian 92(TM) system (copyright 1992, Gaussian, Inc.),
 the Gaussian 90(TM) system (copyright 1990, Gaussian, Inc.),
 the Gaussian 88(TM) system (copyright 1988, Gaussian, Inc.),
 the Gaussian 86(TM) system (copyright 1986, Carnegie Mellon
 University), and the Gaussian 82(TM) system (copyright 1983,
 Carnegie Mellon University). Gaussian is a federally registered
 trademark of Gaussian, Inc.
  
 This software contains proprietary and confidential information,
 including trade secrets, belonging to Gaussian, Inc.
  
 This software is provided under written license and may be
 used, copied, transmitted, or stored only in accord with that
 written license.
  
 The following legend is applicable only to US Government
 contracts under FAR:
  
                    RESTRICTED RIGHTS LEGEND
  
 Use, reproduction and disclosure by the US Government is
 subject to restrictions as set forth in subparagraphs (a)
 and (c) of the Commercial Computer Software - Restricted
 Rights clause in FAR 52.227-19.
  
 Gaussian, Inc.
 340 Quinnipiac St., Bldg. 40, Wallingford CT 06492
  
  
 ---------------------------------------------------------------
 Warning -- This program may not be used in any manner that
 competes with the business of Gaussian, Inc. or will provide
 assistance to any competitor of Gaussian, Inc.  The licensee
 of this program is prohibited from giving any competitor of
 Gaussian, Inc. access to this program.  By using this program,
 the user acknowledges that Gaussian, Inc. is engaged in the
 business of creating and licensing software in the field of
 computational chemistry and represents and warrants to the
 licensee that it is not a competitor of Gaussian, Inc. and that
 it will not use this program in any manner prohibited above.
 ---------------------------------------------------------------
  

 Cite this work as:
 Gaussian Development Version, Revision H.21,
 M. J. Frisch, G. W. Trucks, H. B. Schlegel, G. E. Scuseria, 
 M. A. Robb, J. R. Cheeseman, G. Scalmani, V. Barone, B. Mennucci, 
 G. A. Petersson, H. Nakatsuji, M. Caricato, X. Li, H. P. Hratchian, 
 A. F. Izmaylov, J. Bloino, G. Zheng, J. L. Sonnenberg, W. Liang, 
 M. Hada, M. Ehara, K. Toyota, R. Fukuda, J. Hasegawa, M. Ishida, 
 T. Nakajima, Y. Honda, O. Kitao, H. Nakai, T. Vreven, 
 J. A. Montgomery, Jr., J. E. Peralta, F. Ogliaro, M. Bearpark, 
 J. J. Heyd, E. Brothers, K. N. Kudin, V. N. Staroverov, T. Keith, 
 R. Kobayashi, J. Normand, K. Raghavachari, A. Rendell, J. C. Burant, 
 S. S. Iyengar, J. Tomasi, M. Cossi, N. Rega, J. M. Millam, M. Klene, 
 J. E. Knox, J. B. Cross, V. Bakken, C. Adamo, J. Jaramillo, 
 R. Gomperts, R. E. Stratmann, O. Yazyev, A. J. Austin, R. Cammi, 
 C. Pomelli, J. W. Ochterski, R. L. Martin, K. Morokuma, 
 V. G. Zakrzewski, G. A. Voth, P. Salvador, J. J. Dannenberg, 
 S. Dapprich, P. V. Parandekar, N. J. Mayhall, A. D. Daniels, 
 O. Farkas, J. B. Foresman, J. V. Ortiz, J. Cioslowski, 
 and D. J. Fox, Gaussian, Inc., Wallingford CT, 2010.
 
 ******************************************
 Gaussian DV:  EM64L-GDVRevH.21 13-May-2012
                28-Feb-2017 
 ******************************************
 %chk=h10.chk
 ----------------------------------------------------------------------
 #ghf/gen scf(tight,novaracc,noincfock,fulldiag) stable guess=read geom
 =nocrowd use=l802 use=l902 test
 ----------------------------------------------------------------------
 ********************************************
   THE COMPLEX ERI TRANSFORMATION WITH L802  
        COMPLEX STABILITY WITH L902          
 ********************************************
 1/38=1/1;
 2/12=1,17=6,18=5,40=1/2;
 3/5=7,16=1,25=20,28=1,116=7/1,2,3,20;
 4/5=1/1;
 5/5=100001,16=1,32=2,38=6/2;
 8/6=1,10=90,11=11/1,2;
 9/8=4,13=1/1,2;
 6/7=2,8=2,9=2,10=2,28=1/1;
 99/5=1,9=1/99;
 ----------------------------------------------------------------------
 hf stability analysis of h10 triangular lattice, y= 0.3066389812720254
 9 alpha= 9.2500000000000000
 ----------------------------------------------------------------------
 Symbolic Z-Matrix:
 Charge =  0 Multiplicity = 1
 H
 H                    1     1.90764 
 H                    1     1.90764  2     161.5 
 H                    2     1.90764  1     18.5     3     0.       0
 H                    3     1.90764  1     180.     2     0.       0
 H                    4     1.90764  2     180.     1     0.       0
 H                    5     1.90764  3     180.     2     0.       0
 H                    6     1.90764  4     180.     1     0.       0
 H                    7     1.90764  5     180.     2     0.       0
 H                    8     1.90764  6     180.     1     0.       0
 
                          Input orientation:                          
 ---------------------------------------------------------------------
 Center     Atomic      Atomic             Coordinates (Angstroms)
 Number     Number       Type             X           Y           Z
 ---------------------------------------------------------------------
      1          1           0        0.000000    0.000000    0.000000
      2          1           0        0.000000    0.000000    1.907640
      3          1           0        0.605303    0.000000   -1.809060
      4          1           0        0.605303    0.000000    0.098580
      5          1           0        1.210606    0.000000   -3.618121
      6          1           0        1.210606    0.000000   -1.710480
      7          1           0        1.815909    0.000000   -5.427181
      8          1           0        1.815909    0.000000   -3.519541
      9          1           0        2.421212    0.000000   -7.236241
     10          1           0        2.421212    0.000000   -5.328601
 ---------------------------------------------------------------------
                    Distance matrix (angstroms):
                    1          2          3          4          5
     1  H    0.000000
     2  H    1.907640   0.000000
     3  H    1.907640   3.765668   0.000000
     4  H    0.613278   1.907640   1.907640   0.000000
     5  H    3.815280   5.656819   1.907640   3.765668   0.000000
     6  H    2.095545   3.815280   0.613278   1.907640   1.907640
     7  H    5.722920   7.556264   3.815280   5.656819   1.907640
     8  H    3.960391   5.722920   2.095545   3.815280   0.613278
     9  H    7.630561   9.459008   5.722920   7.556264   3.815280
    10  H    5.852885   7.630561   3.960391   5.722920   2.095545
                    6          7          8          9         10
     6  H    0.000000
     7  H    3.765668   0.000000
     8  H    1.907640   1.907640   0.000000
     9  H    5.656819   1.907640   3.765668   0.000000
    10  H    3.815280   0.613278   1.907640   1.907640   0.000000
 Stoichiometry    H10
 Framework group  C2H[SGH(H10)]
 Deg. of freedom     9
 Full point group                 C2H     NOp   4
 Largest Abelian subgroup         C2H     NOp   4
 Largest concise Abelian subgroup C2      NOp   2
                         Standard orientation:                         
 ---------------------------------------------------------------------
 Center     Atomic      Atomic             Coordinates (Angstroms)
 Number     Number       Type             X           Y           Z
 ---------------------------------------------------------------------
      1          1           0        1.210606   -2.664300    0.000000
      2          1           0        1.210606   -4.571941    0.000000
      3          1           0        0.605303   -0.855240    0.000000
      4          1           0        0.605303   -2.762880    0.000000
      5          1           0        0.000000    0.953820    0.000000
      6          1           0        0.000000   -0.953820    0.000000
      7          1           0       -0.605303    2.762880    0.000000
      8          1           0       -0.605303    0.855240    0.000000
      9          1           0       -1.210606    4.571941    0.000000
     10          1           0       -1.210606    2.664300    0.000000
 ---------------------------------------------------------------------
 Rotational constants (GHZ):    609.6973382      6.1864441      6.1243024
 General basis read from cards:  (5D, 7F)
 There are     5 symmetry adapted cartesian basis functions of AG  symmetry.
 There are     0 symmetry adapted cartesian basis functions of BG  symmetry.
 There are     0 symmetry adapted cartesian basis functions of AU  symmetry.
 There are     5 symmetry adapted cartesian basis functions of BU  symmetry.
 There are     5 symmetry adapted basis functions of AG  symmetry.
 There are     0 symmetry adapted basis functions of BG  symmetry.
 There are     0 symmetry adapted basis functions of AU  symmetry.
 There are     5 symmetry adapted basis functions of BU  symmetry.
    10 basis functions,   100 primitive gaussians,    10 cartesian basis functions
     5 alpha electrons        5 beta electrons
       nuclear repulsion energy        10.5523911259 Hartrees.
 NAtoms=   10 NActive=   10 NUniq=    5 SFac= 4.00D+00 NAtFMM=   60 NAOKFM=F Big=F
 Integral buffers will be    131072 words long.
 Regular integral format.
 Two-electron integral symmetry is turned off.
 One-electron integrals computed using PRISM.
 NBasis=    10 RedAO= T EigKep=  1.43D-01  NBF=     5     0     0     5
 NBsUse=    10 1.00D-06 EigRej= -1.00D+00 NBFU=     5     0     0     5
 IOp(28)                       1
                        1                       0
                        2                       1
                        3                       1
                        4                      20
                        5                       0
                        6                       0
                        7                      10
                        8                       1
                        9                       4
                       10                       0
                       11              1073741824
                       12                      20
                       13                       2
                       14                  131070
                       15                       1
                       16                       1
                       17                  131073
                       18                       0
                       19                       0
                       20                       0
                       21                       2
                       22                  131070
                       23                       0
                       24                       0
                       25                       0
                       26                       0
                       27                   65535
                       28                       2
                       29                  131072
                       30                       0
 IHMeth                       1
 ib3: ISMode =                        0                       4
 Enter DskPsm, NBasis=  10 NBas6D=  10 NShell=  10 IDoSP=4.
 Out2e will use a cutoff of  1.00D-10
 FoFCou: FMM=F IPFlag=           0 FMFlag=           0 FMFlg1=           0
         NFxFlg=           0 DoJE=F BraDBF=F KetDBF=F FulRan=T
         wScrn=  0.000000 ICntrl=     600 IOpCl=  9 I1Cent=           0 NGrid=           0
         NMat0=    0 NMatS0=      0 NMatT0=    0 NMatD0=    0 NMtDS0=    0 NMtDT0=    0
 Symmetry not used in FoFCou.
 Entering PrmDigJobTyp =                      20
 LenSav and NKeep                       0                       0
 Entered Stor2E with KNTT1,2                       2                  131070
 Leave Stor2X
 Entering PrmDigJobTyp =                      20
 LenSav and NKeep                       0                       0
 Entered Stor2E with KNTT1,2                       2                  131056
 Leave Stor2X
 Entering PrmDigJobTyp =                      20
 LenSav and NKeep                       0                       0
 Entered Stor2E with KNTT1,2                       2                  131042
 Leave Stor2X
 Entering PrmDigJobTyp =                      20
 LenSav and NKeep                       0                       0
 Entered Stor2E with KNTT1,2                       2                  131028
 Leave Stor2X
 Entering PrmDigJobTyp =                      20
 LenSav and NKeep                       0                       0
 Entered Stor2E with KNTT1,2                       2                  131014
 Leave Stor2X
 Entering PrmDigJobTyp =                      20
 LenSav and NKeep                       0                       0
 Entered Stor2E with KNTT1,2                       2                  131000
 Leave Stor2X
 Entering PrmDigJobTyp =                      20
 LenSav and NKeep                       0                       0
 Entered Stor2E with KNTT1,2                       2                  130986
 Leave Stor2X
 Entering PrmDigJobTyp =                      20
 LenSav and NKeep                       0                       0
 Entered Stor2E with KNTT1,2                       2                  130972
 Leave Stor2X
 Entering PrmDigJobTyp =                      20
 LenSav and NKeep                       0                       0
 Entered Stor2E with KNTT1,2                       2                  130960
 Leave Stor2X
 Entering PrmDigJobTyp =                      20
 LenSav and NKeep                       0                       0
 Entered Stor2E with KNTT1,2                       2                  130944
 Leave Stor2X
 Entering PrmDigJobTyp =                      20
 LenSav and NKeep                       0                       0
 Entered Stor2E with KNTT1,2                       2                  130928
 Leave Stor2X
 Entering PrmDigJobTyp =                      20
 LenSav and NKeep                       0                       0
 Entered Stor2E with KNTT1,2                       2                  130912
 Leave Stor2X
 Entering PrmDigJobTyp =                      20
 LenSav and NKeep                       0                       0
 Entered Stor2E with KNTT1,2                       2                  130896
 Leave Stor2X
 Entering PrmDigJobTyp =                      20
 LenSav and NKeep                       0                       0
 Entered Stor2E with KNTT1,2                       2                  130880
 Leave Stor2X
 Entering PrmDigJobTyp =                      20
 LenSav and NKeep                       0                       0
 Entered Stor2E with KNTT1,2                       2                  130864
 Leave Stor2X
 Entering PrmDigJobTyp =                      20
 LenSav and NKeep                       0                       0
 Entered Stor2E with KNTT1,2                       2                  130848
 Leave Stor2X
 Entering PrmDigJobTyp =                      20
 LenSav and NKeep                       0                       0
 Entered Stor2E with KNTT1,2                       2                  130832
 Leave Stor2X
 Entering PrmDigJobTyp =                      20
 LenSav and NKeep                       0                       0
 Entered Stor2E with KNTT1,2                       2                  130816
 Leave Stor2X
 Entering PrmDigJobTyp =                      20
 LenSav and NKeep                       0                       0
 Entered Stor2E with KNTT1,2                       2                  130800
 Leave Stor2X
 Entering PrmDigJobTyp =                      20
 LenSav and NKeep                       0                       0
 Entered Stor2E with KNTT1,2                       2                  130784
 Leave Stor2X
 Entering PrmDigJobTyp =                      20
 LenSav and NKeep                       0                       0
 Entered Stor2E with KNTT1,2                       2                  130768
 Leave Stor2X
 Entering PrmDigJobTyp =                      20
 LenSav and NKeep                       0                       0
 Entered Stor2E with KNTT1,2                       2                  130752
 Leave Stor2X
 Entering PrmDigJobTyp =                      20
 LenSav and NKeep                       0                       0
 Entered Stor2E with KNTT1,2                       2                  130736
 Leave Stor2X
 Entering PrmDigJobTyp =                      20
 LenSav and NKeep                       0                       0
 Entered Stor2E with KNTT1,2                       2                  130720
 Leave Stor2X
 Entering PrmDigJobTyp =                      20
 LenSav and NKeep                       0                       0
 Entered Stor2E with KNTT1,2                       2                  130704
 Leave Stor2X
 Entering PrmDigJobTyp =                      20
 LenSav and NKeep                       0                       0
 Entered Stor2E with KNTT1,2                       2                  130688
 Leave Stor2X
 Entering PrmDigJobTyp =                      20
 LenSav and NKeep                       0                       0
 Entered Stor2E with KNTT1,2                       2                  130672
 Leave Stor2X
 Entering PrmDigJobTyp =                      20
 LenSav and NKeep                       0                       0
 Entered Stor2E with KNTT1,2                       2                  130656
 Leave Stor2X
 Entering PrmDigJobTyp =                      20
 LenSav and NKeep                       0                       0
 Entered Stor2E with KNTT1,2                       2                  130640
 Leave Stor2X
 Entering PrmDigJobTyp =                      20
 LenSav and NKeep                       0                       0
 Entered Stor2E with KNTT1,2                      10                  130622
 Leave Stor2X
 Entering PrmDigJobTyp =                      20
 LenSav and NKeep                       0                       0
 Entered Stor2E with KNTT1,2                      22                  130608
 Leave Stor2X
 Entering PrmDigJobTyp =                      20
 LenSav and NKeep                       0                       0
 Entered Stor2E with KNTT1,2                      36                  130596
 Leave Stor2X
 Entering PrmDigJobTyp =                      20
 LenSav and NKeep                       0                       0
 Entered Stor2E with KNTT1,2                      50                  130584
 Leave Stor2X
 Entering PrmDigJobTyp =                      20
 LenSav and NKeep                       0                       0
 Entered Stor2E with KNTT1,2                      66                  130574
 Leave Stor2X
 Entering PrmDigJobTyp =                      20
 LenSav and NKeep                       0                       0
 Entered Stor2E with KNTT1,2                      82                  130564
 Leave Stor2X
 Entering PrmDigJobTyp =                      20
 LenSav and NKeep                       0                       0
 Entered Stor2E with KNTT1,2                     102                  130558
 Leave Stor2X
 Entering PrmDigJobTyp =                      20
 LenSav and NKeep                       0                       0
 Entered Stor2E with KNTT1,2                     122                  130552
 Leave Stor2X
 Entering PrmDigJobTyp =                      20
 LenSav and NKeep                       0                       0
 Entered Stor2E with KNTT1,2                     140                  130544
 Leave Stor2X
 Entering PrmDigJobTyp =                      20
 LenSav and NKeep                       0                       0
 Entered Stor2E with KNTT1,2                     162                  130540
 Leave Stor2X
 Entering PrmDigJobTyp =                      20
 LenSav and NKeep                       0                       0
 Entered Stor2E with KNTT1,2                     166                  130532
 Leave Stor2X
 Entering PrmDigJobTyp =                      20
 LenSav and NKeep                       0                       0
 Entered Stor2E with KNTT1,2                     166                  130510
 Leave Stor2X
 Entering PrmDigJobTyp =                      20
 LenSav and NKeep                       0                       0
 Entered Stor2E with KNTT1,2                     166                  130488
 Leave Stor2X
 Entering PrmDigJobTyp =                      20
 LenSav and NKeep                       0                       0
 Entered Stor2E with KNTT1,2                     166                  130466
 Leave Stor2X
 Entering PrmDigJobTyp =                      20
 LenSav and NKeep                       0                       0
 Entered Stor2E with KNTT1,2                     166                  130444
 Leave Stor2X
 Entering PrmDigJobTyp =                      20
 LenSav and NKeep                       0                       0
 Entered Stor2E with KNTT1,2                     166                  130422
 Leave Stor2X
 Entering PrmDigJobTyp =                      20
 LenSav and NKeep                       0                       0
 Entered Stor2E with KNTT1,2                     166                  130400
 Leave Stor2X
 Entering PrmDigJobTyp =                      20
 LenSav and NKeep                       0                       0
 Entered Stor2E with KNTT1,2                     166                  130378
 Leave Stor2X
 Entering PrmDigJobTyp =                      20
 LenSav and NKeep                       0                       0
 Entered Stor2E with KNTT1,2                     166                  130356
 Leave Stor2X
 Entering PrmDigJobTyp =                      20
 LenSav and NKeep                       0                       0
 Entered Stor2E with KNTT1,2                     166                  130334
 Leave Stor2X
 Entering PrmDigJobTyp =                      20
 LenSav and NKeep                       0                       0
 Entered Stor2E with KNTT1,2                     166                  130332
 Leave Stor2X
 Entering PrmDigJobTyp =                      20
 LenSav and NKeep                       0                       0
 Entered Stor2E with KNTT1,2                     186                  130318
 Leave Stor2X
 Entering PrmDigJobTyp =                      20
 LenSav and NKeep                       0                       0
 Entered Stor2E with KNTT1,2                     208                  130306
 Leave Stor2X
 Entering PrmDigJobTyp =                      20
 LenSav and NKeep                       0                       0
 Entered Stor2E with KNTT1,2                     224                  130288
 Leave Stor2X
 Entering PrmDigJobTyp =                      20
 LenSav and NKeep                       0                       0
 Entered Stor2E with KNTT1,2                     246                  130276
 Leave Stor2X
 Entering PrmDigJobTyp =                      20
 LenSav and NKeep                       0                       0
 Entered Stor2E with KNTT1,2                     270                  130266
 Leave Stor2X
 Entering PrmDigJobTyp =                      20
 LenSav and NKeep                       0                       0
 Entered Stor2E with KNTT1,2                     286                  130248
 Leave Stor2X
 Entering PrmDigJobTyp =                      20
 LenSav and NKeep                       0                       0
 Entered Stor2E with KNTT1,2                     308                  130236
 Leave Stor2X
 Entering PrmDigJobTyp =                      20
 LenSav and NKeep                       0                       0
 Entered Stor2E with KNTT1,2                     332                  130226
 Leave Stor2X
 Entering PrmDigJobTyp =                      20
 LenSav and NKeep                       0                       0
 Entered Stor2E with KNTT1,2                     348                  130208
 Leave Stor2X
 Entering PrmDigJobTyp =                      20
 LenSav and NKeep                       0                       0
 Entered Stor2E with KNTT1,2                     354                  130200
 Leave Stor2X
 Entering PrmDigJobTyp =                      20
 LenSav and NKeep                       0                       0
 Entered Stor2E with KNTT1,2                     374                  130178
 Leave Stor2X
 Entering PrmDigJobTyp =                      20
 LenSav and NKeep                       0                       0
 Entered Stor2E with KNTT1,2                     406                  130168
 Leave Stor2X
 Entering PrmDigJobTyp =                      20
 LenSav and NKeep                       0                       0
 Entered Stor2E with KNTT1,2                     420                  130156
 Leave Stor2X
 Entering PrmDigJobTyp =                      20
 LenSav and NKeep                       0                       0
 Entered Stor2E with KNTT1,2                     420                  130142
 Leave Stor2X
 Entering PrmDigJobTyp =                      20
 LenSav and NKeep                       0                       0
 Entered Stor2E with KNTT1,2                     420                  130128
 Leave Stor2X
 Entering PrmDigJobTyp =                      20
 LenSav and NKeep                       0                       0
 Entered Stor2E with KNTT1,2                     420                  130114
 Leave Stor2X
 Entering PrmDigJobTyp =                      20
 LenSav and NKeep                       0                       0
 Entered Stor2E with KNTT1,2                     420                  130100
 Leave Stor2X
 Entering PrmDigJobTyp =                      20
 LenSav and NKeep                       0                       0
 Entered Stor2E with KNTT1,2                     420                  130086
 Leave Stor2X
 Entering PrmDigJobTyp =                      20
 LenSav and NKeep                       0                       0
 Entered Stor2E with KNTT1,2                     420                  130076
 Leave Stor2X
 Entering PrmDigJobTyp =                      20
 LenSav and NKeep                       0                       0
 Entered Stor2E with KNTT1,2                     428                  130064
 Leave Stor2X
 Entering PrmDigJobTyp =                      20
 LenSav and NKeep                       0                       0
 Entered Stor2E with KNTT1,2                     444                  130060
 Leave Stor2X
 Entering PrmDigJobTyp =                      20
 LenSav and NKeep                       0                       0
 Entered Stor2E with KNTT1,2                     452                  130048
 Leave Stor2X
 Entering PrmDigJobTyp =                      20
 LenSav and NKeep                       0                       0
 Entered Stor2E with KNTT1,2                     468                  130044
 Leave Stor2X
 Entering PrmDigJobTyp =                      20
 LenSav and NKeep                       0                       0
 Entered Stor2E with KNTT1,2                     476                  130032
 Leave Stor2X
 Entering PrmDigJobTyp =                      20
 LenSav and NKeep                       0                       0
 Entered Stor2E with KNTT1,2                     492                  130028
 Leave Stor2X
 Entering PrmDigJobTyp =                      20
 LenSav and NKeep                       0                       0
 Entered Stor2E with KNTT1,2                     492                  130020
 Leave Stor2X
 Entering PrmDigJobTyp =                      20
 LenSav and NKeep                       0                       0
 Entered Stor2E with KNTT1,2                     510                  130012
 Leave Stor2X
 Entering PrmDigJobTyp =                      20
 LenSav and NKeep                       0                       0
 Entered Stor2E with KNTT1,2                     524                  130000
 Leave Stor2X
 Entering PrmDigJobTyp =                      20
 LenSav and NKeep                       0                       0
 Entered Stor2E with KNTT1,2                     540                  129990
 Leave Stor2X
 Entering PrmDigJobTyp =                      20
 LenSav and NKeep                       0                       0
 Entered Stor2E with KNTT1,2                     540                  129988
 Leave Stor2X
 Entering PrmDigJobTyp =                      20
 LenSav and NKeep                       0                       0
 Entered Stor2E with KNTT1,2                     550                  129982
 Leave Stor2X
 Entering PrmDigJobTyp =                      20
 LenSav and NKeep                       0                       0
 Entered Stor2E with KNTT1,2                     552                  129980
 Leave Stor2X
 Entering PrmDigJobTyp =                      20
 LenSav and NKeep                       0                       0
 Entered Stor2E with KNTT1,2                     552                  129952
 Leave Stor2X
 Entering PrmDigJobTyp =                      20
 LenSav and NKeep                       0                       0
 Entered Stor2E with KNTT1,2                     552                  129924
 Leave Stor2X
 Entering PrmDigJobTyp =                      20
 LenSav and NKeep                       0                       0
 Entered Stor2E with KNTT1,2                     552                  129896
 Leave Stor2X
 Entering PrmDigJobTyp =                      20
 LenSav and NKeep                       0                       0
 Entered Stor2E with KNTT1,2                     552                  129868
 Leave Stor2X
 Entering PrmDigJobTyp =                      20
 LenSav and NKeep                       0                       0
 Entered Stor2E with KNTT1,2                     552                  129840
 Leave Stor2X
 Entering PrmDigJobTyp =                      20
 LenSav and NKeep                       0                       0
 Entered Stor2E with KNTT1,2                     578                  129822
 Leave Stor2X
 Entering PrmDigJobTyp =                      20
 LenSav and NKeep                       0                       0
 Entered Stor2E with KNTT1,2                     606                  129806
 Leave Stor2X
 Entering PrmDigJobTyp =                      20
 LenSav and NKeep                       0                       0
 Entered Stor2E with KNTT1,2                     634                  129790
 Leave Stor2X
 Entering PrmDigJobTyp =                      20
 LenSav and NKeep                       0                       0
 Entered Stor2E with KNTT1,2                     662                  129774
 Leave Stor2X
 Entering PrmDigJobTyp =                      20
 LenSav and NKeep                       0                       0
 Entered Stor2E with KNTT1,2                     692                  129760
 Leave Stor2X
 Entering PrmDigJobTyp =                      20
 LenSav and NKeep                       0                       0
 Entered Stor2E with KNTT1,2                     692                  129756
 Leave Stor2X
 Entering PrmDigJobTyp =                      20
 LenSav and NKeep                       0                       0
 Entered Stor2E with KNTT1,2                     724                  129732
 Leave Stor2X
 Entering PrmDigJobTyp =                      20
 LenSav and NKeep                       0                       0
 Entered Stor2E with KNTT1,2                     760                  129712
 Leave Stor2X
 Entering PrmDigJobTyp =                      20
 LenSav and NKeep                       0                       0
 Entered Stor2E with KNTT1,2                     776                  129700
 Leave Stor2X
 Entering PrmDigJobTyp =                      20
 LenSav and NKeep                       0                       0
 Entered Stor2E with KNTT1,2                     798                  129688
 Leave Stor2X
 Entering PrmDigJobTyp =                      20
 LenSav and NKeep                       0                       0
 Entered Stor2E with KNTT1,2                     812                  129680
 Leave Stor2X
 Entering PrmDigJobTyp =                      20
 LenSav and NKeep                       0                       0
 Entered Stor2E with KNTT1,2                     846                  129658
 Leave Stor2X
 Entering PrmDigJobTyp =                      20
 LenSav and NKeep                       0                       0
 Entered Stor2E with KNTT1,2                     846                  129622
 Leave Stor2X
 Entering PrmDigJobTyp =                      20
 LenSav and NKeep                       0                       0
 Entered Stor2E with KNTT1,2                     846                  129618
 Leave Stor2X
 Entering PrmDigJobTyp =                      20
 LenSav and NKeep                       0                       0
 Entered Stor2E with KNTT1,2                     884                  129602
 Leave Stor2X
 Entering PrmDigJobTyp =                      20
 LenSav and NKeep                       0                       0
 Entered Stor2E with KNTT1,2                     890                  129598
 Leave Stor2X
 Entering PrmDigJobTyp =                      20
 LenSav and NKeep                       0                       0
 Entered Stor2E with KNTT1,2                     914                  129582
 Leave Stor2X
 Entering PrmDigJobTyp =                      20
 LenSav and NKeep                       0                       0
 Entered Stor2E with KNTT1,2                     926                  129578
 Leave Stor2X
 Entering PrmDigJobTyp =                      20
 LenSav and NKeep                       0                       0
 Entered Stor2E with KNTT1,2                     938                  129562
 Leave Stor2X
 Entering PrmDigJobTyp =                      20
 LenSav and NKeep                       0                       0
 Entered Stor2E with KNTT1,2                     940                  129558
 Leave Stor2X
 Entering PrmDigJobTyp =                      20
 LenSav and NKeep                       0                       0
 Entered Stor2E with KNTT1,2                     940                  129536
 Leave Stor2X
 Entering PrmDigJobTyp =                      20
 LenSav and NKeep                       0                       0
 Entered Stor2E with KNTT1,2                     940                  129518
 Leave Stor2X
 Entering PrmDigJobTyp =                      20
 LenSav and NKeep                       0                       0
 Entered Stor2E with KNTT1,2                     960                  129504
 Leave Stor2X
 Entering PrmDigJobTyp =                      20
 LenSav and NKeep                       0                       0
 Entered Stor2E with KNTT1,2                     976                  129490
 Leave Stor2X
 Entering PrmDigJobTyp =                      20
 LenSav and NKeep                       0                       0
 Entered Stor2E with KNTT1,2                    1004                  129478
 Leave Stor2X
 Entering PrmDigJobTyp =                      20
 LenSav and NKeep                       0                       0
 Entered Stor2E with KNTT1,2                    1012                  129470
 Leave Stor2X
 Entering PrmDigJobTyp =                      20
 LenSav and NKeep                       0                       0
 Entered Stor2E with KNTT1,2                    1032                  129462
 Leave Stor2X
 Entering PrmDigJobTyp =                      20
 LenSav and NKeep                       0                       0
 Entered Stor2E with KNTT1,2                    1040                  129462
 Leave Stor2X
 Entering PrmDigJobTyp =                      20
 LenSav and NKeep                       0                       0
 Entered Stor2E with KNTT1,2                    1042                  129458
 Leave Stor2X
 Entering PrmDigJobTyp =                      20
 LenSav and NKeep                       0                       0
 Entered Stor2E with KNTT1,2                    1042                  129420
 Leave Stor2X
 Entering PrmDigJobTyp =                      20
 LenSav and NKeep                       0                       0
 Entered Stor2E with KNTT1,2                    1042                  129418
 Leave Stor2X
 Entering PrmDigJobTyp =                      20
 LenSav and NKeep                       0                       0
 Entered Stor2E with KNTT1,2                    1086                  129404
 Leave Stor2X
 Entering PrmDigJobTyp =                      20
 LenSav and NKeep                       0                       0
 Entered Stor2E with KNTT1,2                    1086                  129398
 Leave Stor2X
 Entering PrmDigJobTyp =                      20
 LenSav and NKeep                       0                       0
 Entered Stor2E with KNTT1,2                    1114                  129386
 Leave Stor2X
 Entering PrmDigJobTyp =                      20
 LenSav and NKeep                       0                       0
 Entered Stor2E with KNTT1,2                    1126                  129382
 Leave Stor2X
 Entering PrmDigJobTyp =                      20
 LenSav and NKeep                       0                       0
 Entered Stor2E with KNTT1,2                    1142                  129370
 Leave Stor2X
 Entering PrmDigJobTyp =                      20
 LenSav and NKeep                       0                       0
 Entered Stor2E with KNTT1,2                    1146                  129366
 Leave Stor2X
 Entering PrmDigJobTyp =                      20
 LenSav and NKeep                       0                       0
 Entered Stor2E with KNTT1,2                    1150                  129362
 Leave Stor2X
 Entering PrmDigJobTyp =                      20
 LenSav and NKeep                       0                       0
 Entered Stor2E with KNTT1,2                    1152                  129358
 Leave Stor2X
 Entering PrmDigJobTyp =                      20
 LenSav and NKeep                       0                       0
 Entered Stor2E with KNTT1,2                    1152                  129338
 Leave Stor2X
 Entering PrmDigJobTyp =                      20
 LenSav and NKeep                       0                       0
 Entered Stor2E with KNTT1,2                    1176                  129330
 Leave Stor2X
 Entering PrmDigJobTyp =                      20
 LenSav and NKeep                       0                       0
 Entered Stor2E with KNTT1,2                    1188                  129322
 Leave Stor2X
 Entering PrmDigJobTyp =                      20
 LenSav and NKeep                       0                       0
 Entered Stor2E with KNTT1,2                    1196                  129322
 Leave Stor2X
 Entering PrmDigJobTyp =                      20
 LenSav and NKeep                       0                       0
 Entered Stor2E with KNTT1,2                    1202                  129314
 Leave Stor2X
 Entering PrmDigJobTyp =                      20
 LenSav and NKeep                       0                       0
 Entered Stor2E with KNTT1,2                    1202                  129314
 Leave Stor2X
 Entering PrmDigJobTyp =                      20
 LenSav and NKeep                       0                       0
 Entered Stor2E with KNTT1,2                    1206                  129314
 Leave Stor2X
 Entering PrmDigJobTyp =                      20
 LenSav and NKeep                       0                       0
 Entered Stor2E with KNTT1,2                    1206                  129314
 Leave Stor2X
 Entering PrmDigJobTyp =                      20
 LenSav and NKeep                       0                       0
 Entered Stor2E with KNTT1,2                    1206                  129294
 Leave Stor2X
 Entering PrmDigJobTyp =                      20
 LenSav and NKeep                       0                       0
 Entered Stor2E with KNTT1,2                    1226                  129282
 Leave Stor2X
 Entering PrmDigJobTyp =                      20
 LenSav and NKeep                       0                       0
 Entered Stor2E with KNTT1,2                    1242                  129278
 Leave Stor2X
 Entering PrmDigJobTyp =                      20
 LenSav and NKeep                       0                       0
 Entered Stor2E with KNTT1,2                    1246                  129274
 Leave Stor2X
 Entering PrmDigJobTyp =                      20
 LenSav and NKeep                       0                       0
 Entered Stor2E with KNTT1,2                    1256                  129270
 Leave Stor2X
 Entering PrmDigJobTyp =                      20
 LenSav and NKeep                       0                       0
 Entered Stor2E with KNTT1,2                    1260                  129270
 Leave Stor2X
 Entering PrmDigJobTyp =                      20
 LenSav and NKeep                       0                       0
 Entered Stor2E with KNTT1,2                    1260                  129266
 Leave Stor2X
 Entering PrmDigJobTyp =                      20
 LenSav and NKeep                       0                       0
 Entered Stor2E with KNTT1,2                    1260                  129262
 Leave Stor2X
 Entering PrmDigJobTyp =                      20
 LenSav and NKeep                       0                       0
 Entered Stor2E with KNTT1,2                    1262                  129262
 Leave Stor2X
 In PrSumR
 Called IWRITE
         1535 integrals produced for a total of         1535.
 Initial guess from the checkpoint file:  "h10.chk"
 B after Tr=     0.000000    0.000000    0.000000
         Rot=    0.527045    0.000000    0.000000    0.849837 Ang= 116.39 deg.
 Initial guess <Sx>= 0.0000 <Sy>= 0.0000 <Sz>= 0.0000 <S**2>= 0.0000 S= 0.0000
 Two-electron integrals will be kept in memory, NGetB=      152788.
 Requested convergence on RMS density matrix=1.00D-08 within 128 cycles.
 Requested convergence on MAX density matrix=1.00D-06.
 Requested convergence on             energy=1.00D-06.
 No special actions if energy rises.
 Density File Not Found. Continue as usual
 SCF Done:  E(GHF) =  -4.86543500570     A.U. after   12 cycles
            NFock= 12  Conv=0.11D-08     -V/T= 1.9999
 <Sx>= 0.0000 <Sy>= 0.0000 <Sz>= 0.0000 <S**2>= 0.0000 S= 0.0000
 <L.S>= 0.000000000000E+00
 Range of M.O.s used for correlation:     1    10
 NBasis=    10 NAE=    10 NBE=     0 NFC=     0 NFV=     0
 NROrb=     20 NOA=    10 NOB=     0 NVA=    10 NVB=     0

 **** Warning!!: The smallest alpha delta epsilon is  0.55769041D-01

 jaja DoHack is true or false? T
 jaja in hckghf.F, NBasis=                      10
 jaja in hckGHF/FixOG, LC =                      800
 jaja in hckGHF/FixOG, IRwC=                      548
 bfr conversion (real):
                 1             2             3             4             5 
      1a  0.955878D-02  0.161996D+00  0.202987D+00  0.210355D+00  0.788557D-02
      1b  0.161996D+00 -0.955878D-02  0.210355D+00 -0.202987D+00  0.340665D+00
      2a  0.184833D-03  0.313243D-02  0.620177D-02  0.642690D-02  0.549842D-03
      2b  0.313243D-02 -0.184833D-03  0.642690D-02 -0.620177D-02  0.237537D-01
      3a  0.155344D-01  0.263267D+00  0.127225D+00  0.131843D+00 -0.497819D-02
      3b  0.263267D+00 -0.155344D-01  0.131843D+00 -0.127225D+00 -0.215063D+00
      4a  0.967759D-02  0.164009D+00  0.205555D+00  0.213018D+00  0.793791D-02
      4b  0.164009D+00 -0.967759D-02  0.213018D+00 -0.205555D+00  0.342926D+00
      5a  0.155010D-01  0.262700D+00 -0.126421D+00 -0.131011D+00 -0.504243D-02
      5b  0.262700D+00 -0.155010D-01 -0.131011D+00  0.126421D+00 -0.217838D+00
      6a  0.155010D-01  0.262700D+00  0.126421D+00  0.131011D+00 -0.504243D-02
      6b  0.262700D+00 -0.155010D-01  0.131011D+00 -0.126421D+00 -0.217838D+00
      7a  0.967759D-02  0.164009D+00 -0.205555D+00 -0.213018D+00  0.793791D-02
      7b  0.164009D+00 -0.967759D-02 -0.213018D+00  0.205555D+00  0.342926D+00
      8a  0.155344D-01  0.263267D+00 -0.127225D+00 -0.131843D+00 -0.497819D-02
      8b  0.263267D+00 -0.155344D-01 -0.131843D+00  0.127225D+00 -0.215063D+00
      9a  0.184833D-03  0.313243D-02 -0.620177D-02 -0.642690D-02  0.549842D-03
      9b  0.313243D-02 -0.184833D-03 -0.642690D-02  0.620177D-02  0.237537D-01
     10a  0.955878D-02  0.161996D+00 -0.202987D+00 -0.210355D+00  0.788557D-02
     10b  0.161996D+00 -0.955878D-02 -0.210355D+00  0.202987D+00  0.340665D+00
                 6             7             8             9            10 
      1a  0.340665D+00 -0.108017D+00 -0.220476D+00 -0.110974D+00 -0.378154D-01
      1b -0.788557D-02 -0.220476D+00  0.108017D+00  0.378154D-01 -0.110974D+00
      2a  0.237537D-01 -0.104476D-01 -0.213248D-01  0.692903D+00  0.236113D+00
      2b -0.549842D-03 -0.213248D-01  0.104476D-01 -0.236113D+00  0.692903D+00
      3a -0.215063D+00  0.179468D+00  0.366316D+00  0.276163D-01  0.941050D-02
      3b  0.497819D-02  0.366316D+00 -0.179468D+00 -0.941050D-02  0.276163D-01
      4a  0.342926D+00 -0.106989D+00 -0.218377D+00 -0.107610D+00 -0.366691D-01
      4b -0.793791D-02 -0.218377D+00  0.106989D+00  0.366691D-01 -0.107610D+00
      5a -0.217838D+00 -0.178571D+00 -0.364485D+00 -0.377519D-01 -0.128643D-01
      5b  0.504243D-02 -0.364485D+00  0.178571D+00  0.128643D-01 -0.377519D-01
      6a -0.217838D+00  0.178571D+00  0.364485D+00  0.377519D-01  0.128643D-01
      6b  0.504243D-02  0.364485D+00 -0.178571D+00 -0.128643D-01  0.377519D-01
      7a  0.342926D+00  0.106989D+00  0.218377D+00  0.107610D+00  0.366691D-01
      7b -0.793791D-02  0.218377D+00 -0.106989D+00 -0.366691D-01  0.107610D+00
      8a -0.215063D+00 -0.179468D+00 -0.366316D+00 -0.276163D-01 -0.941050D-02
      8b  0.497819D-02 -0.366316D+00  0.179468D+00  0.941050D-02 -0.276163D-01
      9a  0.237537D-01  0.104476D-01  0.213248D-01 -0.692903D+00 -0.236113D+00
      9b -0.549842D-03  0.213248D-01 -0.104476D-01  0.236113D+00 -0.692903D+00
     10a  0.340665D+00  0.108017D+00  0.220476D+00  0.110974D+00  0.378154D-01
     10b -0.788557D-02  0.220476D+00 -0.108017D+00 -0.378154D-01  0.110974D+00
                11            12            13            14            15 
      1a -0.113859D+00  0.202264D-01  0.563473D+00 -0.345452D-01 -0.961802D+00
      1b -0.202264D-01 -0.113859D+00  0.345452D-01  0.563473D+00 -0.546803D-01
      2a  0.720579D+00 -0.128006D+00  0.897947D-02 -0.550510D-03 -0.765850D-02
      2b  0.128006D+00  0.720579D+00  0.550510D-03  0.897947D-02 -0.435400D-03
      3a  0.151757D-01 -0.269587D-02  0.885871D+00 -0.543107D-01 -0.591491D+00
      3b  0.269587D-02  0.151757D-01  0.543107D-01  0.885871D+00 -0.336274D-01
      4a -0.111529D+00  0.198125D-01 -0.590810D+00  0.362211D-01  0.988291D+00
      4b -0.198125D-01 -0.111529D+00 -0.362211D-01 -0.590810D+00  0.561862D-01
      5a  0.284023D-01 -0.504550D-02  0.890564D+00 -0.545983D-01  0.550376D+00
      5b  0.504550D-02  0.284023D-01  0.545983D-01  0.890564D+00  0.312899D-01
      6a  0.284023D-01 -0.504550D-02 -0.890564D+00  0.545983D-01  0.550376D+00
      6b  0.504550D-02  0.284023D-01 -0.545983D-01 -0.890564D+00  0.312899D-01
      7a -0.111529D+00  0.198125D-01  0.590810D+00 -0.362211D-01  0.988291D+00
      7b -0.198125D-01 -0.111529D+00  0.362211D-01  0.590810D+00  0.561862D-01
      8a  0.151757D-01 -0.269587D-02 -0.885871D+00  0.543107D-01 -0.591491D+00
      8b  0.269587D-02  0.151757D-01 -0.543107D-01 -0.885871D+00 -0.336274D-01
      9a  0.720579D+00 -0.128006D+00 -0.897947D-02  0.550510D-03 -0.765850D-02
      9b  0.128006D+00  0.720579D+00 -0.550510D-03 -0.897947D-02 -0.435400D-03
     10a -0.113859D+00  0.202264D-01 -0.563473D+00  0.345452D-01 -0.961802D+00
     10b -0.202264D-01 -0.113859D+00 -0.345452D-01 -0.563473D+00 -0.546803D-01
                16            17            18            19            20 
      1a  0.546803D-01  0.429381D-01  0.103599D+01 -0.687405D+00 -0.753184D-02
      1b -0.961802D+00  0.103599D+01 -0.429381D-01  0.753184D-02 -0.687405D+00
      2a  0.435400D-03 -0.105288D-03 -0.254035D-02  0.911771D-02  0.999020D-04
      2b -0.765850D-02 -0.254035D-02  0.105288D-03 -0.999020D-04  0.911771D-02
      3a  0.336274D-01 -0.264879D-01 -0.639090D+00  0.114627D+01  0.125595D-01
      3b -0.591491D+00 -0.639090D+00  0.264879D-01 -0.125595D-01  0.114627D+01
      4a -0.561862D-01 -0.426224D-01 -0.102838D+01  0.652136D+00  0.714540D-02
      4b  0.988291D+00 -0.102838D+01  0.426224D-01 -0.714540D-02  0.652136D+00
      5a -0.312899D-01 -0.288261D-01 -0.695507D+00 -0.113018D+01 -0.123833D-01
      5b  0.550376D+00 -0.695507D+00  0.288261D-01  0.123833D-01 -0.113018D+01
      6a -0.312899D-01  0.288261D-01  0.695507D+00 -0.113018D+01 -0.123833D-01
      6b  0.550376D+00  0.695507D+00 -0.288261D-01  0.123833D-01 -0.113018D+01
      7a -0.561862D-01  0.426224D-01  0.102838D+01  0.652136D+00  0.714540D-02
      7b  0.988291D+00  0.102838D+01 -0.426224D-01 -0.714540D-02  0.652136D+00
      8a  0.336274D-01  0.264879D-01  0.639090D+00  0.114627D+01  0.125595D-01
      8b -0.591491D+00  0.639090D+00 -0.264879D-01 -0.125595D-01  0.114627D+01
      9a  0.435400D-03  0.105288D-03  0.254035D-02  0.911771D-02  0.999020D-04
      9b -0.765850D-02  0.254035D-02 -0.105288D-03 -0.999020D-04  0.911771D-02
     10a  0.546803D-01 -0.429381D-01 -0.103599D+01 -0.687405D+00 -0.753184D-02
     10b -0.961802D+00 -0.103599D+01  0.429381D-01  0.753184D-02 -0.687405D+00
 bfr conversion (imaginary):
                 1             2             3             4             5 
      1a  0.000000D+00  0.000000D+00  0.000000D+00  0.000000D+00  0.000000D+00
      1b  0.000000D+00  0.000000D+00  0.000000D+00  0.000000D+00  0.000000D+00
      2a  0.000000D+00  0.000000D+00  0.000000D+00  0.000000D+00  0.000000D+00
      2b  0.000000D+00  0.000000D+00  0.000000D+00  0.000000D+00  0.000000D+00
      3a  0.000000D+00  0.000000D+00  0.000000D+00  0.000000D+00  0.000000D+00
      3b  0.000000D+00  0.000000D+00  0.000000D+00  0.000000D+00  0.000000D+00
      4a  0.000000D+00  0.000000D+00  0.000000D+00  0.000000D+00  0.000000D+00
      4b  0.000000D+00  0.000000D+00  0.000000D+00  0.000000D+00  0.000000D+00
      5a  0.000000D+00  0.000000D+00  0.000000D+00  0.000000D+00  0.000000D+00
      5b  0.000000D+00  0.000000D+00  0.000000D+00  0.000000D+00  0.000000D+00
      6a  0.000000D+00  0.000000D+00  0.000000D+00  0.000000D+00  0.000000D+00
      6b  0.000000D+00  0.000000D+00  0.000000D+00  0.000000D+00  0.000000D+00
      7a  0.000000D+00  0.000000D+00  0.000000D+00  0.000000D+00  0.000000D+00
      7b  0.000000D+00  0.000000D+00  0.000000D+00  0.000000D+00  0.000000D+00
      8a  0.000000D+00  0.000000D+00  0.000000D+00  0.000000D+00  0.000000D+00
      8b  0.000000D+00  0.000000D+00  0.000000D+00  0.000000D+00  0.000000D+00
      9a  0.000000D+00  0.000000D+00  0.000000D+00  0.000000D+00  0.000000D+00
      9b  0.000000D+00  0.000000D+00  0.000000D+00  0.000000D+00  0.000000D+00
     10a  0.000000D+00  0.000000D+00  0.000000D+00  0.000000D+00  0.000000D+00
     10b  0.000000D+00  0.000000D+00  0.000000D+00  0.000000D+00  0.000000D+00
                 6             7             8             9            10 
      1a  0.000000D+00  0.000000D+00  0.000000D+00  0.000000D+00  0.000000D+00
      1b  0.000000D+00  0.000000D+00  0.000000D+00  0.000000D+00  0.000000D+00
      2a  0.000000D+00  0.000000D+00  0.000000D+00  0.000000D+00  0.000000D+00
      2b  0.000000D+00  0.000000D+00  0.000000D+00  0.000000D+00  0.000000D+00
      3a  0.000000D+00  0.000000D+00  0.000000D+00  0.000000D+00  0.000000D+00
      3b  0.000000D+00  0.000000D+00  0.000000D+00  0.000000D+00  0.000000D+00
      4a  0.000000D+00  0.000000D+00  0.000000D+00  0.000000D+00  0.000000D+00
      4b  0.000000D+00  0.000000D+00  0.000000D+00  0.000000D+00  0.000000D+00
      5a  0.000000D+00  0.000000D+00  0.000000D+00  0.000000D+00  0.000000D+00
      5b  0.000000D+00  0.000000D+00  0.000000D+00  0.000000D+00  0.000000D+00
      6a  0.000000D+00  0.000000D+00  0.000000D+00  0.000000D+00  0.000000D+00
      6b  0.000000D+00  0.000000D+00  0.000000D+00  0.000000D+00  0.000000D+00
      7a  0.000000D+00  0.000000D+00  0.000000D+00  0.000000D+00  0.000000D+00
      7b  0.000000D+00  0.000000D+00  0.000000D+00  0.000000D+00  0.000000D+00
      8a  0.000000D+00  0.000000D+00  0.000000D+00  0.000000D+00  0.000000D+00
      8b  0.000000D+00  0.000000D+00  0.000000D+00  0.000000D+00  0.000000D+00
      9a  0.000000D+00  0.000000D+00  0.000000D+00  0.000000D+00  0.000000D+00
      9b  0.000000D+00  0.000000D+00  0.000000D+00  0.000000D+00  0.000000D+00
     10a  0.000000D+00  0.000000D+00  0.000000D+00  0.000000D+00  0.000000D+00
     10b  0.000000D+00  0.000000D+00  0.000000D+00  0.000000D+00  0.000000D+00
                11            12            13            14            15 
      1a  0.000000D+00  0.000000D+00  0.000000D+00  0.000000D+00  0.000000D+00
      1b  0.000000D+00  0.000000D+00  0.000000D+00  0.000000D+00  0.000000D+00
      2a  0.000000D+00  0.000000D+00  0.000000D+00  0.000000D+00  0.000000D+00
      2b  0.000000D+00  0.000000D+00  0.000000D+00  0.000000D+00  0.000000D+00
      3a  0.000000D+00  0.000000D+00  0.000000D+00  0.000000D+00  0.000000D+00
      3b  0.000000D+00  0.000000D+00  0.000000D+00  0.000000D+00  0.000000D+00
      4a  0.000000D+00  0.000000D+00  0.000000D+00  0.000000D+00  0.000000D+00
      4b  0.000000D+00  0.000000D+00  0.000000D+00  0.000000D+00  0.000000D+00
      5a  0.000000D+00  0.000000D+00  0.000000D+00  0.000000D+00  0.000000D+00
      5b  0.000000D+00  0.000000D+00  0.000000D+00  0.000000D+00  0.000000D+00
      6a  0.000000D+00  0.000000D+00  0.000000D+00  0.000000D+00  0.000000D+00
      6b  0.000000D+00  0.000000D+00  0.000000D+00  0.000000D+00  0.000000D+00
      7a  0.000000D+00  0.000000D+00  0.000000D+00  0.000000D+00  0.000000D+00
      7b  0.000000D+00  0.000000D+00  0.000000D+00  0.000000D+00  0.000000D+00
      8a  0.000000D+00  0.000000D+00  0.000000D+00  0.000000D+00  0.000000D+00
      8b  0.000000D+00  0.000000D+00  0.000000D+00  0.000000D+00  0.000000D+00
      9a  0.000000D+00  0.000000D+00  0.000000D+00  0.000000D+00  0.000000D+00
      9b  0.000000D+00  0.000000D+00  0.000000D+00  0.000000D+00  0.000000D+00
     10a  0.000000D+00  0.000000D+00  0.000000D+00  0.000000D+00  0.000000D+00
     10b  0.000000D+00  0.000000D+00  0.000000D+00  0.000000D+00  0.000000D+00
                16            17            18            19            20 
      1a  0.000000D+00  0.000000D+00  0.000000D+00  0.000000D+00  0.000000D+00
      1b  0.000000D+00  0.000000D+00  0.000000D+00  0.000000D+00  0.000000D+00
      2a  0.000000D+00  0.000000D+00  0.000000D+00  0.000000D+00  0.000000D+00
      2b  0.000000D+00  0.000000D+00  0.000000D+00  0.000000D+00  0.000000D+00
      3a  0.000000D+00  0.000000D+00  0.000000D+00  0.000000D+00  0.000000D+00
      3b  0.000000D+00  0.000000D+00  0.000000D+00  0.000000D+00  0.000000D+00
      4a  0.000000D+00  0.000000D+00  0.000000D+00  0.000000D+00  0.000000D+00
      4b  0.000000D+00  0.000000D+00  0.000000D+00  0.000000D+00  0.000000D+00
      5a  0.000000D+00  0.000000D+00  0.000000D+00  0.000000D+00  0.000000D+00
      5b  0.000000D+00  0.000000D+00  0.000000D+00  0.000000D+00  0.000000D+00
      6a  0.000000D+00  0.000000D+00  0.000000D+00  0.000000D+00  0.000000D+00
      6b  0.000000D+00  0.000000D+00  0.000000D+00  0.000000D+00  0.000000D+00
      7a  0.000000D+00  0.000000D+00  0.000000D+00  0.000000D+00  0.000000D+00
      7b  0.000000D+00  0.000000D+00  0.000000D+00  0.000000D+00  0.000000D+00
      8a  0.000000D+00  0.000000D+00  0.000000D+00  0.000000D+00  0.000000D+00
      8b  0.000000D+00  0.000000D+00  0.000000D+00  0.000000D+00  0.000000D+00
      9a  0.000000D+00  0.000000D+00  0.000000D+00  0.000000D+00  0.000000D+00
      9b  0.000000D+00  0.000000D+00  0.000000D+00  0.000000D+00  0.000000D+00
     10a  0.000000D+00  0.000000D+00  0.000000D+00  0.000000D+00  0.000000D+00
     10b  0.000000D+00  0.000000D+00  0.000000D+00  0.000000D+00  0.000000D+00
 afr conversion (alpha, real):
                 1             2             3             4             5 
      1   0.955878D-02  0.161996D+00  0.202987D+00  0.210355D+00  0.788557D-02
      2   0.184833D-03  0.313243D-02  0.620177D-02  0.642690D-02  0.549842D-03
      3   0.155344D-01  0.263267D+00  0.127225D+00  0.131843D+00 -0.497819D-02
      4   0.967759D-02  0.164009D+00  0.205555D+00  0.213018D+00  0.793791D-02
      5   0.155010D-01  0.262700D+00 -0.126421D+00 -0.131011D+00 -0.504243D-02
      6   0.155010D-01  0.262700D+00  0.126421D+00  0.131011D+00 -0.504243D-02
      7   0.967759D-02  0.164009D+00 -0.205555D+00 -0.213018D+00  0.793791D-02
      8   0.155344D-01  0.263267D+00 -0.127225D+00 -0.131843D+00 -0.497819D-02
      9   0.184833D-03  0.313243D-02 -0.620177D-02 -0.642690D-02  0.549842D-03
     10   0.955878D-02  0.161996D+00 -0.202987D+00 -0.210355D+00  0.788557D-02
                 6             7             8             9            10 
      1   0.340665D+00 -0.108017D+00 -0.220476D+00 -0.110974D+00 -0.378154D-01
      2   0.237537D-01 -0.104476D-01 -0.213248D-01  0.692903D+00  0.236113D+00
      3  -0.215063D+00  0.179468D+00  0.366316D+00  0.276163D-01  0.941050D-02
      4   0.342926D+00 -0.106989D+00 -0.218377D+00 -0.107610D+00 -0.366691D-01
      5  -0.217838D+00 -0.178571D+00 -0.364485D+00 -0.377519D-01 -0.128643D-01
      6  -0.217838D+00  0.178571D+00  0.364485D+00  0.377519D-01  0.128643D-01
      7   0.342926D+00  0.106989D+00  0.218377D+00  0.107610D+00  0.366691D-01
      8  -0.215063D+00 -0.179468D+00 -0.366316D+00 -0.276163D-01 -0.941050D-02
      9   0.237537D-01  0.104476D-01  0.213248D-01 -0.692903D+00 -0.236113D+00
     10   0.340665D+00  0.108017D+00  0.220476D+00  0.110974D+00  0.378154D-01
                11            12            13            14            15 
      1  -0.113859D+00  0.202264D-01  0.563473D+00 -0.345452D-01 -0.961802D+00
      2   0.720579D+00 -0.128006D+00  0.897947D-02 -0.550510D-03 -0.765850D-02
      3   0.151757D-01 -0.269587D-02  0.885871D+00 -0.543107D-01 -0.591491D+00
      4  -0.111529D+00  0.198125D-01 -0.590810D+00  0.362211D-01  0.988291D+00
      5   0.284023D-01 -0.504550D-02  0.890564D+00 -0.545983D-01  0.550376D+00
      6   0.284023D-01 -0.504550D-02 -0.890564D+00  0.545983D-01  0.550376D+00
      7  -0.111529D+00  0.198125D-01  0.590810D+00 -0.362211D-01  0.988291D+00
      8   0.151757D-01 -0.269587D-02 -0.885871D+00  0.543107D-01 -0.591491D+00
      9   0.720579D+00 -0.128006D+00 -0.897947D-02  0.550510D-03 -0.765850D-02
     10  -0.113859D+00  0.202264D-01 -0.563473D+00  0.345452D-01 -0.961802D+00
                16            17            18            19            20 
      1   0.546803D-01  0.429381D-01  0.103599D+01 -0.687405D+00 -0.753184D-02
      2   0.435400D-03 -0.105288D-03 -0.254035D-02  0.911771D-02  0.999020D-04
      3   0.336274D-01 -0.264879D-01 -0.639090D+00  0.114627D+01  0.125595D-01
      4  -0.561862D-01 -0.426224D-01 -0.102838D+01  0.652136D+00  0.714540D-02
      5  -0.312899D-01 -0.288261D-01 -0.695507D+00 -0.113018D+01 -0.123833D-01
      6  -0.312899D-01  0.288261D-01  0.695507D+00 -0.113018D+01 -0.123833D-01
      7  -0.561862D-01  0.426224D-01  0.102838D+01  0.652136D+00  0.714540D-02
      8   0.336274D-01  0.264879D-01  0.639090D+00  0.114627D+01  0.125595D-01
      9   0.435400D-03  0.105288D-03  0.254035D-02  0.911771D-02  0.999020D-04
     10   0.546803D-01 -0.429381D-01 -0.103599D+01 -0.687405D+00 -0.753184D-02
 afr conversion (alpha, imaginary):
                 1             2             3             4             5 
      1   0.000000D+00  0.000000D+00  0.000000D+00  0.000000D+00  0.000000D+00
      2   0.000000D+00  0.000000D+00  0.000000D+00  0.000000D+00  0.000000D+00
      3   0.000000D+00  0.000000D+00  0.000000D+00  0.000000D+00  0.000000D+00
      4   0.000000D+00  0.000000D+00  0.000000D+00  0.000000D+00  0.000000D+00
      5   0.000000D+00  0.000000D+00  0.000000D+00  0.000000D+00  0.000000D+00
      6   0.000000D+00  0.000000D+00  0.000000D+00  0.000000D+00  0.000000D+00
      7   0.000000D+00  0.000000D+00  0.000000D+00  0.000000D+00  0.000000D+00
      8   0.000000D+00  0.000000D+00  0.000000D+00  0.000000D+00  0.000000D+00
      9   0.000000D+00  0.000000D+00  0.000000D+00  0.000000D+00  0.000000D+00
     10   0.000000D+00  0.000000D+00  0.000000D+00  0.000000D+00  0.000000D+00
                 6             7             8             9            10 
      1   0.000000D+00  0.000000D+00  0.000000D+00  0.000000D+00  0.000000D+00
      2   0.000000D+00  0.000000D+00  0.000000D+00  0.000000D+00  0.000000D+00
      3   0.000000D+00  0.000000D+00  0.000000D+00  0.000000D+00  0.000000D+00
      4   0.000000D+00  0.000000D+00  0.000000D+00  0.000000D+00  0.000000D+00
      5   0.000000D+00  0.000000D+00  0.000000D+00  0.000000D+00  0.000000D+00
      6   0.000000D+00  0.000000D+00  0.000000D+00  0.000000D+00  0.000000D+00
      7   0.000000D+00  0.000000D+00  0.000000D+00  0.000000D+00  0.000000D+00
      8   0.000000D+00  0.000000D+00  0.000000D+00  0.000000D+00  0.000000D+00
      9   0.000000D+00  0.000000D+00  0.000000D+00  0.000000D+00  0.000000D+00
     10   0.000000D+00  0.000000D+00  0.000000D+00  0.000000D+00  0.000000D+00
                11            12            13            14            15 
      1   0.000000D+00  0.000000D+00  0.000000D+00  0.000000D+00  0.000000D+00
      2   0.000000D+00  0.000000D+00  0.000000D+00  0.000000D+00  0.000000D+00
      3   0.000000D+00  0.000000D+00  0.000000D+00  0.000000D+00  0.000000D+00
      4   0.000000D+00  0.000000D+00  0.000000D+00  0.000000D+00  0.000000D+00
      5   0.000000D+00  0.000000D+00  0.000000D+00  0.000000D+00  0.000000D+00
      6   0.000000D+00  0.000000D+00  0.000000D+00  0.000000D+00  0.000000D+00
      7   0.000000D+00  0.000000D+00  0.000000D+00  0.000000D+00  0.000000D+00
      8   0.000000D+00  0.000000D+00  0.000000D+00  0.000000D+00  0.000000D+00
      9   0.000000D+00  0.000000D+00  0.000000D+00  0.000000D+00  0.000000D+00
     10   0.000000D+00  0.000000D+00  0.000000D+00  0.000000D+00  0.000000D+00
                16            17            18            19            20 
      1   0.000000D+00  0.000000D+00  0.000000D+00  0.000000D+00  0.000000D+00
      2   0.000000D+00  0.000000D+00  0.000000D+00  0.000000D+00  0.000000D+00
      3   0.000000D+00  0.000000D+00  0.000000D+00  0.000000D+00  0.000000D+00
      4   0.000000D+00  0.000000D+00  0.000000D+00  0.000000D+00  0.000000D+00
      5   0.000000D+00  0.000000D+00  0.000000D+00  0.000000D+00  0.000000D+00
      6   0.000000D+00  0.000000D+00  0.000000D+00  0.000000D+00  0.000000D+00
      7   0.000000D+00  0.000000D+00  0.000000D+00  0.000000D+00  0.000000D+00
      8   0.000000D+00  0.000000D+00  0.000000D+00  0.000000D+00  0.000000D+00
      9   0.000000D+00  0.000000D+00  0.000000D+00  0.000000D+00  0.000000D+00
     10   0.000000D+00  0.000000D+00  0.000000D+00  0.000000D+00  0.000000D+00
 afr conversion (beta, real):
                 1             2             3             4             5 
      1   0.161996D+00 -0.955878D-02  0.210355D+00 -0.202987D+00  0.340665D+00
      2   0.313243D-02 -0.184833D-03  0.642690D-02 -0.620177D-02  0.237537D-01
      3   0.263267D+00 -0.155344D-01  0.131843D+00 -0.127225D+00 -0.215063D+00
      4   0.164009D+00 -0.967759D-02  0.213018D+00 -0.205555D+00  0.342926D+00
      5   0.262700D+00 -0.155010D-01 -0.131011D+00  0.126421D+00 -0.217838D+00
      6   0.262700D+00 -0.155010D-01  0.131011D+00 -0.126421D+00 -0.217838D+00
      7   0.164009D+00 -0.967759D-02 -0.213018D+00  0.205555D+00  0.342926D+00
      8   0.263267D+00 -0.155344D-01 -0.131843D+00  0.127225D+00 -0.215063D+00
      9   0.313243D-02 -0.184833D-03 -0.642690D-02  0.620177D-02  0.237537D-01
     10   0.161996D+00 -0.955878D-02 -0.210355D+00  0.202987D+00  0.340665D+00
                 6             7             8             9            10 
      1  -0.788557D-02 -0.220476D+00  0.108017D+00  0.378154D-01 -0.110974D+00
      2  -0.549842D-03 -0.213248D-01  0.104476D-01 -0.236113D+00  0.692903D+00
      3   0.497819D-02  0.366316D+00 -0.179468D+00 -0.941050D-02  0.276163D-01
      4  -0.793791D-02 -0.218377D+00  0.106989D+00  0.366691D-01 -0.107610D+00
      5   0.504243D-02 -0.364485D+00  0.178571D+00  0.128643D-01 -0.377519D-01
      6   0.504243D-02  0.364485D+00 -0.178571D+00 -0.128643D-01  0.377519D-01
      7  -0.793791D-02  0.218377D+00 -0.106989D+00 -0.366691D-01  0.107610D+00
      8   0.497819D-02 -0.366316D+00  0.179468D+00  0.941050D-02 -0.276163D-01
      9  -0.549842D-03  0.213248D-01 -0.104476D-01  0.236113D+00 -0.692903D+00
     10  -0.788557D-02  0.220476D+00 -0.108017D+00 -0.378154D-01  0.110974D+00
                11            12            13            14            15 
      1  -0.202264D-01 -0.113859D+00  0.345452D-01  0.563473D+00 -0.546803D-01
      2   0.128006D+00  0.720579D+00  0.550510D-03  0.897947D-02 -0.435400D-03
      3   0.269587D-02  0.151757D-01  0.543107D-01  0.885871D+00 -0.336274D-01
      4  -0.198125D-01 -0.111529D+00 -0.362211D-01 -0.590810D+00  0.561862D-01
      5   0.504550D-02  0.284023D-01  0.545983D-01  0.890564D+00  0.312899D-01
      6   0.504550D-02  0.284023D-01 -0.545983D-01 -0.890564D+00  0.312899D-01
      7  -0.198125D-01 -0.111529D+00  0.362211D-01  0.590810D+00  0.561862D-01
      8   0.269587D-02  0.151757D-01 -0.543107D-01 -0.885871D+00 -0.336274D-01
      9   0.128006D+00  0.720579D+00 -0.550510D-03 -0.897947D-02 -0.435400D-03
     10  -0.202264D-01 -0.113859D+00 -0.345452D-01 -0.563473D+00 -0.546803D-01
                16            17            18            19            20 
      1  -0.961802D+00  0.103599D+01 -0.429381D-01  0.753184D-02 -0.687405D+00
      2  -0.765850D-02 -0.254035D-02  0.105288D-03 -0.999020D-04  0.911771D-02
      3  -0.591491D+00 -0.639090D+00  0.264879D-01 -0.125595D-01  0.114627D+01
      4   0.988291D+00 -0.102838D+01  0.426224D-01 -0.714540D-02  0.652136D+00
      5   0.550376D+00 -0.695507D+00  0.288261D-01  0.123833D-01 -0.113018D+01
      6   0.550376D+00  0.695507D+00 -0.288261D-01  0.123833D-01 -0.113018D+01
      7   0.988291D+00  0.102838D+01 -0.426224D-01 -0.714540D-02  0.652136D+00
      8  -0.591491D+00  0.639090D+00 -0.264879D-01 -0.125595D-01  0.114627D+01
      9  -0.765850D-02  0.254035D-02 -0.105288D-03 -0.999020D-04  0.911771D-02
     10  -0.961802D+00 -0.103599D+01  0.429381D-01  0.753184D-02 -0.687405D+00
 afr conversion (beta, imaginary):
                 1             2             3             4             5 
      1   0.000000D+00  0.000000D+00  0.000000D+00  0.000000D+00  0.000000D+00
      2   0.000000D+00  0.000000D+00  0.000000D+00  0.000000D+00  0.000000D+00
      3   0.000000D+00  0.000000D+00  0.000000D+00  0.000000D+00  0.000000D+00
      4   0.000000D+00  0.000000D+00  0.000000D+00  0.000000D+00  0.000000D+00
      5   0.000000D+00  0.000000D+00  0.000000D+00  0.000000D+00  0.000000D+00
      6   0.000000D+00  0.000000D+00  0.000000D+00  0.000000D+00  0.000000D+00
      7   0.000000D+00  0.000000D+00  0.000000D+00  0.000000D+00  0.000000D+00
      8   0.000000D+00  0.000000D+00  0.000000D+00  0.000000D+00  0.000000D+00
      9   0.000000D+00  0.000000D+00  0.000000D+00  0.000000D+00  0.000000D+00
     10   0.000000D+00  0.000000D+00  0.000000D+00  0.000000D+00  0.000000D+00
                 6             7             8             9            10 
      1   0.000000D+00  0.000000D+00  0.000000D+00  0.000000D+00  0.000000D+00
      2   0.000000D+00  0.000000D+00  0.000000D+00  0.000000D+00  0.000000D+00
      3   0.000000D+00  0.000000D+00  0.000000D+00  0.000000D+00  0.000000D+00
      4   0.000000D+00  0.000000D+00  0.000000D+00  0.000000D+00  0.000000D+00
      5   0.000000D+00  0.000000D+00  0.000000D+00  0.000000D+00  0.000000D+00
      6   0.000000D+00  0.000000D+00  0.000000D+00  0.000000D+00  0.000000D+00
      7   0.000000D+00  0.000000D+00  0.000000D+00  0.000000D+00  0.000000D+00
      8   0.000000D+00  0.000000D+00  0.000000D+00  0.000000D+00  0.000000D+00
      9   0.000000D+00  0.000000D+00  0.000000D+00  0.000000D+00  0.000000D+00
     10   0.000000D+00  0.000000D+00  0.000000D+00  0.000000D+00  0.000000D+00
                11            12            13            14            15 
      1   0.000000D+00  0.000000D+00  0.000000D+00  0.000000D+00  0.000000D+00
      2   0.000000D+00  0.000000D+00  0.000000D+00  0.000000D+00  0.000000D+00
      3   0.000000D+00  0.000000D+00  0.000000D+00  0.000000D+00  0.000000D+00
      4   0.000000D+00  0.000000D+00  0.000000D+00  0.000000D+00  0.000000D+00
      5   0.000000D+00  0.000000D+00  0.000000D+00  0.000000D+00  0.000000D+00
      6   0.000000D+00  0.000000D+00  0.000000D+00  0.000000D+00  0.000000D+00
      7   0.000000D+00  0.000000D+00  0.000000D+00  0.000000D+00  0.000000D+00
      8   0.000000D+00  0.000000D+00  0.000000D+00  0.000000D+00  0.000000D+00
      9   0.000000D+00  0.000000D+00  0.000000D+00  0.000000D+00  0.000000D+00
     10   0.000000D+00  0.000000D+00  0.000000D+00  0.000000D+00  0.000000D+00
                16            17            18            19            20 
      1   0.000000D+00  0.000000D+00  0.000000D+00  0.000000D+00  0.000000D+00
      2   0.000000D+00  0.000000D+00  0.000000D+00  0.000000D+00  0.000000D+00
      3   0.000000D+00  0.000000D+00  0.000000D+00  0.000000D+00  0.000000D+00
      4   0.000000D+00  0.000000D+00  0.000000D+00  0.000000D+00  0.000000D+00
      5   0.000000D+00  0.000000D+00  0.000000D+00  0.000000D+00  0.000000D+00
      6   0.000000D+00  0.000000D+00  0.000000D+00  0.000000D+00  0.000000D+00
      7   0.000000D+00  0.000000D+00  0.000000D+00  0.000000D+00  0.000000D+00
      8   0.000000D+00  0.000000D+00  0.000000D+00  0.000000D+00  0.000000D+00
      9   0.000000D+00  0.000000D+00  0.000000D+00  0.000000D+00  0.000000D+00
     10   0.000000D+00  0.000000D+00  0.000000D+00  0.000000D+00  0.000000D+00
 jaja in hckghf.F, ISPECT =                     548
Spin block MO for GHF transformation
NOA =   10   NOB =   10
NVA =   10   NVB =   10
 NOAvA in Hack                     100
 jaja in tranN3.F, ISPECT =                     548
 in l802/tranN3.F, LSPECT =                      800
 NMat, NBtSiz,MDV                    8372                   16000
                133954722
 TranN3:  NGot= 134217728 NBasic=    263006 NTTT=       550 NMat=      8372.
 Defined bucket =                      51                   10000
 Defined bucket =                      52                   10000
 Defined bucket =                      53                   10000
 Defined bucket =                      55                   10000
 Defined bucket =                      57                   10000
 Defined bucket =                      58                   10000
 Defined bucket =                      60                   10000
 Defined bucket =                      72                   10000
 Defined bucket =                      73                   10000
 Defined bucket =                      74                   10000
 Defined bucket =                      75                   10000
 Defined bucket =                      76                   10000
 (IK/LS) integrals will be saved in memory.
 TrCghf made   2 passes through the AO integrals.
 jaja DoHack is true or false? F
 jaja in hckghf.F, NBasis=                      10
 jaja in hckGHF/FixOG, LC =                      800
 jaja in hckGHF/FixOG, IRwC=                      548
 bfr conversion (alpha, real):
                 1             2             3             4             5 
      1   0.955878D-02  0.161996D+00  0.202987D+00  0.210355D+00  0.788557D-02
      2   0.184833D-03  0.313243D-02  0.620177D-02  0.642690D-02  0.549842D-03
      3   0.155344D-01  0.263267D+00  0.127225D+00  0.131843D+00 -0.497819D-02
      4   0.967759D-02  0.164009D+00  0.205555D+00  0.213018D+00  0.793791D-02
      5   0.155010D-01  0.262700D+00 -0.126421D+00 -0.131011D+00 -0.504243D-02
      6   0.155010D-01  0.262700D+00  0.126421D+00  0.131011D+00 -0.504243D-02
      7   0.967759D-02  0.164009D+00 -0.205555D+00 -0.213018D+00  0.793791D-02
      8   0.155344D-01  0.263267D+00 -0.127225D+00 -0.131843D+00 -0.497819D-02
      9   0.184833D-03  0.313243D-02 -0.620177D-02 -0.642690D-02  0.549842D-03
     10   0.955878D-02  0.161996D+00 -0.202987D+00 -0.210355D+00  0.788557D-02
                 6             7             8             9            10 
      1   0.340665D+00 -0.108017D+00 -0.220476D+00 -0.110974D+00 -0.378154D-01
      2   0.237537D-01 -0.104476D-01 -0.213248D-01  0.692903D+00  0.236113D+00
      3  -0.215063D+00  0.179468D+00  0.366316D+00  0.276163D-01  0.941050D-02
      4   0.342926D+00 -0.106989D+00 -0.218377D+00 -0.107610D+00 -0.366691D-01
      5  -0.217838D+00 -0.178571D+00 -0.364485D+00 -0.377519D-01 -0.128643D-01
      6  -0.217838D+00  0.178571D+00  0.364485D+00  0.377519D-01  0.128643D-01
      7   0.342926D+00  0.106989D+00  0.218377D+00  0.107610D+00  0.366691D-01
      8  -0.215063D+00 -0.179468D+00 -0.366316D+00 -0.276163D-01 -0.941050D-02
      9   0.237537D-01  0.104476D-01  0.213248D-01 -0.692903D+00 -0.236113D+00
     10   0.340665D+00  0.108017D+00  0.220476D+00  0.110974D+00  0.378154D-01
                11            12            13            14            15 
      1  -0.113859D+00  0.202264D-01  0.563473D+00 -0.345452D-01 -0.961802D+00
      2   0.720579D+00 -0.128006D+00  0.897947D-02 -0.550510D-03 -0.765850D-02
      3   0.151757D-01 -0.269587D-02  0.885871D+00 -0.543107D-01 -0.591491D+00
      4  -0.111529D+00  0.198125D-01 -0.590810D+00  0.362211D-01  0.988291D+00
      5   0.284023D-01 -0.504550D-02  0.890564D+00 -0.545983D-01  0.550376D+00
      6   0.284023D-01 -0.504550D-02 -0.890564D+00  0.545983D-01  0.550376D+00
      7  -0.111529D+00  0.198125D-01  0.590810D+00 -0.362211D-01  0.988291D+00
      8   0.151757D-01 -0.269587D-02 -0.885871D+00  0.543107D-01 -0.591491D+00
      9   0.720579D+00 -0.128006D+00 -0.897947D-02  0.550510D-03 -0.765850D-02
     10  -0.113859D+00  0.202264D-01 -0.563473D+00  0.345452D-01 -0.961802D+00
                16            17            18            19            20 
      1   0.546803D-01  0.429381D-01  0.103599D+01 -0.687405D+00 -0.753184D-02
      2   0.435400D-03 -0.105288D-03 -0.254035D-02  0.911771D-02  0.999020D-04
      3   0.336274D-01 -0.264879D-01 -0.639090D+00  0.114627D+01  0.125595D-01
      4  -0.561862D-01 -0.426224D-01 -0.102838D+01  0.652136D+00  0.714540D-02
      5  -0.312899D-01 -0.288261D-01 -0.695507D+00 -0.113018D+01 -0.123833D-01
      6  -0.312899D-01  0.288261D-01  0.695507D+00 -0.113018D+01 -0.123833D-01
      7  -0.561862D-01  0.426224D-01  0.102838D+01  0.652136D+00  0.714540D-02
      8   0.336274D-01  0.264879D-01  0.639090D+00  0.114627D+01  0.125595D-01
      9   0.435400D-03  0.105288D-03  0.254035D-02  0.911771D-02  0.999020D-04
     10   0.546803D-01 -0.429381D-01 -0.103599D+01 -0.687405D+00 -0.753184D-02
 bfr conversion (alpha, imaginary):
                 1             2             3             4             5 
      1   0.000000D+00  0.000000D+00  0.000000D+00  0.000000D+00  0.000000D+00
      2   0.000000D+00  0.000000D+00  0.000000D+00  0.000000D+00  0.000000D+00
      3   0.000000D+00  0.000000D+00  0.000000D+00  0.000000D+00  0.000000D+00
      4   0.000000D+00  0.000000D+00  0.000000D+00  0.000000D+00  0.000000D+00
      5   0.000000D+00  0.000000D+00  0.000000D+00  0.000000D+00  0.000000D+00
      6   0.000000D+00  0.000000D+00  0.000000D+00  0.000000D+00  0.000000D+00
      7   0.000000D+00  0.000000D+00  0.000000D+00  0.000000D+00  0.000000D+00
      8   0.000000D+00  0.000000D+00  0.000000D+00  0.000000D+00  0.000000D+00
      9   0.000000D+00  0.000000D+00  0.000000D+00  0.000000D+00  0.000000D+00
     10   0.000000D+00  0.000000D+00  0.000000D+00  0.000000D+00  0.000000D+00
                 6             7             8             9            10 
      1   0.000000D+00  0.000000D+00  0.000000D+00  0.000000D+00  0.000000D+00
      2   0.000000D+00  0.000000D+00  0.000000D+00  0.000000D+00  0.000000D+00
      3   0.000000D+00  0.000000D+00  0.000000D+00  0.000000D+00  0.000000D+00
      4   0.000000D+00  0.000000D+00  0.000000D+00  0.000000D+00  0.000000D+00
      5   0.000000D+00  0.000000D+00  0.000000D+00  0.000000D+00  0.000000D+00
      6   0.000000D+00  0.000000D+00  0.000000D+00  0.000000D+00  0.000000D+00
      7   0.000000D+00  0.000000D+00  0.000000D+00  0.000000D+00  0.000000D+00
      8   0.000000D+00  0.000000D+00  0.000000D+00  0.000000D+00  0.000000D+00
      9   0.000000D+00  0.000000D+00  0.000000D+00  0.000000D+00  0.000000D+00
     10   0.000000D+00  0.000000D+00  0.000000D+00  0.000000D+00  0.000000D+00
                11            12            13            14            15 
      1   0.000000D+00  0.000000D+00  0.000000D+00  0.000000D+00  0.000000D+00
      2   0.000000D+00  0.000000D+00  0.000000D+00  0.000000D+00  0.000000D+00
      3   0.000000D+00  0.000000D+00  0.000000D+00  0.000000D+00  0.000000D+00
      4   0.000000D+00  0.000000D+00  0.000000D+00  0.000000D+00  0.000000D+00
      5   0.000000D+00  0.000000D+00  0.000000D+00  0.000000D+00  0.000000D+00
      6   0.000000D+00  0.000000D+00  0.000000D+00  0.000000D+00  0.000000D+00
      7   0.000000D+00  0.000000D+00  0.000000D+00  0.000000D+00  0.000000D+00
      8   0.000000D+00  0.000000D+00  0.000000D+00  0.000000D+00  0.000000D+00
      9   0.000000D+00  0.000000D+00  0.000000D+00  0.000000D+00  0.000000D+00
     10   0.000000D+00  0.000000D+00  0.000000D+00  0.000000D+00  0.000000D+00
                16            17            18            19            20 
      1   0.000000D+00  0.000000D+00  0.000000D+00  0.000000D+00  0.000000D+00
      2   0.000000D+00  0.000000D+00  0.000000D+00  0.000000D+00  0.000000D+00
      3   0.000000D+00  0.000000D+00  0.000000D+00  0.000000D+00  0.000000D+00
      4   0.000000D+00  0.000000D+00  0.000000D+00  0.000000D+00  0.000000D+00
      5   0.000000D+00  0.000000D+00  0.000000D+00  0.000000D+00  0.000000D+00
      6   0.000000D+00  0.000000D+00  0.000000D+00  0.000000D+00  0.000000D+00
      7   0.000000D+00  0.000000D+00  0.000000D+00  0.000000D+00  0.000000D+00
      8   0.000000D+00  0.000000D+00  0.000000D+00  0.000000D+00  0.000000D+00
      9   0.000000D+00  0.000000D+00  0.000000D+00  0.000000D+00  0.000000D+00
     10   0.000000D+00  0.000000D+00  0.000000D+00  0.000000D+00  0.000000D+00
 bfr conversion (beta, real):
                 1             2             3             4             5 
      1   0.161996D+00 -0.955878D-02  0.210355D+00 -0.202987D+00  0.340665D+00
      2   0.313243D-02 -0.184833D-03  0.642690D-02 -0.620177D-02  0.237537D-01
      3   0.263267D+00 -0.155344D-01  0.131843D+00 -0.127225D+00 -0.215063D+00
      4   0.164009D+00 -0.967759D-02  0.213018D+00 -0.205555D+00  0.342926D+00
      5   0.262700D+00 -0.155010D-01 -0.131011D+00  0.126421D+00 -0.217838D+00
[...]
      6b-0.553765D+02  0.540210D+02 -0.183847D+01 -0.162306D+01 -0.351705D+02
      7a-0.941658D+02  0.916523D+02 -0.308197D+01 -0.275425D+01 -0.586009D+02
      7b 0.898507D+02 -0.874649D+02  0.294403D+01  0.267299D+01  0.560835D+02
      8a-0.577882D+02  0.564239D+02 -0.193725D+01 -0.171348D+01 -0.370713D+02
      8b 0.560602D+02 -0.547861D+02  0.188445D+01  0.164820D+01  0.355988D+02
      9a-0.248212D+01  0.255201D+01 -0.657691D+00 -0.403906D+00 -0.159162D+01
      9b 0.817761D+01 -0.800301D+01  0.784457D+00  0.189502D+00  0.511308D+01
     10a-0.929916D+02  0.905063D+02 -0.304000D+01 -0.271791D+01 -0.578571D+02
     10b 0.887905D+02 -0.864315D+02  0.290769D+01  0.264275D+01  0.554158D+02
                3b            4a            4b            5a            5b
      3b 0.342455D+02
      4a-0.564380D+02  0.957443D+02
      4b 0.550981D+02 -0.927845D+02  0.908387D+02
      5a 0.351584D+02 -0.581577D+02  0.568193D+02  0.370111D+02
      5b-0.338825D+02  0.564152D+02 -0.551716D+02 -0.351469D+02  0.342173D+02
      6a-0.351724D+02  0.580948D+02 -0.568374D+02 -0.366033D+02  0.351533D+02
      6b 0.340300D+02 -0.560797D+02  0.547453D+02  0.349352D+02 -0.336659D+02
      7a 0.564914D+02 -0.953488D+02  0.928711D+02  0.581337D+02 -0.564710D+02
      7b-0.541180D+02  0.909818D+02 -0.886291D+02 -0.557133D+02  0.540035D+02
      8a 0.353816D+02 -0.585274D+02  0.571800D+02  0.372429D+02 -0.353697D+02
      8b-0.340976D+02  0.567721D+02 -0.555191D+02 -0.353677D+02  0.344308D+02
      9a 0.151516D+01 -0.251686D+01  0.258513D+01  0.157597D+01 -0.154032D+01
      9b-0.493511D+01  0.828341D+01 -0.811109D+01 -0.508566D+01  0.494750D+01
     10a 0.557794D+02 -0.941597D+02  0.917098D+02  0.573943D+02 -0.557591D+02
     10b-0.534747D+02  0.899082D+02 -0.875820D+02 -0.550499D+02  0.533603D+02
                6a            6b            7a            7b            8a
      6a 0.370321D+02
      6b-0.349488D+02  0.338161D+02
      7a-0.582309D+02  0.561321D+02  0.959277D+02
      7b 0.557281D+02 -0.537752D+02 -0.910708D+02  0.873455D+02
      8a-0.368366D+02  0.351570D+02  0.585072D+02 -0.560689D+02  0.374763D+02
      8b 0.353747D+02 -0.338796D+02 -0.568290D+02  0.543479D+02 -0.355920D+02
      9a-0.159016D+01  0.150532D+01  0.254769D+01 -0.240965D+01  0.157764D+01
      9b 0.508806D+01 -0.490871D+01 -0.829592D+01  0.787036D+01 -0.511077D+01
     10a-0.574917D+02  0.554246D+02  0.947336D+02 -0.899327D+02  0.577632D+02
     10b 0.550645D+02 -0.531359D+02 -0.899966D+02  0.863156D+02 -0.554012D+02
                8b            9a            9b           10a           10b
      8b 0.346458D+02
      9a-0.154770D+01  0.645995D+00
      9b 0.497188D+01 -0.707098D+00  0.147647D+01
     10a-0.561127D+02  0.251254D+01 -0.818950D+01  0.935545D+02
     10b 0.537006D+02 -0.237983D+01  0.777418D+01 -0.888720D+02  0.852979D+02
 jaja lower-tri density matrix (imaginary):
                1a            1b            2a            2b            3a
      1a 0.000000D+00
      1b 0.000000D+00  0.000000D+00
      2a 0.000000D+00  0.000000D+00  0.000000D+00
      2b 0.000000D+00  0.000000D+00  0.000000D+00  0.000000D+00
      3a 0.000000D+00  0.000000D+00  0.000000D+00  0.000000D+00  0.000000D+00
      3b 0.000000D+00  0.000000D+00  0.000000D+00  0.000000D+00  0.000000D+00
      4a 0.000000D+00  0.000000D+00  0.000000D+00  0.000000D+00  0.000000D+00
      4b 0.000000D+00  0.000000D+00  0.000000D+00  0.000000D+00  0.000000D+00
      5a 0.000000D+00  0.000000D+00  0.000000D+00  0.000000D+00  0.000000D+00
      5b 0.000000D+00  0.000000D+00  0.000000D+00  0.000000D+00  0.000000D+00
      6a 0.000000D+00  0.000000D+00  0.000000D+00  0.000000D+00  0.000000D+00
      6b 0.000000D+00  0.000000D+00  0.000000D+00  0.000000D+00  0.000000D+00
      7a 0.000000D+00  0.000000D+00  0.000000D+00  0.000000D+00  0.000000D+00
      7b 0.000000D+00  0.000000D+00  0.000000D+00  0.000000D+00  0.000000D+00
      8a 0.000000D+00  0.000000D+00  0.000000D+00  0.000000D+00  0.000000D+00
      8b 0.000000D+00  0.000000D+00  0.000000D+00  0.000000D+00  0.000000D+00
      9a 0.000000D+00  0.000000D+00  0.000000D+00  0.000000D+00  0.000000D+00
      9b 0.000000D+00  0.000000D+00  0.000000D+00  0.000000D+00  0.000000D+00
     10a 0.000000D+00  0.000000D+00  0.000000D+00  0.000000D+00  0.000000D+00
     10b 0.000000D+00  0.000000D+00  0.000000D+00  0.000000D+00  0.000000D+00
                3b            4a            4b            5a            5b
      3b 0.000000D+00
      4a 0.000000D+00  0.000000D+00
      4b 0.000000D+00  0.000000D+00  0.000000D+00
      5a 0.000000D+00  0.000000D+00  0.000000D+00  0.000000D+00
      5b 0.000000D+00  0.000000D+00  0.000000D+00  0.000000D+00  0.000000D+00
      6a 0.000000D+00  0.000000D+00  0.000000D+00  0.000000D+00  0.000000D+00
      6b 0.000000D+00  0.000000D+00  0.000000D+00  0.000000D+00  0.000000D+00
      7a 0.000000D+00  0.000000D+00  0.000000D+00  0.000000D+00  0.000000D+00
      7b 0.000000D+00  0.000000D+00  0.000000D+00  0.000000D+00  0.000000D+00
      8a 0.000000D+00  0.000000D+00  0.000000D+00  0.000000D+00  0.000000D+00
      8b 0.000000D+00  0.000000D+00  0.000000D+00  0.000000D+00  0.000000D+00
      9a 0.000000D+00  0.000000D+00  0.000000D+00  0.000000D+00  0.000000D+00
      9b 0.000000D+00  0.000000D+00  0.000000D+00  0.000000D+00  0.000000D+00
     10a 0.000000D+00  0.000000D+00  0.000000D+00  0.000000D+00  0.000000D+00
     10b 0.000000D+00  0.000000D+00  0.000000D+00  0.000000D+00  0.000000D+00
                6a            6b            7a            7b            8a
      6a 0.000000D+00
      6b 0.000000D+00  0.000000D+00
      7a 0.000000D+00  0.000000D+00  0.000000D+00
      7b 0.000000D+00  0.000000D+00  0.000000D+00  0.000000D+00
      8a 0.000000D+00  0.000000D+00  0.000000D+00  0.000000D+00  0.000000D+00
      8b 0.000000D+00  0.000000D+00  0.000000D+00  0.000000D+00  0.000000D+00
      9a 0.000000D+00  0.000000D+00  0.000000D+00  0.000000D+00  0.000000D+00
      9b 0.000000D+00  0.000000D+00  0.000000D+00  0.000000D+00  0.000000D+00
     10a 0.000000D+00  0.000000D+00  0.000000D+00  0.000000D+00  0.000000D+00
     10b 0.000000D+00  0.000000D+00  0.000000D+00  0.000000D+00  0.000000D+00
                8b            9a            9b           10a           10b
      8b 0.000000D+00
      9a 0.000000D+00  0.000000D+00
      9b 0.000000D+00  0.000000D+00  0.000000D+00
     10a 0.000000D+00  0.000000D+00  0.000000D+00  0.000000D+00
     10b 0.000000D+00  0.000000D+00  0.000000D+00  0.000000D+00  0.000000D+00
 jaja non-ortho density matrix               [Gau-style] (real):
                 1             2             3             4             5 
      1a  0.933878D+02 -0.904274D+02  0.306547D+01  0.271997D+01  0.577281D+02
      1b -0.904274D+02  0.884729D+02 -0.308970D+01 -0.273594D+01 -0.564418D+02
      2a  0.306547D+01 -0.308970D+01  0.679026D+00  0.391055D+00  0.192428D+01
      2b  0.271997D+01 -0.273594D+01  0.391055D+00  0.583868D+00  0.171312D+01
      3a  0.577281D+02 -0.564418D+02  0.192428D+01  0.171312D+01  0.374973D+02
      3b -0.557303D+02  0.543692D+02 -0.184996D+01 -0.163818D+01 -0.353955D+02
      4a  0.945586D+02 -0.915664D+02  0.310740D+01  0.275607D+01  0.584678D+02
      4b -0.916303D+02  0.896480D+02 -0.313019D+01 -0.276987D+01 -0.571981D+02
      5a -0.574232D+02  0.560679D+02 -0.193359D+01 -0.170731D+01 -0.368365D+02
      5b  0.557077D+02 -0.544431D+02  0.187544D+01  0.163427D+01  0.353760D+02
      6a  0.573597D+02 -0.560858D+02  0.192040D+01  0.170687D+01  0.372639D+02
      6b -0.553765D+02  0.540210D+02 -0.183847D+01 -0.162306D+01 -0.351705D+02
      7a -0.941658D+02  0.916523D+02 -0.308197D+01 -0.275425D+01 -0.586009D+02
      7b  0.898507D+02 -0.874649D+02  0.294403D+01  0.267299D+01  0.560835D+02
      8a -0.577882D+02  0.564239D+02 -0.193725D+01 -0.171348D+01 -0.370713D+02
      8b  0.560602D+02 -0.547861D+02  0.188445D+01  0.164820D+01  0.355988D+02
      9a -0.248212D+01  0.255201D+01 -0.657691D+00 -0.403906D+00 -0.159162D+01
      9b  0.817761D+01 -0.800301D+01  0.784457D+00  0.189502D+00  0.511308D+01
     10a -0.929916D+02  0.905063D+02 -0.304000D+01 -0.271791D+01 -0.578571D+02
     10b  0.887905D+02 -0.864315D+02  0.290769D+01  0.264275D+01  0.554158D+02
                 6             7             8             9            10 
      1a -0.557303D+02  0.945586D+02 -0.916303D+02 -0.574232D+02  0.557077D+02
      1b  0.543692D+02 -0.915664D+02  0.896480D+02  0.560679D+02 -0.544431D+02
      2a -0.184996D+01  0.310740D+01 -0.313019D+01 -0.193359D+01  0.187544D+01
      2b -0.163818D+01  0.275607D+01 -0.276987D+01 -0.170731D+01  0.163427D+01
      3a -0.353955D+02  0.584678D+02 -0.571981D+02 -0.368365D+02  0.353760D+02
      3b  0.342455D+02 -0.564380D+02  0.550981D+02  0.351584D+02 -0.338825D+02
      4a -0.564380D+02  0.957443D+02 -0.927845D+02 -0.581577D+02  0.564152D+02
      4b  0.550981D+02 -0.927845D+02  0.908387D+02  0.568193D+02 -0.551716D+02
      5a  0.351584D+02 -0.581577D+02  0.568193D+02  0.370111D+02 -0.351469D+02
      5b -0.338825D+02  0.564152D+02 -0.551716D+02 -0.351469D+02  0.342173D+02
      6a -0.351724D+02  0.580948D+02 -0.568374D+02 -0.366033D+02  0.351533D+02
      6b  0.340300D+02 -0.560797D+02  0.547453D+02  0.349352D+02 -0.336659D+02
      7a  0.564914D+02 -0.953488D+02  0.928711D+02  0.581337D+02 -0.564710D+02
      7b -0.541180D+02  0.909818D+02 -0.886291D+02 -0.557133D+02  0.540035D+02
      8a  0.353816D+02 -0.585274D+02  0.571800D+02  0.372429D+02 -0.353697D+02
      8b -0.340976D+02  0.567721D+02 -0.555191D+02 -0.353677D+02  0.344308D+02
      9a  0.151516D+01 -0.251686D+01  0.258513D+01  0.157597D+01 -0.154032D+01
      9b -0.493511D+01  0.828341D+01 -0.811109D+01 -0.508566D+01  0.494750D+01
     10a  0.557794D+02 -0.941597D+02  0.917098D+02  0.573943D+02 -0.557591D+02
     10b -0.534747D+02  0.899082D+02 -0.875820D+02 -0.550499D+02  0.533603D+02
                11            12            13            14            15 
      1a  0.573597D+02 -0.553765D+02 -0.941658D+02  0.898507D+02 -0.577882D+02
      1b -0.560858D+02  0.540210D+02  0.916523D+02 -0.874649D+02  0.564239D+02
      2a  0.192040D+01 -0.183847D+01 -0.308197D+01  0.294403D+01 -0.193725D+01
      2b  0.170687D+01 -0.162306D+01 -0.275425D+01  0.267299D+01 -0.171348D+01
      3a  0.372639D+02 -0.351705D+02 -0.586009D+02  0.560835D+02 -0.370713D+02
      3b -0.351724D+02  0.340300D+02  0.564914D+02 -0.541180D+02  0.353816D+02
      4a  0.580948D+02 -0.560797D+02 -0.953488D+02  0.909818D+02 -0.585274D+02
      4b -0.568374D+02  0.547453D+02  0.928711D+02 -0.886291D+02  0.571800D+02
      5a -0.366033D+02  0.349352D+02  0.581337D+02 -0.557133D+02  0.372429D+02
      5b  0.351533D+02 -0.336659D+02 -0.564710D+02  0.540035D+02 -0.353697D+02
      6a  0.370321D+02 -0.349488D+02 -0.582309D+02  0.557281D+02 -0.368366D+02
      6b -0.349488D+02  0.338161D+02  0.561321D+02 -0.537752D+02  0.351570D+02
      7a -0.582309D+02  0.561321D+02  0.959277D+02 -0.910708D+02  0.585072D+02
      7b  0.557281D+02 -0.537752D+02 -0.910708D+02  0.873455D+02 -0.560689D+02
      8a -0.368366D+02  0.351570D+02  0.585072D+02 -0.560689D+02  0.374763D+02
      8b  0.353747D+02 -0.338796D+02 -0.568290D+02  0.543479D+02 -0.355920D+02
      9a -0.159016D+01  0.150532D+01  0.254769D+01 -0.240965D+01  0.157764D+01
      9b  0.508806D+01 -0.490871D+01 -0.829592D+01  0.787036D+01 -0.511077D+01
     10a -0.574917D+02  0.554246D+02  0.947336D+02 -0.899327D+02  0.577632D+02
     10b  0.550645D+02 -0.531359D+02 -0.899966D+02  0.863156D+02 -0.554012D+02
                16            17            18            19            20 
      1a  0.560602D+02 -0.248212D+01  0.817761D+01 -0.929916D+02  0.887905D+02
      1b -0.547861D+02  0.255201D+01 -0.800301D+01  0.905063D+02 -0.864315D+02
      2a  0.188445D+01 -0.657691D+00  0.784457D+00 -0.304000D+01  0.290769D+01
      2b  0.164820D+01 -0.403906D+00  0.189502D+00 -0.271791D+01  0.264275D+01
      3a  0.355988D+02 -0.159162D+01  0.511308D+01 -0.578571D+02  0.554158D+02
      3b -0.340976D+02  0.151516D+01 -0.493511D+01  0.557794D+02 -0.534747D+02
      4a  0.567721D+02 -0.251686D+01  0.828341D+01 -0.941597D+02  0.899082D+02
      4b -0.555191D+02  0.258513D+01 -0.811109D+01  0.917098D+02 -0.875820D+02
      5a -0.353677D+02  0.157597D+01 -0.508566D+01  0.573943D+02 -0.550499D+02
      5b  0.344308D+02 -0.154032D+01  0.494750D+01 -0.557591D+02  0.533603D+02
      6a  0.353747D+02 -0.159016D+01  0.508806D+01 -0.574917D+02  0.550645D+02
      6b -0.338796D+02  0.150532D+01 -0.490871D+01  0.554246D+02 -0.531359D+02
      7a -0.568290D+02  0.254769D+01 -0.829592D+01  0.947336D+02 -0.899966D+02
      7b  0.543479D+02 -0.240965D+01  0.787036D+01 -0.899327D+02  0.863156D+02
      8a -0.355920D+02  0.157764D+01 -0.511077D+01  0.577632D+02 -0.554012D+02
      8b  0.346458D+02 -0.154770D+01  0.497188D+01 -0.561127D+02  0.537006D+02
      9a -0.154770D+01  0.645995D+00 -0.707098D+00  0.251254D+01 -0.237983D+01
      9b  0.497188D+01 -0.707098D+00  0.147647D+01 -0.818950D+01  0.777418D+01
     10a -0.561127D+02  0.251254D+01 -0.818950D+01  0.935545D+02 -0.888720D+02
     10b  0.537006D+02 -0.237983D+01  0.777418D+01 -0.888720D+02  0.852979D+02
 jaja non-ortho density matrix               [Gau-style] (imaginary):
                 1             2             3             4             5 
      1a  0.000000D+00  0.000000D+00  0.000000D+00  0.000000D+00  0.000000D+00
      1b  0.000000D+00  0.000000D+00  0.000000D+00  0.000000D+00  0.000000D+00
      2a  0.000000D+00  0.000000D+00  0.000000D+00  0.000000D+00  0.000000D+00
      2b  0.000000D+00  0.000000D+00  0.000000D+00  0.000000D+00  0.000000D+00
      3a  0.000000D+00  0.000000D+00  0.000000D+00  0.000000D+00  0.000000D+00
      3b  0.000000D+00  0.000000D+00  0.000000D+00  0.000000D+00  0.000000D+00
      4a  0.000000D+00  0.000000D+00  0.000000D+00  0.000000D+00  0.000000D+00
      4b  0.000000D+00  0.000000D+00  0.000000D+00  0.000000D+00  0.000000D+00
      5a  0.000000D+00  0.000000D+00  0.000000D+00  0.000000D+00  0.000000D+00
      5b  0.000000D+00  0.000000D+00  0.000000D+00  0.000000D+00  0.000000D+00
      6a  0.000000D+00  0.000000D+00  0.000000D+00  0.000000D+00  0.000000D+00
      6b  0.000000D+00  0.000000D+00  0.000000D+00  0.000000D+00  0.000000D+00
      7a  0.000000D+00  0.000000D+00  0.000000D+00  0.000000D+00  0.000000D+00
      7b  0.000000D+00  0.000000D+00  0.000000D+00  0.000000D+00  0.000000D+00
      8a  0.000000D+00  0.000000D+00  0.000000D+00  0.000000D+00  0.000000D+00
      8b  0.000000D+00  0.000000D+00  0.000000D+00  0.000000D+00  0.000000D+00
      9a  0.000000D+00  0.000000D+00  0.000000D+00  0.000000D+00  0.000000D+00
      9b  0.000000D+00  0.000000D+00  0.000000D+00  0.000000D+00  0.000000D+00
     10a  0.000000D+00  0.000000D+00  0.000000D+00  0.000000D+00  0.000000D+00
     10b  0.000000D+00  0.000000D+00  0.000000D+00  0.000000D+00  0.000000D+00
                 6             7             8             9            10 
      1a  0.000000D+00  0.000000D+00  0.000000D+00  0.000000D+00  0.000000D+00
      1b  0.000000D+00  0.000000D+00  0.000000D+00  0.000000D+00  0.000000D+00
      2a  0.000000D+00  0.000000D+00  0.000000D+00  0.000000D+00  0.000000D+00
      2b  0.000000D+00  0.000000D+00  0.000000D+00  0.000000D+00  0.000000D+00
      3a  0.000000D+00  0.000000D+00  0.000000D+00  0.000000D+00  0.000000D+00
      3b  0.000000D+00  0.000000D+00  0.000000D+00  0.000000D+00  0.000000D+00
      4a  0.000000D+00  0.000000D+00  0.000000D+00  0.000000D+00  0.000000D+00
      4b  0.000000D+00  0.000000D+00  0.000000D+00  0.000000D+00  0.000000D+00
      5a  0.000000D+00  0.000000D+00  0.000000D+00  0.000000D+00  0.000000D+00
      5b  0.000000D+00  0.000000D+00  0.000000D+00  0.000000D+00  0.000000D+00
      6a  0.000000D+00  0.000000D+00  0.000000D+00  0.000000D+00  0.000000D+00
      6b  0.000000D+00  0.000000D+00  0.000000D+00  0.000000D+00  0.000000D+00
      7a  0.000000D+00  0.000000D+00  0.000000D+00  0.000000D+00  0.000000D+00
      7b  0.000000D+00  0.000000D+00  0.000000D+00  0.000000D+00  0.000000D+00
      8a  0.000000D+00  0.000000D+00  0.000000D+00  0.000000D+00  0.000000D+00
      8b  0.000000D+00  0.000000D+00  0.000000D+00  0.000000D+00  0.000000D+00
      9a  0.000000D+00  0.000000D+00  0.000000D+00  0.000000D+00  0.000000D+00
      9b  0.000000D+00  0.000000D+00  0.000000D+00  0.000000D+00  0.000000D+00
     10a  0.000000D+00  0.000000D+00  0.000000D+00  0.000000D+00  0.000000D+00
     10b  0.000000D+00  0.000000D+00  0.000000D+00  0.000000D+00  0.000000D+00
                11            12            13            14            15 
      1a  0.000000D+00  0.000000D+00  0.000000D+00  0.000000D+00  0.000000D+00
      1b  0.000000D+00  0.000000D+00  0.000000D+00  0.000000D+00  0.000000D+00
      2a  0.000000D+00  0.000000D+00  0.000000D+00  0.000000D+00  0.000000D+00
      2b  0.000000D+00  0.000000D+00  0.000000D+00  0.000000D+00  0.000000D+00
      3a  0.000000D+00  0.000000D+00  0.000000D+00  0.000000D+00  0.000000D+00
      3b  0.000000D+00  0.000000D+00  0.000000D+00  0.000000D+00  0.000000D+00
      4a  0.000000D+00  0.000000D+00  0.000000D+00  0.000000D+00  0.000000D+00
      4b  0.000000D+00  0.000000D+00  0.000000D+00  0.000000D+00  0.000000D+00
      5a  0.000000D+00  0.000000D+00  0.000000D+00  0.000000D+00  0.000000D+00
      5b  0.000000D+00  0.000000D+00  0.000000D+00  0.000000D+00  0.000000D+00
      6a  0.000000D+00  0.000000D+00  0.000000D+00  0.000000D+00  0.000000D+00
      6b  0.000000D+00  0.000000D+00  0.000000D+00  0.000000D+00  0.000000D+00
      7a  0.000000D+00  0.000000D+00  0.000000D+00  0.000000D+00  0.000000D+00
      7b  0.000000D+00  0.000000D+00  0.000000D+00  0.000000D+00  0.000000D+00
      8a  0.000000D+00  0.000000D+00  0.000000D+00  0.000000D+00  0.000000D+00
      8b  0.000000D+00  0.000000D+00  0.000000D+00  0.000000D+00  0.000000D+00
      9a  0.000000D+00  0.000000D+00  0.000000D+00  0.000000D+00  0.000000D+00
      9b  0.000000D+00  0.000000D+00  0.000000D+00  0.000000D+00  0.000000D+00
     10a  0.000000D+00  0.000000D+00  0.000000D+00  0.000000D+00  0.000000D+00
     10b  0.000000D+00  0.000000D+00  0.000000D+00  0.000000D+00  0.000000D+00
                16            17            18            19            20 
      1a  0.000000D+00  0.000000D+00  0.000000D+00  0.000000D+00  0.000000D+00
      1b  0.000000D+00  0.000000D+00  0.000000D+00  0.000000D+00  0.000000D+00
      2a  0.000000D+00  0.000000D+00  0.000000D+00  0.000000D+00  0.000000D+00
      2b  0.000000D+00  0.000000D+00  0.000000D+00  0.000000D+00  0.000000D+00
      3a  0.000000D+00  0.000000D+00  0.000000D+00  0.000000D+00  0.000000D+00
      3b  0.000000D+00  0.000000D+00  0.000000D+00  0.000000D+00  0.000000D+00
      4a  0.000000D+00  0.000000D+00  0.000000D+00  0.000000D+00  0.000000D+00
      4b  0.000000D+00  0.000000D+00  0.000000D+00  0.000000D+00  0.000000D+00
      5a  0.000000D+00  0.000000D+00  0.000000D+00  0.000000D+00  0.000000D+00
      5b  0.000000D+00  0.000000D+00  0.000000D+00  0.000000D+00  0.000000D+00
      6a  0.000000D+00  0.000000D+00  0.000000D+00  0.000000D+00  0.000000D+00
      6b  0.000000D+00  0.000000D+00  0.000000D+00  0.000000D+00  0.000000D+00
      7a  0.000000D+00  0.000000D+00  0.000000D+00  0.000000D+00  0.000000D+00
      7b  0.000000D+00  0.000000D+00  0.000000D+00  0.000000D+00  0.000000D+00
      8a  0.000000D+00  0.000000D+00  0.000000D+00  0.000000D+00  0.000000D+00
      8b  0.000000D+00  0.000000D+00  0.000000D+00  0.000000D+00  0.000000D+00
      9a  0.000000D+00  0.000000D+00  0.000000D+00  0.000000D+00  0.000000D+00
      9b  0.000000D+00  0.000000D+00  0.000000D+00  0.000000D+00  0.000000D+00
     10a  0.000000D+00  0.000000D+00  0.000000D+00  0.000000D+00  0.000000D+00
     10b  0.000000D+00  0.000000D+00  0.000000D+00  0.000000D+00  0.000000D+00
FORTRAN STOP
