 Entering Gaussian System, Link 0=gdv
 AtFile(1): H.gbs
            H     0
            S   10   1.00
               1000.000000000000            0.000068713567
                316.227766000000            0.000169141320
                100.000000000000            0.000823394812
                 31.622776600000            0.003425569236
                 10.000000000000            0.013951996000
                  3.162277660000            0.056909313560
                  1.000000000000            0.198286399900
                  0.316227766000            0.496922426700
                  0.100000000000            0.369846276400
                  0.031622776600            0.003752720039
            ****
 Initial command:
 /users/lcj1/GHF_hess/exe-dir/l1.exe "/users/lcj1/GHF_hess/h10_2rows/follow25/follow45/bck/Gau-15639.inp" -scrdir="/users/lcj1/GHF_hess/h10_2rows/follow25/follow45/bck/"
 Entering Link 1 = /users/lcj1/GHF_hess/exe-dir/l1.exe PID=     15640.
  
 Copyright (c) 1988,1990,1992,1993,1995,1998,2003,2009,2012,
            Gaussian, Inc.  All Rights Reserved.
  
 This is the private, development version of
 the Gaussian(R) DV system of programs. It is based on
 the Gaussian(R) 09 system (copyright 2009, Gaussian, Inc.),
 the Gaussian(R) 03 system (copyright 2003, Gaussian, Inc.),
 the Gaussian(R) 98 system (copyright 1998, Gaussian, Inc.),
 the Gaussian(R) 94 system (copyright 1995, Gaussian, Inc.),
 the Gaussian 92(TM) system (copyright 1992, Gaussian, Inc.),
 the Gaussian 90(TM) system (copyright 1990, Gaussian, Inc.),
 the Gaussian 88(TM) system (copyright 1988, Gaussian, Inc.),
 the Gaussian 86(TM) system (copyright 1986, Carnegie Mellon
 University), and the Gaussian 82(TM) system (copyright 1983,
 Carnegie Mellon University). Gaussian is a federally registered
 trademark of Gaussian, Inc.
  
 This software contains proprietary and confidential information,
 including trade secrets, belonging to Gaussian, Inc.
  
 This software is provided under written license and may be
 used, copied, transmitted, or stored only in accord with that
 written license.
  
 The following legend is applicable only to US Government
 contracts under FAR:
  
                    RESTRICTED RIGHTS LEGEND
  
 Use, reproduction and disclosure by the US Government is
 subject to restrictions as set forth in subparagraphs (a)
 and (c) of the Commercial Computer Software - Restricted
 Rights clause in FAR 52.227-19.
  
 Gaussian, Inc.
 340 Quinnipiac St., Bldg. 40, Wallingford CT 06492
  
  
 ---------------------------------------------------------------
 Warning -- This program may not be used in any manner that
 competes with the business of Gaussian, Inc. or will provide
 assistance to any competitor of Gaussian, Inc.  The licensee
 of this program is prohibited from giving any competitor of
 Gaussian, Inc. access to this program.  By using this program,
 the user acknowledges that Gaussian, Inc. is engaged in the
 business of creating and licensing software in the field of
 computational chemistry and represents and warrants to the
 licensee that it is not a competitor of Gaussian, Inc. and that
 it will not use this program in any manner prohibited above.
 ---------------------------------------------------------------
  

 Cite this work as:
 Gaussian Development Version, Revision H.21,
 M. J. Frisch, G. W. Trucks, H. B. Schlegel, G. E. Scuseria, 
 M. A. Robb, J. R. Cheeseman, G. Scalmani, V. Barone, B. Mennucci, 
 G. A. Petersson, H. Nakatsuji, M. Caricato, X. Li, H. P. Hratchian, 
 A. F. Izmaylov, J. Bloino, G. Zheng, J. L. Sonnenberg, W. Liang, 
 M. Hada, M. Ehara, K. Toyota, R. Fukuda, J. Hasegawa, M. Ishida, 
 T. Nakajima, Y. Honda, O. Kitao, H. Nakai, T. Vreven, 
 J. A. Montgomery, Jr., J. E. Peralta, F. Ogliaro, M. Bearpark, 
 J. J. Heyd, E. Brothers, K. N. Kudin, V. N. Staroverov, T. Keith, 
 R. Kobayashi, J. Normand, K. Raghavachari, A. Rendell, J. C. Burant, 
 S. S. Iyengar, J. Tomasi, M. Cossi, N. Rega, J. M. Millam, M. Klene, 
 J. E. Knox, J. B. Cross, V. Bakken, C. Adamo, J. Jaramillo, 
 R. Gomperts, R. E. Stratmann, O. Yazyev, A. J. Austin, R. Cammi, 
 C. Pomelli, J. W. Ochterski, R. L. Martin, K. Morokuma, 
 V. G. Zakrzewski, G. A. Voth, P. Salvador, J. J. Dannenberg, 
 S. Dapprich, P. V. Parandekar, N. J. Mayhall, A. D. Daniels, 
 O. Farkas, J. B. Foresman, J. V. Ortiz, J. Cioslowski, 
 and D. J. Fox, Gaussian, Inc., Wallingford CT, 2010.
 
 ******************************************
 Gaussian DV:  EM64L-GDVRevH.21 13-May-2012
                28-Feb-2017 
 ******************************************
 %chk=h10.chk
 ----------------------------------------------------------------------
 #ghf/gen scf(tight,novaracc,noincfock,fulldiag) stable guess=read geom
 =nocrowd use=l802 use=l902 test
 ----------------------------------------------------------------------
 ********************************************
   THE COMPLEX ERI TRANSFORMATION WITH L802  
        COMPLEX STABILITY WITH L902          
 ********************************************
 1/38=1/1;
 2/12=1,17=6,18=5,40=1/2;
 3/5=7,16=1,25=20,28=1,116=7/1,2,3,20;
 4/5=1/1;
 5/5=100001,16=1,32=2,38=6/2;
 8/6=1,10=90,11=11/1,2;
 9/8=4,13=1/1,2;
 6/7=2,8=2,9=2,10=2,28=1/1;
 99/5=1,9=1/99;
 ----------------------------------------------------------------------
 hf stability analysis of h10 triangular lattice, y= 0.3149713055983335
 3 alpha= 9.7500000000000000
 ----------------------------------------------------------------------
 Symbolic Z-Matrix:
 Charge =  0 Multiplicity = 1
 H
 H                    1     1.85989 
 H                    1     1.85989  2     160.5 
 H                    2     1.85989  1     19.5     3     0.       0
 H                    3     1.85989  1     180.     2     0.       0
 H                    4     1.85989  2     180.     1     0.       0
 H                    5     1.85989  3     180.     2     0.       0
 H                    6     1.85989  4     180.     1     0.       0
 H                    7     1.85989  5     180.     2     0.       0
 H                    8     1.85989  6     180.     1     0.       0
 
                          Input orientation:                          
 ---------------------------------------------------------------------
 Center     Atomic      Atomic             Coordinates (Angstroms)
 Number     Number       Type             X           Y           Z
 ---------------------------------------------------------------------
      1          1           0        0.000000    0.000000    0.000000
      2          1           0        0.000000    0.000000    1.859889
      3          1           0        0.620844    0.000000   -1.753209
      4          1           0        0.620844    0.000000    0.106680
      5          1           0        1.241687    0.000000   -3.506417
      6          1           0        1.241687    0.000000   -1.646528
      7          1           0        1.862531    0.000000   -5.259626
      8          1           0        1.862531    0.000000   -3.399737
      9          1           0        2.483375    0.000000   -7.012835
     10          1           0        2.483375    0.000000   -5.152945
 ---------------------------------------------------------------------
                    Distance matrix (angstroms):
                    1          2          3          4          5
     1  H    0.000000
     2  H    1.859889   0.000000
     3  H    1.859889   3.666050   0.000000
     4  H    0.629943   1.859889   1.859889   0.000000
     5  H    3.719778   5.508088   1.859889   3.666050   0.000000
     6  H    2.062242   3.719778   0.629943   1.859889   1.859889
     7  H    5.579667   7.359111   3.719778   5.508088   1.859889
     8  H    3.876498   5.579667   2.062242   3.719778   0.629943
     9  H    7.439556   9.213706   5.579667   7.359111   3.719778
    10  H    5.720140   7.439556   3.876498   5.579667   2.062242
                    6          7          8          9         10
     6  H    0.000000
     7  H    3.666050   0.000000
     8  H    1.859889   1.859889   0.000000
     9  H    5.508088   1.859889   3.666050   0.000000
    10  H    3.719778   0.629943   1.859889   1.859889   0.000000
 Stoichiometry    H10
 Framework group  C2H[SGH(H10)]
 Deg. of freedom     9
 Full point group                 C2H     NOp   4
 Largest Abelian subgroup         C2H     NOp   4
 Largest concise Abelian subgroup C2      NOp   2
                         Standard orientation:                         
 ---------------------------------------------------------------------
 Center     Atomic      Atomic             Coordinates (Angstroms)
 Number     Number       Type             X           Y           Z
 ---------------------------------------------------------------------
      1          1           0        1.241687   -2.576473    0.000000
      2          1           0        1.241687   -4.436362    0.000000
      3          1           0        0.620844   -0.823264    0.000000
      4          1           0        0.620844   -2.683153    0.000000
      5          1           0        0.000000    0.929945    0.000000
      6          1           0        0.000000   -0.929945    0.000000
      7          1           0       -0.620844    2.683153    0.000000
      8          1           0       -0.620844    0.823264    0.000000
      9          1           0       -1.241687    4.436362    0.000000
     10          1           0       -1.241687    2.576473    0.000000
 ---------------------------------------------------------------------
 Rotational constants (GHZ):    578.9213968      6.5153206      6.4428117
 General basis read from cards:  (5D, 7F)
 There are     5 symmetry adapted cartesian basis functions of AG  symmetry.
 There are     0 symmetry adapted cartesian basis functions of BG  symmetry.
 There are     0 symmetry adapted cartesian basis functions of AU  symmetry.
 There are     5 symmetry adapted cartesian basis functions of BU  symmetry.
 There are     5 symmetry adapted basis functions of AG  symmetry.
 There are     0 symmetry adapted basis functions of BG  symmetry.
 There are     0 symmetry adapted basis functions of AU  symmetry.
 There are     5 symmetry adapted basis functions of BU  symmetry.
    10 basis functions,   100 primitive gaussians,    10 cartesian basis functions
     5 alpha electrons        5 beta electrons
       nuclear repulsion energy        10.6363033128 Hartrees.
 NAtoms=   10 NActive=   10 NUniq=    5 SFac= 4.00D+00 NAtFMM=   60 NAOKFM=F Big=F
 Integral buffers will be    131072 words long.
 Regular integral format.
 Two-electron integral symmetry is turned off.
 One-electron integrals computed using PRISM.
 NBasis=    10 RedAO= T EigKep=  1.47D-01  NBF=     5     0     0     5
 NBsUse=    10 1.00D-06 EigRej= -1.00D+00 NBFU=     5     0     0     5
 IOp(28)                       1
                        1                       0
                        2                       1
                        3                       1
                        4                      20
                        5                       0
                        6                       0
                        7                      10
                        8                       1
                        9                       4
                       10                       0
                       11              1073741824
                       12                      20
                       13                       2
                       14                  131070
                       15                       1
                       16                       1
                       17                  131073
                       18                       0
                       19                       0
                       20                       0
                       21                       2
                       22                  131070
                       23                       0
                       24                       0
                       25                       0
                       26                       0
                       27                   65535
                       28                       2
                       29                  131072
                       30                       0
 IHMeth                       1
 ib3: ISMode =                        0                       4
 Enter DskPsm, NBasis=  10 NBas6D=  10 NShell=  10 IDoSP=4.
 Out2e will use a cutoff of  1.00D-10
 FoFCou: FMM=F IPFlag=           0 FMFlag=           0 FMFlg1=           0
         NFxFlg=           0 DoJE=F BraDBF=F KetDBF=F FulRan=T
         wScrn=  0.000000 ICntrl=     600 IOpCl=  9 I1Cent=           0 NGrid=           0
         NMat0=    0 NMatS0=      0 NMatT0=    0 NMatD0=    0 NMtDS0=    0 NMtDT0=    0
 Symmetry not used in FoFCou.
 Entering PrmDigJobTyp =                      20
 LenSav and NKeep                       0                       0
 Entered Stor2E with KNTT1,2                       2                  131070
 Leave Stor2X
 Entering PrmDigJobTyp =                      20
 LenSav and NKeep                       0                       0
 Entered Stor2E with KNTT1,2                       2                  131056
 Leave Stor2X
 Entering PrmDigJobTyp =                      20
 LenSav and NKeep                       0                       0
 Entered Stor2E with KNTT1,2                       2                  131042
 Leave Stor2X
 Entering PrmDigJobTyp =                      20
 LenSav and NKeep                       0                       0
 Entered Stor2E with KNTT1,2                       2                  131028
 Leave Stor2X
 Entering PrmDigJobTyp =                      20
 LenSav and NKeep                       0                       0
 Entered Stor2E with KNTT1,2                       2                  131014
 Leave Stor2X
 Entering PrmDigJobTyp =                      20
 LenSav and NKeep                       0                       0
 Entered Stor2E with KNTT1,2                       2                  131000
 Leave Stor2X
 Entering PrmDigJobTyp =                      20
 LenSav and NKeep                       0                       0
 Entered Stor2E with KNTT1,2                       2                  130986
 Leave Stor2X
 Entering PrmDigJobTyp =                      20
 LenSav and NKeep                       0                       0
 Entered Stor2E with KNTT1,2                       2                  130972
 Leave Stor2X
 Entering PrmDigJobTyp =                      20
 LenSav and NKeep                       0                       0
 Entered Stor2E with KNTT1,2                       2                  130960
 Leave Stor2X
 Entering PrmDigJobTyp =                      20
 LenSav and NKeep                       0                       0
 Entered Stor2E with KNTT1,2                       2                  130944
 Leave Stor2X
 Entering PrmDigJobTyp =                      20
 LenSav and NKeep                       0                       0
 Entered Stor2E with KNTT1,2                       2                  130928
 Leave Stor2X
 Entering PrmDigJobTyp =                      20
 LenSav and NKeep                       0                       0
 Entered Stor2E with KNTT1,2                       2                  130912
 Leave Stor2X
 Entering PrmDigJobTyp =                      20
 LenSav and NKeep                       0                       0
 Entered Stor2E with KNTT1,2                       2                  130896
 Leave Stor2X
 Entering PrmDigJobTyp =                      20
 LenSav and NKeep                       0                       0
 Entered Stor2E with KNTT1,2                       2                  130880
 Leave Stor2X
 Entering PrmDigJobTyp =                      20
 LenSav and NKeep                       0                       0
 Entered Stor2E with KNTT1,2                       2                  130864
 Leave Stor2X
 Entering PrmDigJobTyp =                      20
 LenSav and NKeep                       0                       0
 Entered Stor2E with KNTT1,2                       2                  130848
 Leave Stor2X
 Entering PrmDigJobTyp =                      20
 LenSav and NKeep                       0                       0
 Entered Stor2E with KNTT1,2                       2                  130832
 Leave Stor2X
 Entering PrmDigJobTyp =                      20
 LenSav and NKeep                       0                       0
 Entered Stor2E with KNTT1,2                       2                  130816
 Leave Stor2X
 Entering PrmDigJobTyp =                      20
 LenSav and NKeep                       0                       0
 Entered Stor2E with KNTT1,2                       2                  130800
 Leave Stor2X
 Entering PrmDigJobTyp =                      20
 LenSav and NKeep                       0                       0
 Entered Stor2E with KNTT1,2                       2                  130784
 Leave Stor2X
 Entering PrmDigJobTyp =                      20
 LenSav and NKeep                       0                       0
 Entered Stor2E with KNTT1,2                       2                  130768
 Leave Stor2X
 Entering PrmDigJobTyp =                      20
 LenSav and NKeep                       0                       0
 Entered Stor2E with KNTT1,2                       2                  130752
 Leave Stor2X
 Entering PrmDigJobTyp =                      20
 LenSav and NKeep                       0                       0
 Entered Stor2E with KNTT1,2                       2                  130736
 Leave Stor2X
 Entering PrmDigJobTyp =                      20
 LenSav and NKeep                       0                       0
 Entered Stor2E with KNTT1,2                       2                  130720
 Leave Stor2X
 Entering PrmDigJobTyp =                      20
 LenSav and NKeep                       0                       0
 Entered Stor2E with KNTT1,2                       2                  130704
 Leave Stor2X
 Entering PrmDigJobTyp =                      20
 LenSav and NKeep                       0                       0
 Entered Stor2E with KNTT1,2                       2                  130688
 Leave Stor2X
 Entering PrmDigJobTyp =                      20
 LenSav and NKeep                       0                       0
 Entered Stor2E with KNTT1,2                       2                  130672
 Leave Stor2X
 Entering PrmDigJobTyp =                      20
 LenSav and NKeep                       0                       0
 Entered Stor2E with KNTT1,2                       2                  130656
 Leave Stor2X
 Entering PrmDigJobTyp =                      20
 LenSav and NKeep                       0                       0
 Entered Stor2E with KNTT1,2                       2                  130640
 Leave Stor2X
 Entering PrmDigJobTyp =                      20
 LenSav and NKeep                       0                       0
 Entered Stor2E with KNTT1,2                      10                  130622
 Leave Stor2X
 Entering PrmDigJobTyp =                      20
 LenSav and NKeep                       0                       0
 Entered Stor2E with KNTT1,2                      22                  130608
 Leave Stor2X
 Entering PrmDigJobTyp =                      20
 LenSav and NKeep                       0                       0
 Entered Stor2E with KNTT1,2                      36                  130596
 Leave Stor2X
 Entering PrmDigJobTyp =                      20
 LenSav and NKeep                       0                       0
 Entered Stor2E with KNTT1,2                      50                  130584
 Leave Stor2X
 Entering PrmDigJobTyp =                      20
 LenSav and NKeep                       0                       0
 Entered Stor2E with KNTT1,2                      66                  130574
 Leave Stor2X
 Entering PrmDigJobTyp =                      20
 LenSav and NKeep                       0                       0
 Entered Stor2E with KNTT1,2                      82                  130564
 Leave Stor2X
 Entering PrmDigJobTyp =                      20
 LenSav and NKeep                       0                       0
 Entered Stor2E with KNTT1,2                     102                  130558
 Leave Stor2X
 Entering PrmDigJobTyp =                      20
 LenSav and NKeep                       0                       0
 Entered Stor2E with KNTT1,2                     122                  130552
 Leave Stor2X
 Entering PrmDigJobTyp =                      20
 LenSav and NKeep                       0                       0
 Entered Stor2E with KNTT1,2                     140                  130544
 Leave Stor2X
 Entering PrmDigJobTyp =                      20
 LenSav and NKeep                       0                       0
 Entered Stor2E with KNTT1,2                     162                  130540
 Leave Stor2X
 Entering PrmDigJobTyp =                      20
 LenSav and NKeep                       0                       0
 Entered Stor2E with KNTT1,2                     166                  130532
 Leave Stor2X
 Entering PrmDigJobTyp =                      20
 LenSav and NKeep                       0                       0
 Entered Stor2E with KNTT1,2                     166                  130510
 Leave Stor2X
 Entering PrmDigJobTyp =                      20
 LenSav and NKeep                       0                       0
 Entered Stor2E with KNTT1,2                     166                  130488
 Leave Stor2X
 Entering PrmDigJobTyp =                      20
 LenSav and NKeep                       0                       0
 Entered Stor2E with KNTT1,2                     166                  130466
 Leave Stor2X
 Entering PrmDigJobTyp =                      20
 LenSav and NKeep                       0                       0
 Entered Stor2E with KNTT1,2                     166                  130444
 Leave Stor2X
 Entering PrmDigJobTyp =                      20
 LenSav and NKeep                       0                       0
 Entered Stor2E with KNTT1,2                     166                  130422
 Leave Stor2X
 Entering PrmDigJobTyp =                      20
 LenSav and NKeep                       0                       0
 Entered Stor2E with KNTT1,2                     166                  130400
 Leave Stor2X
 Entering PrmDigJobTyp =                      20
 LenSav and NKeep                       0                       0
 Entered Stor2E with KNTT1,2                     166                  130378
 Leave Stor2X
 Entering PrmDigJobTyp =                      20
 LenSav and NKeep                       0                       0
 Entered Stor2E with KNTT1,2                     166                  130356
 Leave Stor2X
 Entering PrmDigJobTyp =                      20
 LenSav and NKeep                       0                       0
 Entered Stor2E with KNTT1,2                     166                  130334
 Leave Stor2X
 Entering PrmDigJobTyp =                      20
 LenSav and NKeep                       0                       0
 Entered Stor2E with KNTT1,2                     166                  130312
 Leave Stor2X
 Entering PrmDigJobTyp =                      20
 LenSav and NKeep                       0                       0
 Entered Stor2E with KNTT1,2                     166                  130292
 Leave Stor2X
 Entering PrmDigJobTyp =                      20
 LenSav and NKeep                       0                       0
 Entered Stor2E with KNTT1,2                     186                  130278
 Leave Stor2X
 Entering PrmDigJobTyp =                      20
 LenSav and NKeep                       0                       0
 Entered Stor2E with KNTT1,2                     208                  130266
 Leave Stor2X
 Entering PrmDigJobTyp =                      20
 LenSav and NKeep                       0                       0
 Entered Stor2E with KNTT1,2                     224                  130248
 Leave Stor2X
 Entering PrmDigJobTyp =                      20
 LenSav and NKeep                       0                       0
 Entered Stor2E with KNTT1,2                     246                  130236
 Leave Stor2X
 Entering PrmDigJobTyp =                      20
 LenSav and NKeep                       0                       0
 Entered Stor2E with KNTT1,2                     270                  130226
 Leave Stor2X
 Entering PrmDigJobTyp =                      20
 LenSav and NKeep                       0                       0
 Entered Stor2E with KNTT1,2                     284                  130206
 Leave Stor2X
 Entering PrmDigJobTyp =                      20
 LenSav and NKeep                       0                       0
 Entered Stor2E with KNTT1,2                     304                  130192
 Leave Stor2X
 Entering PrmDigJobTyp =                      20
 LenSav and NKeep                       0                       0
 Entered Stor2E with KNTT1,2                     326                  130180
 Leave Stor2X
 Entering PrmDigJobTyp =                      20
 LenSav and NKeep                       0                       0
 Entered Stor2E with KNTT1,2                     352                  130172
 Leave Stor2X
 Entering PrmDigJobTyp =                      20
 LenSav and NKeep                       0                       0
 Entered Stor2E with KNTT1,2                     366                  130152
 Leave Stor2X
 Entering PrmDigJobTyp =                      20
 LenSav and NKeep                       0                       0
 Entered Stor2E with KNTT1,2                     386                  130138
 Leave Stor2X
 Entering PrmDigJobTyp =                      20
 LenSav and NKeep                       0                       0
 Entered Stor2E with KNTT1,2                     390                  130132
 Leave Stor2X
 Entering PrmDigJobTyp =                      20
 LenSav and NKeep                       0                       0
 Entered Stor2E with KNTT1,2                     410                  130110
 Leave Stor2X
 Entering PrmDigJobTyp =                      20
 LenSav and NKeep                       0                       0
 Entered Stor2E with KNTT1,2                     438                  130096
 Leave Stor2X
 Entering PrmDigJobTyp =                      20
 LenSav and NKeep                       0                       0
 Entered Stor2E with KNTT1,2                     466                  130082
 Leave Stor2X
 Entering PrmDigJobTyp =                      20
 LenSav and NKeep                       0                       0
 Entered Stor2E with KNTT1,2                     486                  130072
 Leave Stor2X
 Entering PrmDigJobTyp =                      20
 LenSav and NKeep                       0                       0
 Entered Stor2E with KNTT1,2                     486                  130058
 Leave Stor2X
 Entering PrmDigJobTyp =                      20
 LenSav and NKeep                       0                       0
 Entered Stor2E with KNTT1,2                     486                  130044
 Leave Stor2X
 Entering PrmDigJobTyp =                      20
 LenSav and NKeep                       0                       0
 Entered Stor2E with KNTT1,2                     486                  130030
 Leave Stor2X
 Entering PrmDigJobTyp =                      20
 LenSav and NKeep                       0                       0
 Entered Stor2E with KNTT1,2                     486                  130016
 Leave Stor2X
 Entering PrmDigJobTyp =                      20
 LenSav and NKeep                       0                       0
 Entered Stor2E with KNTT1,2                     486                  130002
 Leave Stor2X
 Entering PrmDigJobTyp =                      20
 LenSav and NKeep                       0                       0
 Entered Stor2E with KNTT1,2                     486                  129992
 Leave Stor2X
 Entering PrmDigJobTyp =                      20
 LenSav and NKeep                       0                       0
 Entered Stor2E with KNTT1,2                     494                  129980
 Leave Stor2X
 Entering PrmDigJobTyp =                      20
 LenSav and NKeep                       0                       0
 Entered Stor2E with KNTT1,2                     510                  129976
 Leave Stor2X
 Entering PrmDigJobTyp =                      20
 LenSav and NKeep                       0                       0
 Entered Stor2E with KNTT1,2                     518                  129964
 Leave Stor2X
 Entering PrmDigJobTyp =                      20
 LenSav and NKeep                       0                       0
 Entered Stor2E with KNTT1,2                     534                  129960
 Leave Stor2X
 Entering PrmDigJobTyp =                      20
 LenSav and NKeep                       0                       0
 Entered Stor2E with KNTT1,2                     542                  129948
 Leave Stor2X
 Entering PrmDigJobTyp =                      20
 LenSav and NKeep                       0                       0
 Entered Stor2E with KNTT1,2                     558                  129944
 Leave Stor2X
 Entering PrmDigJobTyp =                      20
 LenSav and NKeep                       0                       0
 Entered Stor2E with KNTT1,2                     558                  129936
 Leave Stor2X
 Entering PrmDigJobTyp =                      20
 LenSav and NKeep                       0                       0
 Entered Stor2E with KNTT1,2                     574                  129926
 Leave Stor2X
 Entering PrmDigJobTyp =                      20
 LenSav and NKeep                       0                       0
 Entered Stor2E with KNTT1,2                     588                  129914
 Leave Stor2X
 Entering PrmDigJobTyp =                      20
 LenSav and NKeep                       0                       0
 Entered Stor2E with KNTT1,2                     604                  129904
 Leave Stor2X
 Entering PrmDigJobTyp =                      20
 LenSav and NKeep                       0                       0
 Entered Stor2E with KNTT1,2                     614                  129896
 Leave Stor2X
 Entering PrmDigJobTyp =                      20
 LenSav and NKeep                       0                       0
 Entered Stor2E with KNTT1,2                     624                  129890
 Leave Stor2X
 Entering PrmDigJobTyp =                      20
 LenSav and NKeep                       0                       0
 Entered Stor2E with KNTT1,2                     626                  129888
 Leave Stor2X
 Entering PrmDigJobTyp =                      20
 LenSav and NKeep                       0                       0
 Entered Stor2E with KNTT1,2                     626                  129860
 Leave Stor2X
 Entering PrmDigJobTyp =                      20
 LenSav and NKeep                       0                       0
 Entered Stor2E with KNTT1,2                     626                  129832
 Leave Stor2X
 Entering PrmDigJobTyp =                      20
 LenSav and NKeep                       0                       0
 Entered Stor2E with KNTT1,2                     626                  129804
 Leave Stor2X
 Entering PrmDigJobTyp =                      20
 LenSav and NKeep                       0                       0
 Entered Stor2E with KNTT1,2                     626                  129776
 Leave Stor2X
 Entering PrmDigJobTyp =                      20
 LenSav and NKeep                       0                       0
 Entered Stor2E with KNTT1,2                     626                  129748
 Leave Stor2X
 Entering PrmDigJobTyp =                      20
 LenSav and NKeep                       0                       0
 Entered Stor2E with KNTT1,2                     626                  129728
 Leave Stor2X
 Entering PrmDigJobTyp =                      20
 LenSav and NKeep                       0                       0
 Entered Stor2E with KNTT1,2                     652                  129710
 Leave Stor2X
 Entering PrmDigJobTyp =                      20
 LenSav and NKeep                       0                       0
 Entered Stor2E with KNTT1,2                     680                  129694
 Leave Stor2X
 Entering PrmDigJobTyp =                      20
 LenSav and NKeep                       0                       0
 Entered Stor2E with KNTT1,2                     708                  129678
 Leave Stor2X
 Entering PrmDigJobTyp =                      20
 LenSav and NKeep                       0                       0
 Entered Stor2E with KNTT1,2                     736                  129662
 Leave Stor2X
 Entering PrmDigJobTyp =                      20
 LenSav and NKeep                       0                       0
 Entered Stor2E with KNTT1,2                     766                  129648
 Leave Stor2X
 Entering PrmDigJobTyp =                      20
 LenSav and NKeep                       0                       0
 Entered Stor2E with KNTT1,2                     786                  129632
 Leave Stor2X
 Entering PrmDigJobTyp =                      20
 LenSav and NKeep                       0                       0
 Entered Stor2E with KNTT1,2                     822                  129612
 Leave Stor2X
 Entering PrmDigJobTyp =                      20
 LenSav and NKeep                       0                       0
 Entered Stor2E with KNTT1,2                     858                  129592
 Leave Stor2X
 Entering PrmDigJobTyp =                      20
 LenSav and NKeep                       0                       0
 Entered Stor2E with KNTT1,2                     890                  129568
 Leave Stor2X
 Entering PrmDigJobTyp =                      20
 LenSav and NKeep                       0                       0
 Entered Stor2E with KNTT1,2                     906                  129560
 Leave Stor2X
 Entering PrmDigJobTyp =                      20
 LenSav and NKeep                       0                       0
 Entered Stor2E with KNTT1,2                     928                  129548
 Leave Stor2X
 Entering PrmDigJobTyp =                      20
 LenSav and NKeep                       0                       0
 Entered Stor2E with KNTT1,2                     946                  129536
 Leave Stor2X
 Entering PrmDigJobTyp =                      20
 LenSav and NKeep                       0                       0
 Entered Stor2E with KNTT1,2                     990                  129508
 Leave Stor2X
 Entering PrmDigJobTyp =                      20
 LenSav and NKeep                       0                       0
 Entered Stor2E with KNTT1,2                     990                  129472
 Leave Stor2X
 Entering PrmDigJobTyp =                      20
 LenSav and NKeep                       0                       0
 Entered Stor2E with KNTT1,2                     990                  129436
 Leave Stor2X
 Entering PrmDigJobTyp =                      20
 LenSav and NKeep                       0                       0
 Entered Stor2E with KNTT1,2                     990                  129428
 Leave Stor2X
 Entering PrmDigJobTyp =                      20
 LenSav and NKeep                       0                       0
 Entered Stor2E with KNTT1,2                    1028                  129412
 Leave Stor2X
 Entering PrmDigJobTyp =                      20
 LenSav and NKeep                       0                       0
 Entered Stor2E with KNTT1,2                    1064                  129394
 Leave Stor2X
 Entering PrmDigJobTyp =                      20
 LenSav and NKeep                       0                       0
 Entered Stor2E with KNTT1,2                    1078                  129388
 Leave Stor2X
 Entering PrmDigJobTyp =                      20
 LenSav and NKeep                       0                       0
 Entered Stor2E with KNTT1,2                    1122                  129364
 Leave Stor2X
 Entering PrmDigJobTyp =                      20
 LenSav and NKeep                       0                       0
 Entered Stor2E with KNTT1,2                    1142                  129356
 Leave Stor2X
 Entering PrmDigJobTyp =                      20
 LenSav and NKeep                       0                       0
 Entered Stor2E with KNTT1,2                    1166                  129348
 Leave Stor2X
 Entering PrmDigJobTyp =                      20
 LenSav and NKeep                       0                       0
 Entered Stor2E with KNTT1,2                    1198                  129316
 Leave Stor2X
 Entering PrmDigJobTyp =                      20
 LenSav and NKeep                       0                       0
 Entered Stor2E with KNTT1,2                    1202                  129306
 Leave Stor2X
 Entering PrmDigJobTyp =                      20
 LenSav and NKeep                       0                       0
 Entered Stor2E with KNTT1,2                    1206                  129304
 Leave Stor2X
 Entering PrmDigJobTyp =                      20
 LenSav and NKeep                       0                       0
 Entered Stor2E with KNTT1,2                    1206                  129284
 Leave Stor2X
 Entering PrmDigJobTyp =                      20
 LenSav and NKeep                       0                       0
 Entered Stor2E with KNTT1,2                    1230                  129276
 Leave Stor2X
 Entering PrmDigJobTyp =                      20
 LenSav and NKeep                       0                       0
 Entered Stor2E with KNTT1,2                    1246                  129268
 Leave Stor2X
 Entering PrmDigJobTyp =                      20
 LenSav and NKeep                       0                       0
 Entered Stor2E with KNTT1,2                    1254                  129268
 Leave Stor2X
 Entering PrmDigJobTyp =                      20
 LenSav and NKeep                       0                       0
 Entered Stor2E with KNTT1,2                    1262                  129260
 Leave Stor2X
 In PrSumR
 Called IWRITE
         1535 integrals produced for a total of         1535.
 Initial guess from the checkpoint file:  "h10.chk"
 B after Tr=     0.000000    0.000000    0.000000
         Rot=    0.534869    0.000000    0.000000    0.844935 Ang= 115.33 deg.
 Initial guess <Sx>= 0.0000 <Sy>= 0.0000 <Sz>= 0.0000 <S**2>= 0.0000 S= 0.0000
 Two-electron integrals will be kept in memory, NGetB=      152788.
 Requested convergence on RMS density matrix=1.00D-08 within 128 cycles.
 Requested convergence on MAX density matrix=1.00D-06.
 Requested convergence on             energy=1.00D-06.
 No special actions if energy rises.
 Density File Not Found. Continue as usual
 SCF Done:  E(GHF) =  -4.88641048384     A.U. after   12 cycles
            NFock= 12  Conv=0.91D-09     -V/T= 1.9971
 <Sx>= 0.0000 <Sy>= 0.0000 <Sz>= 0.0000 <S**2>= 0.0000 S= 0.0000
 <L.S>= 0.000000000000E+00
 Range of M.O.s used for correlation:     1    10
 NBasis=    10 NAE=    10 NBE=     0 NFC=     0 NFV=     0
 NROrb=     20 NOA=    10 NOB=     0 NVA=    10 NVB=     0

 **** Warning!!: The smallest alpha delta epsilon is  0.57128897D-01

 jaja DoHack is true or false? T
 jaja in hckghf.F, NBasis=                      10
 jaja in hckGHF/FixOG, LC =                      800
 jaja in hckGHF/FixOG, IRwC=                      548
 bfr conversion (real):
                 1             2             3             4             5 
      1a  0.152140D+00 -0.507053D-01  0.289672D+00 -0.283388D-01  0.341200D+00
      1b  0.507053D-01  0.152140D+00  0.283388D-01  0.289672D+00 -0.319701D-01
      2a  0.403685D-02 -0.134541D-02  0.118165D-01 -0.115602D-02  0.300778D-01
      2b  0.134541D-02  0.403685D-02  0.115602D-02  0.118165D-01 -0.281825D-02
      3a  0.248478D+00 -0.828132D-01  0.183095D+00 -0.179122D-01 -0.215165D+00
      3b  0.828132D-01  0.248478D+00  0.179122D-01  0.183095D+00  0.201607D-01
      4a  0.154968D+00 -0.516481D-01  0.294465D+00 -0.288077D-01  0.343203D+00
      4b  0.516481D-01  0.154968D+00  0.288077D-01  0.294465D+00 -0.321578D-01
      5a  0.248028D+00 -0.826632D-01 -0.180582D+00  0.176664D-01 -0.219998D+00
      5b  0.826632D-01  0.248028D+00 -0.176664D-01 -0.180582D+00  0.206136D-01
      6a  0.248028D+00 -0.826632D-01  0.180582D+00 -0.176664D-01 -0.219998D+00
      6b  0.826632D-01  0.248028D+00  0.176664D-01  0.180582D+00  0.206136D-01
      7a  0.154968D+00 -0.516481D-01 -0.294465D+00  0.288077D-01  0.343203D+00
      7b  0.516481D-01  0.154968D+00 -0.288077D-01 -0.294465D+00 -0.321578D-01
      8a  0.248478D+00 -0.828132D-01 -0.183095D+00  0.179122D-01 -0.215165D+00
      8b  0.828132D-01  0.248478D+00 -0.179122D-01 -0.183095D+00  0.201607D-01
      9a  0.403685D-02 -0.134541D-02 -0.118165D-01  0.115602D-02  0.300778D-01
      9b  0.134541D-02  0.403685D-02 -0.115602D-02 -0.118165D-01 -0.281825D-02
     10a  0.152140D+00 -0.507053D-01 -0.289672D+00  0.283388D-01  0.341200D+00
     10b  0.507053D-01  0.152140D+00 -0.283388D-01 -0.289672D+00 -0.319701D-01
                 6             7             8             9            10 
      1a  0.319701D-01  0.359276D-01 -0.247061D+00  0.700511D-01 -0.108630D+00
      1b  0.341200D+00 -0.247061D+00 -0.359276D-01 -0.108630D+00 -0.700511D-01
      2a  0.281825D-02  0.447956D-02 -0.308043D-01 -0.398374D+00  0.617769D+00
      2b  0.300778D-01 -0.308043D-01 -0.447956D-02  0.617769D+00  0.398374D+00
      3a -0.201607D-01 -0.599372D-01  0.412166D+00 -0.188240D-01  0.291909D-01
      3b -0.215165D+00  0.412166D+00  0.599372D-01  0.291909D-01  0.188240D-01
      4a  0.321578D-01  0.352958D-01 -0.242716D+00  0.673559D-01 -0.104450D+00
      4b  0.343203D+00 -0.242716D+00 -0.352958D-01 -0.104450D+00 -0.673559D-01
      5a -0.206136D-01  0.595017D-01 -0.409172D+00  0.258896D-01 -0.401477D-01
      5b -0.219998D+00 -0.409172D+00 -0.595017D-01 -0.401477D-01 -0.258896D-01
      6a -0.206136D-01 -0.595017D-01  0.409172D+00 -0.258896D-01  0.401477D-01
      6b -0.219998D+00  0.409172D+00  0.595017D-01  0.401477D-01  0.258896D-01
      7a  0.321578D-01 -0.352958D-01  0.242716D+00 -0.673559D-01  0.104450D+00
      7b  0.343203D+00  0.242716D+00  0.352958D-01  0.104450D+00  0.673559D-01
      8a -0.201607D-01  0.599372D-01 -0.412166D+00  0.188240D-01 -0.291909D-01
      8b -0.215165D+00 -0.412166D+00 -0.599372D-01 -0.291909D-01 -0.188240D-01
      9a  0.281825D-02 -0.447956D-02  0.308043D-01  0.398374D+00 -0.617769D+00
      9b  0.300778D-01  0.308043D-01  0.447956D-02 -0.617769D+00 -0.398374D+00
     10a  0.319701D-01 -0.359276D-01  0.247061D+00 -0.700511D-01  0.108630D+00
     10b  0.341200D+00  0.247061D+00  0.359276D-01  0.108630D+00  0.700511D-01
                11            12            13            14            15 
      1a  0.367540D-01 -0.121209D+00  0.491781D+00 -0.240690D+00 -0.918821D+00
      1b -0.121209D+00 -0.367540D-01  0.240690D+00  0.491781D+00 -0.194305D+00
      2a -0.213262D+00  0.703308D+00  0.983130D-02 -0.481169D-02 -0.916500D-02
      2b  0.703308D+00  0.213262D+00  0.481169D-02  0.983130D-02 -0.193814D-02
      3a -0.498758D-02  0.164483D-01  0.773775D+00 -0.378706D+00 -0.566857D+00
      3b  0.164483D-01  0.498758D-02  0.378706D+00  0.773775D+00 -0.119874D+00
      4a  0.358128D-01 -0.118105D+00 -0.519689D+00  0.254349D+00  0.948696D+00
      4b -0.118105D+00 -0.358128D-01 -0.254349D+00 -0.519689D+00  0.200623D+00
      5a -0.981263D-02  0.323606D-01  0.777957D+00 -0.380752D+00  0.521821D+00
      5b  0.323606D-01  0.981263D-02  0.380752D+00  0.777957D+00  0.110351D+00
      6a -0.981263D-02  0.323606D-01 -0.777957D+00  0.380752D+00  0.521821D+00
      6b  0.323606D-01  0.981263D-02 -0.380752D+00 -0.777957D+00  0.110351D+00
      7a  0.358128D-01 -0.118105D+00  0.519689D+00 -0.254349D+00  0.948696D+00
      7b -0.118105D+00 -0.358128D-01  0.254349D+00  0.519689D+00  0.200623D+00
      8a -0.498758D-02  0.164483D-01 -0.773775D+00  0.378706D+00 -0.566857D+00
      8b  0.164483D-01  0.498758D-02 -0.378706D+00 -0.773775D+00 -0.119874D+00
      9a -0.213262D+00  0.703308D+00 -0.983130D-02  0.481169D-02 -0.916500D-02
      9b  0.703308D+00  0.213262D+00 -0.481169D-02 -0.983130D-02 -0.193814D-02
     10a  0.367540D-01 -0.121209D+00 -0.491781D+00  0.240690D+00 -0.918821D+00
     10b -0.121209D+00 -0.367540D-01 -0.240690D+00 -0.491781D+00 -0.194305D+00
                16            17            18            19            20 
      1a  0.194305D+00 -0.620573D-01  0.101573D+01 -0.133423D-01 -0.679291D+00
      1b -0.918821D+00  0.101573D+01  0.620573D-01 -0.679291D+00  0.133423D-01
      2a  0.193814D-02  0.169960D-03 -0.278184D-02  0.212874D-03  0.108379D-01
      2b -0.916500D-02 -0.278184D-02 -0.169960D-03  0.108379D-01 -0.212874D-03
      3a  0.119874D+00  0.381222D-01 -0.623970D+00  0.222741D-01  0.113403D+01
      3b -0.566857D+00 -0.623970D+00 -0.381222D-01  0.113403D+01 -0.222741D-01
      4a -0.200623D+00  0.615896D-01 -0.100808D+01  0.125553D-01  0.639219D+00
      4b  0.948696D+00 -0.100808D+01 -0.615896D-01  0.639219D+00 -0.125553D-01
      5a -0.110351D+00  0.420396D-01 -0.688090D+00 -0.219131D-01 -0.111565D+01
      5b  0.521821D+00 -0.688090D+00 -0.420396D-01 -0.111565D+01  0.219131D-01
      6a -0.110351D+00 -0.420396D-01  0.688090D+00 -0.219131D-01 -0.111565D+01
      6b  0.521821D+00  0.688090D+00  0.420396D-01 -0.111565D+01  0.219131D-01
      7a -0.200623D+00 -0.615896D-01  0.100808D+01  0.125553D-01  0.639219D+00
      7b  0.948696D+00  0.100808D+01  0.615896D-01  0.639219D+00 -0.125553D-01
      8a  0.119874D+00 -0.381222D-01  0.623970D+00  0.222741D-01  0.113403D+01
      8b -0.566857D+00  0.623970D+00  0.381222D-01  0.113403D+01 -0.222741D-01
      9a  0.193814D-02 -0.169960D-03  0.278184D-02  0.212874D-03  0.108379D-01
      9b -0.916500D-02  0.278184D-02  0.169960D-03  0.108379D-01 -0.212874D-03
     10a  0.194305D+00  0.620573D-01 -0.101573D+01 -0.133423D-01 -0.679291D+00
     10b -0.918821D+00 -0.101573D+01 -0.620573D-01 -0.679291D+00  0.133423D-01
 bfr conversion (imaginary):
                 1             2             3             4             5 
      1a  0.000000D+00  0.000000D+00  0.000000D+00  0.000000D+00  0.000000D+00
      1b  0.000000D+00  0.000000D+00  0.000000D+00  0.000000D+00  0.000000D+00
      2a  0.000000D+00  0.000000D+00  0.000000D+00  0.000000D+00  0.000000D+00
      2b  0.000000D+00  0.000000D+00  0.000000D+00  0.000000D+00  0.000000D+00
      3a  0.000000D+00  0.000000D+00  0.000000D+00  0.000000D+00  0.000000D+00
      3b  0.000000D+00  0.000000D+00  0.000000D+00  0.000000D+00  0.000000D+00
      4a  0.000000D+00  0.000000D+00  0.000000D+00  0.000000D+00  0.000000D+00
      4b  0.000000D+00  0.000000D+00  0.000000D+00  0.000000D+00  0.000000D+00
      5a  0.000000D+00  0.000000D+00  0.000000D+00  0.000000D+00  0.000000D+00
      5b  0.000000D+00  0.000000D+00  0.000000D+00  0.000000D+00  0.000000D+00
      6a  0.000000D+00  0.000000D+00  0.000000D+00  0.000000D+00  0.000000D+00
      6b  0.000000D+00  0.000000D+00  0.000000D+00  0.000000D+00  0.000000D+00
      7a  0.000000D+00  0.000000D+00  0.000000D+00  0.000000D+00  0.000000D+00
      7b  0.000000D+00  0.000000D+00  0.000000D+00  0.000000D+00  0.000000D+00
      8a  0.000000D+00  0.000000D+00  0.000000D+00  0.000000D+00  0.000000D+00
      8b  0.000000D+00  0.000000D+00  0.000000D+00  0.000000D+00  0.000000D+00
      9a  0.000000D+00  0.000000D+00  0.000000D+00  0.000000D+00  0.000000D+00
      9b  0.000000D+00  0.000000D+00  0.000000D+00  0.000000D+00  0.000000D+00
     10a  0.000000D+00  0.000000D+00  0.000000D+00  0.000000D+00  0.000000D+00
     10b  0.000000D+00  0.000000D+00  0.000000D+00  0.000000D+00  0.000000D+00
                 6             7             8             9            10 
      1a  0.000000D+00  0.000000D+00  0.000000D+00  0.000000D+00  0.000000D+00
      1b  0.000000D+00  0.000000D+00  0.000000D+00  0.000000D+00  0.000000D+00
      2a  0.000000D+00  0.000000D+00  0.000000D+00  0.000000D+00  0.000000D+00
      2b  0.000000D+00  0.000000D+00  0.000000D+00  0.000000D+00  0.000000D+00
      3a  0.000000D+00  0.000000D+00  0.000000D+00  0.000000D+00  0.000000D+00
      3b  0.000000D+00  0.000000D+00  0.000000D+00  0.000000D+00  0.000000D+00
      4a  0.000000D+00  0.000000D+00  0.000000D+00  0.000000D+00  0.000000D+00
      4b  0.000000D+00  0.000000D+00  0.000000D+00  0.000000D+00  0.000000D+00
      5a  0.000000D+00  0.000000D+00  0.000000D+00  0.000000D+00  0.000000D+00
      5b  0.000000D+00  0.000000D+00  0.000000D+00  0.000000D+00  0.000000D+00
      6a  0.000000D+00  0.000000D+00  0.000000D+00  0.000000D+00  0.000000D+00
      6b  0.000000D+00  0.000000D+00  0.000000D+00  0.000000D+00  0.000000D+00
      7a  0.000000D+00  0.000000D+00  0.000000D+00  0.000000D+00  0.000000D+00
      7b  0.000000D+00  0.000000D+00  0.000000D+00  0.000000D+00  0.000000D+00
      8a  0.000000D+00  0.000000D+00  0.000000D+00  0.000000D+00  0.000000D+00
      8b  0.000000D+00  0.000000D+00  0.000000D+00  0.000000D+00  0.000000D+00
      9a  0.000000D+00  0.000000D+00  0.000000D+00  0.000000D+00  0.000000D+00
      9b  0.000000D+00  0.000000D+00  0.000000D+00  0.000000D+00  0.000000D+00
     10a  0.000000D+00  0.000000D+00  0.000000D+00  0.000000D+00  0.000000D+00
     10b  0.000000D+00  0.000000D+00  0.000000D+00  0.000000D+00  0.000000D+00
                11            12            13            14            15 
      1a  0.000000D+00  0.000000D+00  0.000000D+00  0.000000D+00  0.000000D+00
      1b  0.000000D+00  0.000000D+00  0.000000D+00  0.000000D+00  0.000000D+00
      2a  0.000000D+00  0.000000D+00  0.000000D+00  0.000000D+00  0.000000D+00
      2b  0.000000D+00  0.000000D+00  0.000000D+00  0.000000D+00  0.000000D+00
      3a  0.000000D+00  0.000000D+00  0.000000D+00  0.000000D+00  0.000000D+00
      3b  0.000000D+00  0.000000D+00  0.000000D+00  0.000000D+00  0.000000D+00
      4a  0.000000D+00  0.000000D+00  0.000000D+00  0.000000D+00  0.000000D+00
      4b  0.000000D+00  0.000000D+00  0.000000D+00  0.000000D+00  0.000000D+00
      5a  0.000000D+00  0.000000D+00  0.000000D+00  0.000000D+00  0.000000D+00
      5b  0.000000D+00  0.000000D+00  0.000000D+00  0.000000D+00  0.000000D+00
      6a  0.000000D+00  0.000000D+00  0.000000D+00  0.000000D+00  0.000000D+00
      6b  0.000000D+00  0.000000D+00  0.000000D+00  0.000000D+00  0.000000D+00
      7a  0.000000D+00  0.000000D+00  0.000000D+00  0.000000D+00  0.000000D+00
      7b  0.000000D+00  0.000000D+00  0.000000D+00  0.000000D+00  0.000000D+00
      8a  0.000000D+00  0.000000D+00  0.000000D+00  0.000000D+00  0.000000D+00
      8b  0.000000D+00  0.000000D+00  0.000000D+00  0.000000D+00  0.000000D+00
      9a  0.000000D+00  0.000000D+00  0.000000D+00  0.000000D+00  0.000000D+00
      9b  0.000000D+00  0.000000D+00  0.000000D+00  0.000000D+00  0.000000D+00
     10a  0.000000D+00  0.000000D+00  0.000000D+00  0.000000D+00  0.000000D+00
     10b  0.000000D+00  0.000000D+00  0.000000D+00  0.000000D+00  0.000000D+00
                16            17            18            19            20 
      1a  0.000000D+00  0.000000D+00  0.000000D+00  0.000000D+00  0.000000D+00
      1b  0.000000D+00  0.000000D+00  0.000000D+00  0.000000D+00  0.000000D+00
      2a  0.000000D+00  0.000000D+00  0.000000D+00  0.000000D+00  0.000000D+00
      2b  0.000000D+00  0.000000D+00  0.000000D+00  0.000000D+00  0.000000D+00
      3a  0.000000D+00  0.000000D+00  0.000000D+00  0.000000D+00  0.000000D+00
      3b  0.000000D+00  0.000000D+00  0.000000D+00  0.000000D+00  0.000000D+00
      4a  0.000000D+00  0.000000D+00  0.000000D+00  0.000000D+00  0.000000D+00
      4b  0.000000D+00  0.000000D+00  0.000000D+00  0.000000D+00  0.000000D+00
      5a  0.000000D+00  0.000000D+00  0.000000D+00  0.000000D+00  0.000000D+00
      5b  0.000000D+00  0.000000D+00  0.000000D+00  0.000000D+00  0.000000D+00
      6a  0.000000D+00  0.000000D+00  0.000000D+00  0.000000D+00  0.000000D+00
      6b  0.000000D+00  0.000000D+00  0.000000D+00  0.000000D+00  0.000000D+00
      7a  0.000000D+00  0.000000D+00  0.000000D+00  0.000000D+00  0.000000D+00
      7b  0.000000D+00  0.000000D+00  0.000000D+00  0.000000D+00  0.000000D+00
      8a  0.000000D+00  0.000000D+00  0.000000D+00  0.000000D+00  0.000000D+00
      8b  0.000000D+00  0.000000D+00  0.000000D+00  0.000000D+00  0.000000D+00
      9a  0.000000D+00  0.000000D+00  0.000000D+00  0.000000D+00  0.000000D+00
      9b  0.000000D+00  0.000000D+00  0.000000D+00  0.000000D+00  0.000000D+00
     10a  0.000000D+00  0.000000D+00  0.000000D+00  0.000000D+00  0.000000D+00
     10b  0.000000D+00  0.000000D+00  0.000000D+00  0.000000D+00  0.000000D+00
 afr conversion (alpha, real):
                 1             2             3             4             5 
      1   0.152140D+00 -0.507053D-01  0.289672D+00 -0.283388D-01  0.341200D+00
      2   0.403685D-02 -0.134541D-02  0.118165D-01 -0.115602D-02  0.300778D-01
      3   0.248478D+00 -0.828132D-01  0.183095D+00 -0.179122D-01 -0.215165D+00
      4   0.154968D+00 -0.516481D-01  0.294465D+00 -0.288077D-01  0.343203D+00
      5   0.248028D+00 -0.826632D-01 -0.180582D+00  0.176664D-01 -0.219998D+00
      6   0.248028D+00 -0.826632D-01  0.180582D+00 -0.176664D-01 -0.219998D+00
      7   0.154968D+00 -0.516481D-01 -0.294465D+00  0.288077D-01  0.343203D+00
      8   0.248478D+00 -0.828132D-01 -0.183095D+00  0.179122D-01 -0.215165D+00
      9   0.403685D-02 -0.134541D-02 -0.118165D-01  0.115602D-02  0.300778D-01
     10   0.152140D+00 -0.507053D-01 -0.289672D+00  0.283388D-01  0.341200D+00
                 6             7             8             9            10 
      1   0.319701D-01  0.359276D-01 -0.247061D+00  0.700511D-01 -0.108630D+00
      2   0.281825D-02  0.447956D-02 -0.308043D-01 -0.398374D+00  0.617769D+00
      3  -0.201607D-01 -0.599372D-01  0.412166D+00 -0.188240D-01  0.291909D-01
      4   0.321578D-01  0.352958D-01 -0.242716D+00  0.673559D-01 -0.104450D+00
      5  -0.206136D-01  0.595017D-01 -0.409172D+00  0.258896D-01 -0.401477D-01
      6  -0.206136D-01 -0.595017D-01  0.409172D+00 -0.258896D-01  0.401477D-01
      7   0.321578D-01 -0.352958D-01  0.242716D+00 -0.673559D-01  0.104450D+00
      8  -0.201607D-01  0.599372D-01 -0.412166D+00  0.188240D-01 -0.291909D-01
      9   0.281825D-02 -0.447956D-02  0.308043D-01  0.398374D+00 -0.617769D+00
     10   0.319701D-01 -0.359276D-01  0.247061D+00 -0.700511D-01  0.108630D+00
                11            12            13            14            15 
      1   0.367540D-01 -0.121209D+00  0.491781D+00 -0.240690D+00 -0.918821D+00
      2  -0.213262D+00  0.703308D+00  0.983130D-02 -0.481169D-02 -0.916500D-02
      3  -0.498758D-02  0.164483D-01  0.773775D+00 -0.378706D+00 -0.566857D+00
      4   0.358128D-01 -0.118105D+00 -0.519689D+00  0.254349D+00  0.948696D+00
      5  -0.981263D-02  0.323606D-01  0.777957D+00 -0.380752D+00  0.521821D+00
      6  -0.981263D-02  0.323606D-01 -0.777957D+00  0.380752D+00  0.521821D+00
      7   0.358128D-01 -0.118105D+00  0.519689D+00 -0.254349D+00  0.948696D+00
      8  -0.498758D-02  0.164483D-01 -0.773775D+00  0.378706D+00 -0.566857D+00
      9  -0.213262D+00  0.703308D+00 -0.983130D-02  0.481169D-02 -0.916500D-02
     10   0.367540D-01 -0.121209D+00 -0.491781D+00  0.240690D+00 -0.918821D+00
                16            17            18            19            20 
      1   0.194305D+00 -0.620573D-01  0.101573D+01 -0.133423D-01 -0.679291D+00
      2   0.193814D-02  0.169960D-03 -0.278184D-02  0.212874D-03  0.108379D-01
      3   0.119874D+00  0.381222D-01 -0.623970D+00  0.222741D-01  0.113403D+01
      4  -0.200623D+00  0.615896D-01 -0.100808D+01  0.125553D-01  0.639219D+00
      5  -0.110351D+00  0.420396D-01 -0.688090D+00 -0.219131D-01 -0.111565D+01
      6  -0.110351D+00 -0.420396D-01  0.688090D+00 -0.219131D-01 -0.111565D+01
      7  -0.200623D+00 -0.615896D-01  0.100808D+01  0.125553D-01  0.639219D+00
      8   0.119874D+00 -0.381222D-01  0.623970D+00  0.222741D-01  0.113403D+01
      9   0.193814D-02 -0.169960D-03  0.278184D-02  0.212874D-03  0.108379D-01
     10   0.194305D+00  0.620573D-01 -0.101573D+01 -0.133423D-01 -0.679291D+00
 afr conversion (alpha, imaginary):
                 1             2             3             4             5 
      1   0.000000D+00  0.000000D+00  0.000000D+00  0.000000D+00  0.000000D+00
      2   0.000000D+00  0.000000D+00  0.000000D+00  0.000000D+00  0.000000D+00
      3   0.000000D+00  0.000000D+00  0.000000D+00  0.000000D+00  0.000000D+00
      4   0.000000D+00  0.000000D+00  0.000000D+00  0.000000D+00  0.000000D+00
      5   0.000000D+00  0.000000D+00  0.000000D+00  0.000000D+00  0.000000D+00
      6   0.000000D+00  0.000000D+00  0.000000D+00  0.000000D+00  0.000000D+00
      7   0.000000D+00  0.000000D+00  0.000000D+00  0.000000D+00  0.000000D+00
      8   0.000000D+00  0.000000D+00  0.000000D+00  0.000000D+00  0.000000D+00
      9   0.000000D+00  0.000000D+00  0.000000D+00  0.000000D+00  0.000000D+00
     10   0.000000D+00  0.000000D+00  0.000000D+00  0.000000D+00  0.000000D+00
                 6             7             8             9            10 
      1   0.000000D+00  0.000000D+00  0.000000D+00  0.000000D+00  0.000000D+00
      2   0.000000D+00  0.000000D+00  0.000000D+00  0.000000D+00  0.000000D+00
      3   0.000000D+00  0.000000D+00  0.000000D+00  0.000000D+00  0.000000D+00
      4   0.000000D+00  0.000000D+00  0.000000D+00  0.000000D+00  0.000000D+00
      5   0.000000D+00  0.000000D+00  0.000000D+00  0.000000D+00  0.000000D+00
      6   0.000000D+00  0.000000D+00  0.000000D+00  0.000000D+00  0.000000D+00
      7   0.000000D+00  0.000000D+00  0.000000D+00  0.000000D+00  0.000000D+00
      8   0.000000D+00  0.000000D+00  0.000000D+00  0.000000D+00  0.000000D+00
      9   0.000000D+00  0.000000D+00  0.000000D+00  0.000000D+00  0.000000D+00
     10   0.000000D+00  0.000000D+00  0.000000D+00  0.000000D+00  0.000000D+00
                11            12            13            14            15 
      1   0.000000D+00  0.000000D+00  0.000000D+00  0.000000D+00  0.000000D+00
      2   0.000000D+00  0.000000D+00  0.000000D+00  0.000000D+00  0.000000D+00
      3   0.000000D+00  0.000000D+00  0.000000D+00  0.000000D+00  0.000000D+00
      4   0.000000D+00  0.000000D+00  0.000000D+00  0.000000D+00  0.000000D+00
      5   0.000000D+00  0.000000D+00  0.000000D+00  0.000000D+00  0.000000D+00
      6   0.000000D+00  0.000000D+00  0.000000D+00  0.000000D+00  0.000000D+00
      7   0.000000D+00  0.000000D+00  0.000000D+00  0.000000D+00  0.000000D+00
      8   0.000000D+00  0.000000D+00  0.000000D+00  0.000000D+00  0.000000D+00
      9   0.000000D+00  0.000000D+00  0.000000D+00  0.000000D+00  0.000000D+00
     10   0.000000D+00  0.000000D+00  0.000000D+00  0.000000D+00  0.000000D+00
                16            17            18            19            20 
      1   0.000000D+00  0.000000D+00  0.000000D+00  0.000000D+00  0.000000D+00
      2   0.000000D+00  0.000000D+00  0.000000D+00  0.000000D+00  0.000000D+00
      3   0.000000D+00  0.000000D+00  0.000000D+00  0.000000D+00  0.000000D+00
      4   0.000000D+00  0.000000D+00  0.000000D+00  0.000000D+00  0.000000D+00
      5   0.000000D+00  0.000000D+00  0.000000D+00  0.000000D+00  0.000000D+00
      6   0.000000D+00  0.000000D+00  0.000000D+00  0.000000D+00  0.000000D+00
      7   0.000000D+00  0.000000D+00  0.000000D+00  0.000000D+00  0.000000D+00
      8   0.000000D+00  0.000000D+00  0.000000D+00  0.000000D+00  0.000000D+00
      9   0.000000D+00  0.000000D+00  0.000000D+00  0.000000D+00  0.000000D+00
     10   0.000000D+00  0.000000D+00  0.000000D+00  0.000000D+00  0.000000D+00
 afr conversion (beta, real):
                 1             2             3             4             5 
      1   0.507053D-01  0.152140D+00  0.283388D-01  0.289672D+00 -0.319701D-01
      2   0.134541D-02  0.403685D-02  0.115602D-02  0.118165D-01 -0.281825D-02
      3   0.828132D-01  0.248478D+00  0.179122D-01  0.183095D+00  0.201607D-01
      4   0.516481D-01  0.154968D+00  0.288077D-01  0.294465D+00 -0.321578D-01
      5   0.826632D-01  0.248028D+00 -0.176664D-01 -0.180582D+00  0.206136D-01
      6   0.826632D-01  0.248028D+00  0.176664D-01  0.180582D+00  0.206136D-01
      7   0.516481D-01  0.154968D+00 -0.288077D-01 -0.294465D+00 -0.321578D-01
      8   0.828132D-01  0.248478D+00 -0.179122D-01 -0.183095D+00  0.201607D-01
      9   0.134541D-02  0.403685D-02 -0.115602D-02 -0.118165D-01 -0.281825D-02
     10   0.507053D-01  0.152140D+00 -0.283388D-01 -0.289672D+00 -0.319701D-01
                 6             7             8             9            10 
      1   0.341200D+00 -0.247061D+00 -0.359276D-01 -0.108630D+00 -0.700511D-01
      2   0.300778D-01 -0.308043D-01 -0.447956D-02  0.617769D+00  0.398374D+00
      3  -0.215165D+00  0.412166D+00  0.599372D-01  0.291909D-01  0.188240D-01
      4   0.343203D+00 -0.242716D+00 -0.352958D-01 -0.104450D+00 -0.673559D-01
      5  -0.219998D+00 -0.409172D+00 -0.595017D-01 -0.401477D-01 -0.258896D-01
      6  -0.219998D+00  0.409172D+00  0.595017D-01  0.401477D-01  0.258896D-01
      7   0.343203D+00  0.242716D+00  0.352958D-01  0.104450D+00  0.673559D-01
      8  -0.215165D+00 -0.412166D+00 -0.599372D-01 -0.291909D-01 -0.188240D-01
      9   0.300778D-01  0.308043D-01  0.447956D-02 -0.617769D+00 -0.398374D+00
     10   0.341200D+00  0.247061D+00  0.359276D-01  0.108630D+00  0.700511D-01
                11            12            13            14            15 
      1  -0.121209D+00 -0.367540D-01  0.240690D+00  0.491781D+00 -0.194305D+00
      2   0.703308D+00  0.213262D+00  0.481169D-02  0.983130D-02 -0.193814D-02
      3   0.164483D-01  0.498758D-02  0.378706D+00  0.773775D+00 -0.119874D+00
      4  -0.118105D+00 -0.358128D-01 -0.254349D+00 -0.519689D+00  0.200623D+00
      5   0.323606D-01  0.981263D-02  0.380752D+00  0.777957D+00  0.110351D+00
      6   0.323606D-01  0.981263D-02 -0.380752D+00 -0.777957D+00  0.110351D+00
      7  -0.118105D+00 -0.358128D-01  0.254349D+00  0.519689D+00  0.200623D+00
      8   0.164483D-01  0.498758D-02 -0.378706D+00 -0.773775D+00 -0.119874D+00
      9   0.703308D+00  0.213262D+00 -0.481169D-02 -0.983130D-02 -0.193814D-02
     10  -0.121209D+00 -0.367540D-01 -0.240690D+00 -0.491781D+00 -0.194305D+00
                16            17            18            19            20 
      1  -0.918821D+00  0.101573D+01  0.620573D-01 -0.679291D+00  0.133423D-01
      2  -0.916500D-02 -0.278184D-02 -0.169960D-03  0.108379D-01 -0.212874D-03
      3  -0.566857D+00 -0.623970D+00 -0.381222D-01  0.113403D+01 -0.222741D-01
      4   0.948696D+00 -0.100808D+01 -0.615896D-01  0.639219D+00 -0.125553D-01
      5   0.521821D+00 -0.688090D+00 -0.420396D-01 -0.111565D+01  0.219131D-01
      6   0.521821D+00  0.688090D+00  0.420396D-01 -0.111565D+01  0.219131D-01
      7   0.948696D+00  0.100808D+01  0.615896D-01  0.639219D+00 -0.125553D-01
      8  -0.566857D+00  0.623970D+00  0.381222D-01  0.113403D+01 -0.222741D-01
      9  -0.916500D-02  0.278184D-02  0.169960D-03  0.108379D-01 -0.212874D-03
     10  -0.918821D+00 -0.101573D+01 -0.620573D-01 -0.679291D+00  0.133423D-01
 afr conversion (beta, imaginary):
                 1             2             3             4             5 
      1   0.000000D+00  0.000000D+00  0.000000D+00  0.000000D+00  0.000000D+00
      2   0.000000D+00  0.000000D+00  0.000000D+00  0.000000D+00  0.000000D+00
      3   0.000000D+00  0.000000D+00  0.000000D+00  0.000000D+00  0.000000D+00
      4   0.000000D+00  0.000000D+00  0.000000D+00  0.000000D+00  0.000000D+00
      5   0.000000D+00  0.000000D+00  0.000000D+00  0.000000D+00  0.000000D+00
      6   0.000000D+00  0.000000D+00  0.000000D+00  0.000000D+00  0.000000D+00
      7   0.000000D+00  0.000000D+00  0.000000D+00  0.000000D+00  0.000000D+00
      8   0.000000D+00  0.000000D+00  0.000000D+00  0.000000D+00  0.000000D+00
      9   0.000000D+00  0.000000D+00  0.000000D+00  0.000000D+00  0.000000D+00
     10   0.000000D+00  0.000000D+00  0.000000D+00  0.000000D+00  0.000000D+00
                 6             7             8             9            10 
      1   0.000000D+00  0.000000D+00  0.000000D+00  0.000000D+00  0.000000D+00
      2   0.000000D+00  0.000000D+00  0.000000D+00  0.000000D+00  0.000000D+00
      3   0.000000D+00  0.000000D+00  0.000000D+00  0.000000D+00  0.000000D+00
      4   0.000000D+00  0.000000D+00  0.000000D+00  0.000000D+00  0.000000D+00
      5   0.000000D+00  0.000000D+00  0.000000D+00  0.000000D+00  0.000000D+00
      6   0.000000D+00  0.000000D+00  0.000000D+00  0.000000D+00  0.000000D+00
      7   0.000000D+00  0.000000D+00  0.000000D+00  0.000000D+00  0.000000D+00
      8   0.000000D+00  0.000000D+00  0.000000D+00  0.000000D+00  0.000000D+00
      9   0.000000D+00  0.000000D+00  0.000000D+00  0.000000D+00  0.000000D+00
     10   0.000000D+00  0.000000D+00  0.000000D+00  0.000000D+00  0.000000D+00
                11            12            13            14            15 
      1   0.000000D+00  0.000000D+00  0.000000D+00  0.000000D+00  0.000000D+00
      2   0.000000D+00  0.000000D+00  0.000000D+00  0.000000D+00  0.000000D+00
      3   0.000000D+00  0.000000D+00  0.000000D+00  0.000000D+00  0.000000D+00
      4   0.000000D+00  0.000000D+00  0.000000D+00  0.000000D+00  0.000000D+00
      5   0.000000D+00  0.000000D+00  0.000000D+00  0.000000D+00  0.000000D+00
      6   0.000000D+00  0.000000D+00  0.000000D+00  0.000000D+00  0.000000D+00
      7   0.000000D+00  0.000000D+00  0.000000D+00  0.000000D+00  0.000000D+00
      8   0.000000D+00  0.000000D+00  0.000000D+00  0.000000D+00  0.000000D+00
      9   0.000000D+00  0.000000D+00  0.000000D+00  0.000000D+00  0.000000D+00
     10   0.000000D+00  0.000000D+00  0.000000D+00  0.000000D+00  0.000000D+00
                16            17            18            19            20 
      1   0.000000D+00  0.000000D+00  0.000000D+00  0.000000D+00  0.000000D+00
      2   0.000000D+00  0.000000D+00  0.000000D+00  0.000000D+00  0.000000D+00
      3   0.000000D+00  0.000000D+00  0.000000D+00  0.000000D+00  0.000000D+00
      4   0.000000D+00  0.000000D+00  0.000000D+00  0.000000D+00  0.000000D+00
      5   0.000000D+00  0.000000D+00  0.000000D+00  0.000000D+00  0.000000D+00
      6   0.000000D+00  0.000000D+00  0.000000D+00  0.000000D+00  0.000000D+00
      7   0.000000D+00  0.000000D+00  0.000000D+00  0.000000D+00  0.000000D+00
      8   0.000000D+00  0.000000D+00  0.000000D+00  0.000000D+00  0.000000D+00
      9   0.000000D+00  0.000000D+00  0.000000D+00  0.000000D+00  0.000000D+00
     10   0.000000D+00  0.000000D+00  0.000000D+00  0.000000D+00  0.000000D+00
 jaja in hckghf.F, ISPECT =                     548
Spin block MO for GHF transformation
NOA =   10   NOB =   10
NVA =   10   NVB =   10
 NOAvA in Hack                     100
 jaja in tranN3.F, ISPECT =                     548
 in l802/tranN3.F, LSPECT =                      800
 NMat, NBtSiz,MDV                    8372                   16000
                133954722
 TranN3:  NGot= 134217728 NBasic=    263006 NTTT=       550 NMat=      8372.
 Defined bucket =                      51                   10000
 Defined bucket =                      52                   10000
 Defined bucket =                      53                   10000
 Defined bucket =                      55                   10000
 Defined bucket =                      57                   10000
 Defined bucket =                      58                   10000
 Defined bucket =                      60                   10000
 Defined bucket =                      72                   10000
 Defined bucket =                      73                   10000
 Defined bucket =                      74                   10000
 Defined bucket =                      75                   10000
 Defined bucket =                      76                   10000
 (IK/LS) integrals will be saved in memory.
 TrCghf made   2 passes through the AO integrals.
 jaja DoHack is true or false? F
 jaja in hckghf.F, NBasis=                      10
 jaja in hckGHF/FixOG, LC =                      800
 jaja in hckGHF/FixOG, IRwC=                      548
 bfr conversion (alpha, real):
                 1             2             3             4             5 
      1   0.152140D+00 -0.507053D-01  0.289672D+00 -0.283388D-01  0.341200D+00
      2   0.403685D-02 -0.134541D-02  0.118165D-01 -0.115602D-02  0.300778D-01
      3   0.248478D+00 -0.828132D-01  0.183095D+00 -0.179122D-01 -0.215165D+00
      4   0.154968D+00 -0.516481D-01  0.294465D+00 -0.288077D-01  0.343203D+00
      5   0.248028D+00 -0.826632D-01 -0.180582D+00  0.176664D-01 -0.219998D+00
      6   0.248028D+00 -0.826632D-01  0.180582D+00 -0.176664D-01 -0.219998D+00
      7   0.154968D+00 -0.516481D-01 -0.294465D+00  0.288077D-01  0.343203D+00
      8   0.248478D+00 -0.828132D-01 -0.183095D+00  0.179122D-01 -0.215165D+00
      9   0.403685D-02 -0.134541D-02 -0.118165D-01  0.115602D-02  0.300778D-01
     10   0.152140D+00 -0.507053D-01 -0.289672D+00  0.283388D-01  0.341200D+00
                 6             7             8             9            10 
      1   0.319701D-01  0.359276D-01 -0.247061D+00  0.700511D-01 -0.108630D+00
      2   0.281825D-02  0.447956D-02 -0.308043D-01 -0.398374D+00  0.617769D+00
      3  -0.201607D-01 -0.599372D-01  0.412166D+00 -0.188240D-01  0.291909D-01
      4   0.321578D-01  0.352958D-01 -0.242716D+00  0.673559D-01 -0.104450D+00
      5  -0.206136D-01  0.595017D-01 -0.409172D+00  0.258896D-01 -0.401477D-01
      6  -0.206136D-01 -0.595017D-01  0.409172D+00 -0.258896D-01  0.401477D-01
      7   0.321578D-01 -0.352958D-01  0.242716D+00 -0.673559D-01  0.104450D+00
      8  -0.201607D-01  0.599372D-01 -0.412166D+00  0.188240D-01 -0.291909D-01
      9   0.281825D-02 -0.447956D-02  0.308043D-01  0.398374D+00 -0.617769D+00
     10   0.319701D-01 -0.359276D-01  0.247061D+00 -0.700511D-01  0.108630D+00
                11            12            13            14            15 
      1   0.367540D-01 -0.121209D+00  0.491781D+00 -0.240690D+00 -0.918821D+00
      2  -0.213262D+00  0.703308D+00  0.983130D-02 -0.481169D-02 -0.916500D-02
      3  -0.498758D-02  0.164483D-01  0.773775D+00 -0.378706D+00 -0.566857D+00
      4   0.358128D-01 -0.118105D+00 -0.519689D+00  0.254349D+00  0.948696D+00
      5  -0.981263D-02  0.323606D-01  0.777957D+00 -0.380752D+00  0.521821D+00
      6  -0.981263D-02  0.323606D-01 -0.777957D+00  0.380752D+00  0.521821D+00
      7   0.358128D-01 -0.118105D+00  0.519689D+00 -0.254349D+00  0.948696D+00
      8  -0.498758D-02  0.164483D-01 -0.773775D+00  0.378706D+00 -0.566857D+00
      9  -0.213262D+00  0.703308D+00 -0.983130D-02  0.481169D-02 -0.916500D-02
     10   0.367540D-01 -0.121209D+00 -0.491781D+00  0.240690D+00 -0.918821D+00
                16            17            18            19            20 
      1   0.194305D+00 -0.620573D-01  0.101573D+01 -0.133423D-01 -0.679291D+00
      2   0.193814D-02  0.169960D-03 -0.278184D-02  0.212874D-03  0.108379D-01
      3   0.119874D+00  0.381222D-01 -0.623970D+00  0.222741D-01  0.113403D+01
      4  -0.200623D+00  0.615896D-01 -0.100808D+01  0.125553D-01  0.639219D+00
      5  -0.110351D+00  0.420396D-01 -0.688090D+00 -0.219131D-01 -0.111565D+01
      6  -0.110351D+00 -0.420396D-01  0.688090D+00 -0.219131D-01 -0.111565D+01
      7  -0.200623D+00 -0.615896D-01  0.100808D+01  0.125553D-01  0.639219D+00
      8   0.119874D+00 -0.381222D-01  0.623970D+00  0.222741D-01  0.113403D+01
      9   0.193814D-02 -0.169960D-03  0.278184D-02  0.212874D-03  0.108379D-01
     10   0.194305D+00  0.620573D-01 -0.101573D+01 -0.133423D-01 -0.679291D+00
 bfr conversion (alpha, imaginary):
                 1             2             3             4             5 
      1   0.000000D+00  0.000000D+00  0.000000D+00  0.000000D+00  0.000000D+00
      2   0.000000D+00  0.000000D+00  0.000000D+00  0.000000D+00  0.000000D+00
      3   0.000000D+00  0.000000D+00  0.000000D+00  0.000000D+00  0.000000D+00
      4   0.000000D+00  0.000000D+00  0.000000D+00  0.000000D+00  0.000000D+00
      5   0.000000D+00  0.000000D+00  0.000000D+00  0.000000D+00  0.000000D+00
      6   0.000000D+00  0.000000D+00  0.000000D+00  0.000000D+00  0.000000D+00
      7   0.000000D+00  0.000000D+00  0.000000D+00  0.000000D+00  0.000000D+00
      8   0.000000D+00  0.000000D+00  0.000000D+00  0.000000D+00  0.000000D+00
      9   0.000000D+00  0.000000D+00  0.000000D+00  0.000000D+00  0.000000D+00
     10   0.000000D+00  0.000000D+00  0.000000D+00  0.000000D+00  0.000000D+00
                 6             7             8             9            10 
      1   0.000000D+00  0.000000D+00  0.000000D+00  0.000000D+00  0.000000D+00
      2   0.000000D+00  0.000000D+00  0.000000D+00  0.000000D+00  0.000000D+00
      3   0.000000D+00  0.000000D+00  0.000000D+00  0.000000D+00  0.000000D+00
      4   0.000000D+00  0.000000D+00  0.000000D+00  0.000000D+00  0.000000D+00
      5   0.000000D+00  0.000000D+00  0.000000D+00  0.000000D+00  0.000000D+00
      6   0.000000D+00  0.000000D+00  0.000000D+00  0.000000D+00  0.000000D+00
      7   0.000000D+00  0.000000D+00  0.000000D+00  0.000000D+00  0.000000D+00
      8   0.000000D+00  0.000000D+00  0.000000D+00  0.000000D+00  0.000000D+00
      9   0.000000D+00  0.000000D+00  0.000000D+00  0.000000D+00  0.000000D+00
     10   0.000000D+00  0.000000D+00  0.000000D+00  0.000000D+00  0.000000D+00
                11            12            13            14            15 
      1   0.000000D+00  0.000000D+00  0.000000D+00  0.000000D+00  0.000000D+00
      2   0.000000D+00  0.000000D+00  0.000000D+00  0.000000D+00  0.000000D+00
      3   0.000000D+00  0.000000D+00  0.000000D+00  0.000000D+00  0.000000D+00
      4   0.000000D+00  0.000000D+00  0.000000D+00  0.000000D+00  0.000000D+00
      5   0.000000D+00  0.000000D+00  0.000000D+00  0.000000D+00  0.000000D+00
      6   0.000000D+00  0.000000D+00  0.000000D+00  0.000000D+00  0.000000D+00
      7   0.000000D+00  0.000000D+00  0.000000D+00  0.000000D+00  0.000000D+00
      8   0.000000D+00  0.000000D+00  0.000000D+00  0.000000D+00  0.000000D+00
      9   0.000000D+00  0.000000D+00  0.000000D+00  0.000000D+00  0.000000D+00
     10   0.000000D+00  0.000000D+00  0.000000D+00  0.000000D+00  0.000000D+00
                16            17            18            19            20 
      1   0.000000D+00  0.000000D+00  0.000000D+00  0.000000D+00  0.000000D+00
      2   0.000000D+00  0.000000D+00  0.000000D+00  0.000000D+00  0.000000D+00
      3   0.000000D+00  0.000000D+00  0.000000D+00  0.000000D+00  0.000000D+00
      4   0.000000D+00  0.000000D+00  0.000000D+00  0.000000D+00  0.000000D+00
      5   0.000000D+00  0.000000D+00  0.000000D+00  0.000000D+00  0.000000D+00
      6   0.000000D+00  0.000000D+00  0.000000D+00  0.000000D+00  0.000000D+00
      7   0.000000D+00  0.000000D+00  0.000000D+00  0.000000D+00  0.000000D+00
      8   0.000000D+00  0.000000D+00  0.000000D+00  0.000000D+00  0.000000D+00
      9   0.000000D+00  0.000000D+00  0.000000D+00  0.000000D+00  0.000000D+00
     10   0.000000D+00  0.000000D+00  0.000000D+00  0.000000D+00  0.000000D+00
 bfr conversion (beta, real):
                 1             2             3             4             5 
      1   0.507053D-01  0.152140D+00  0.283388D-01  0.289672D+00 -0.319701D-01
      2   0.134541D-02  0.403685D-02  0.115602D-02  0.118165D-01 -0.281825D-02
      3   0.828132D-01  0.248478D+00  0.179122D-01  0.183095D+00  0.201607D-01
      4   0.516481D-01  0.154968D+00  0.288077D-01  0.294465D+00 -0.321578D-01
      5   0.826632D-01  0.248028D+00 -0.176664D-01 -0.180582D+00  0.206136D-01
      6   0.826632D-01  0.248028D+00  0.176664D-01  0.180582D+00  0.206136D-01
      7   0.516481D-01  0.154968D+00 -0.288077D-01 -0.294465D+00 -0.321578D-01
      8   0.828132D-01  0.248478D+00 -0.179122D-01 -0.183095D+00  0.201607D-01
      9   0.134541D-02  0.403685D-02 -0.115602D-02 -0.118165D-01 -0.281825D-02
     10   0.507053D-01  0.152140D+00 -0.283388D-01 -0.289672D+00 -0.319701D-01
                 6             7             8             9            10 
      1   0.341200D+00 -0.247061D+00 -0.359276D-01 -0.108630D+00 -0.700511D-01
      2   0.300778D-01 -0.308043D-01 -0.447956D-02  0.617769D+00  0.398374D+00
      3  -0.215165D+00  0.412166D+00  0.599372D-01  0.291909D-01  0.188240D-01
      4   0.343203D+00 -0.242716D+00 -0.352958D-01 -0.104450D+00 -0.673559D-01
      5  -0.219998D+00 -0.409172D+00 -0.595017D-01 -0.401477D-01 -0.258896D-01
      6  -0.219998D+00  0.409172D+00  0.595017D-01  0.401477D-01  0.258896D-01
      7   0.343203D+00  0.242716D+00  0.352958D-01  0.104450D+00  0.673559D-01
      8  -0.215165D+00 -0.412166D+00 -0.599372D-01 -0.291909D-01 -0.188240D-01
      9   0.300778D-01  0.308043D-01  0.447956D-02 -0.617769D+00 -0.398374D+00
     10   0.341200D+00  0.247061D+00  0.359276D-01  0.108630D+00  0.700511D-01
                11            12            13            14            15 
      1  -0.121209D+00 -0.367540D-01  0.240690D+00  0.491781D+00 -0.194305D+00
      2   0.703308D+00  0.213262D+00  0.481169D-02  0.983130D-02 -0.193814D-02
      3   0.164483D-01  0.498758D-02  0.378706D+00  0.773775D+00 -0.119874D+00
      4  -0.118105D+00 -0.358128D-01 -0.254349D+00 -0.519689D+00  0.200623D+00
      5   0.323606D-01  0.981263D-02  0.380752D+00  0.777957D+00  0.110351D+00
      6   0.323606D-01  0.981263D-02 -0.380752D+00 -0.777957D+00  0.110351D+00
      7  -0.118105D+00 -0.358128D-01  0.254349D+00  0.519689D+00  0.200623D+00
      8   0.164483D-01  0.498758D-02 -0.378706D+00 -0.773775D+00 -0.119874D+00
      9   0.703308D+00  0.213262D+00 -0.481169D-02 -0.983130D-02 -0.193814D-02
     10  -0.121209D+00 -0.367540D-01 -0.240690D+00 -0.491781D+00 -0.194305D+00
                16            17            18            19            20 
      1  -0.918821D+00  0.101573D+01  0.620573D-01 -0.679291D+00  0.133423D-01
      2  -0.916500D-02 -0.278184D-02 -0.169960D-03  0.108379D-01 -0.212874D-03
      3  -0.566857D+00 -0.623970D+00 -0.381222D-01  0.113403D+01 -0.222741D-01
      4   0.948696D+00 -0.100808D+01 -0.615896D-01  0.639219D+00 -0.125553D-01
      5   0.521821D+00 -0.688090D+00 -0.420396D-01 -0.111565D+01  0.219131D-01
      6   0.521821D+00  0.688090D+00  0.420396D-01 -0.111565D+01  0.219131D-01
      7   0.948696D+00  0.100808D+01  0.615896D-01  0.639219D+00 -0.125553D-01
      8  -0.566857D+00  0.623970D+00  0.381222D-01  0.113403D+01 -0.222741D-01
      9  -0.916500D-02  0.278184D-02  0.169960D-03  0.108379D-01 -0.212874D-03
     10  -0.918821D+00 -0.101573D+01 -0.620573D-01 -0.679291D+00  0.133423D-01
 bfr conversion (beta, imaginary):
                 1             2             3             4             5 
      1   0.000000D+00  0.000000D+00  0.000000D+00  0.000000D+00  0.000000D+00
      2   0.000000D+00  0.000000D+00  0.000000D+00  0.000000D+00  0.000000D+00
      3   0.000000D+00  0.000000D+00  0.000000D+00  0.000000D+00  0.000000D+00
      4   0.000000D+00  0.000000D+00  0.000000D+00  0.000000D+00  0.000000D+00
      5   0.000000D+00  0.000000D+00  0.000000D+00  0.000000D+00  0.000000D+00
      6   0.000000D+00  0.000000D+00  0.000000D+00  0.000000D+00  0.000000D+00
      7   0.000000D+00  0.000000D+00  0.000000D+00  0.000000D+00  0.000000D+00
      8   0.000000D+00  0.000000D+00  0.000000D+00  0.000000D+00  0.000000D+00
      9   0.000000D+00  0.000000D+00  0.000000D+00  0.000000D+00  0.000000D+00
     10   0.000000D+00  0.000000D+00  0.000000D+00  0.000000D+00  0.000000D+00
                 6             7             8             9            10 
      1   0.000000D+00  0.000000D+00  0.000000D+00  0.000000D+00  0.000000D+00
      2   0.000000D+00  0.000000D+00  0.000000D+00  0.000000D+00  0.000000D+00
      3   0.000000D+00  0.000000D+00  0.000000D+00  0.000000D+00  0.000000D+00
      4   0.000000D+00  0.000000D+00  0.000000D+00  0.000000D+00  0.000000D+00
[...]
      6b-0.346149D-01  0.131615D+00  0.117049D-01  0.423394D-01 -0.890701D-01
      7a-0.647207D-01  0.122065D-01  0.166005D-01 -0.176245D+00 -0.158665D+00
      7b-0.122498D-01 -0.263121D+00 -0.437203D-03  0.141102D+00 -0.388676D-01
      8a-0.155550D+00 -0.434519D-01 -0.122239D-01  0.383715D-01 -0.839664D-01
      8b-0.362401D-01 -0.119312D-01 -0.954509D-02 -0.363872D-01 -0.451776D-01
      9a 0.184864D-01 -0.146590D+00 -0.739699D-01  0.103967D+01 -0.195548D-01
      9b 0.345247D-01  0.145991D+00 -0.212860D+00 -0.901451D+00 -0.230383D-02
     10a-0.635668D-01  0.133835D-01  0.178865D-01 -0.179889D+00 -0.154257D+00
     10b-0.121292D-01 -0.262207D+00  0.122574D-02  0.147047D+00 -0.384578D-01
                3b            4a            4b            5a            5b
      3b 0.761002D+00
      4a-0.355966D-01  0.606470D+00
      4b 0.148811D+00 -0.513134D-01  0.787335D+00
      5a-0.430547D-01 -0.161062D+00 -0.447806D-01  0.452959D+00
      5b-0.101502D+00 -0.357845D-01 -0.143628D-01 -0.920592D-01  0.756508D+00
      6a-0.888498D-01 -0.192291D-01 -0.322849D-01 -0.758862D-01 -0.451201D-01
      6b 0.758515D+00 -0.360084D-01  0.141350D+00 -0.422965D-01 -0.974911D-01
      7a-0.459045D-01 -0.653764D-01  0.105733D-01 -0.291152D-01 -0.224935D-01
      7b-0.166954D-01 -0.128355D-01 -0.264157D+00 -0.262170D-01  0.140984D+00
      8a-0.433764D-01 -0.159923D+00 -0.435734D-01  0.452691D+00 -0.911783D-01
      8b-0.105817D+00 -0.365365D-01 -0.167764D-01 -0.913986D-01  0.758601D+00
      9a 0.456128D-01  0.140664D-01 -0.139284D+00  0.627622D-01 -0.665838D-01
      9b-0.366578D-01  0.365232D-01  0.139913D+00 -0.513271D-01  0.446644D-01
     10a-0.456696D-01 -0.641291D-01  0.117298D-01 -0.340194D-01 -0.214864D-01
     10b-0.118535D-01 -0.127265D-01 -0.263103D+00 -0.248509D-01  0.131250D+00
                6a            6b            7a            7b            8a
      6a 0.450213D+00
      6b-0.886719D-01  0.756385D+00
      7a-0.158473D+00 -0.489149D-01  0.639053D+00
      7b-0.399188D-01 -0.142171D-01 -0.745759D-01  0.788253D+00
      8a-0.799508D-01 -0.427928D-01 -0.211265D-01 -0.287273D-01  0.452718D+00
      8b-0.450634D-01 -0.101511D+00 -0.258580D-01  0.148550D+00 -0.907091D-01
      9a-0.309374D-01  0.641355D-01 -0.221659D+00  0.141882D+00  0.454088D-01
      9b 0.242188D-02 -0.530001D-01  0.178559D+00 -0.110780D+00 -0.409275D-01
     10a-0.154036D+00 -0.487437D-01  0.634753D+00 -0.755511D-01 -0.260199D-01
     10b-0.395339D-01 -0.932612D-02 -0.752307D-01  0.781623D+00 -0.274257D-01
                8b            9a            9b           10a           10b
      8b 0.761055D+00
      9a-0.479481D-01  0.154966D+01
      9b 0.286231D-01 -0.106979D+01  0.927894D+00
     10a-0.249188D-01 -0.228303D+00  0.182300D+00  0.630593D+00
     10b 0.138829D+00  0.149258D+00 -0.117150D+00 -0.762348D-01  0.775211D+00
 jaja lower-tri density matrix (imaginary):
                1a            1b            2a            2b            3a
      1a 0.000000D+00
      1b 0.000000D+00  0.000000D+00
      2a 0.000000D+00  0.000000D+00  0.000000D+00
      2b 0.000000D+00  0.000000D+00  0.000000D+00  0.000000D+00
      3a 0.000000D+00  0.000000D+00  0.000000D+00  0.000000D+00  0.000000D+00
      3b 0.000000D+00  0.000000D+00  0.000000D+00  0.000000D+00  0.000000D+00
      4a 0.000000D+00  0.000000D+00  0.000000D+00  0.000000D+00  0.000000D+00
      4b 0.000000D+00  0.000000D+00  0.000000D+00  0.000000D+00  0.000000D+00
      5a 0.000000D+00  0.000000D+00  0.000000D+00  0.000000D+00  0.000000D+00
      5b 0.000000D+00  0.000000D+00  0.000000D+00  0.000000D+00  0.000000D+00
      6a 0.000000D+00  0.000000D+00  0.000000D+00  0.000000D+00  0.000000D+00
      6b 0.000000D+00  0.000000D+00  0.000000D+00  0.000000D+00  0.000000D+00
      7a 0.000000D+00  0.000000D+00  0.000000D+00  0.000000D+00  0.000000D+00
      7b 0.000000D+00  0.000000D+00  0.000000D+00  0.000000D+00  0.000000D+00
      8a 0.000000D+00  0.000000D+00  0.000000D+00  0.000000D+00  0.000000D+00
      8b 0.000000D+00  0.000000D+00  0.000000D+00  0.000000D+00  0.000000D+00
      9a 0.000000D+00  0.000000D+00  0.000000D+00  0.000000D+00  0.000000D+00
      9b 0.000000D+00  0.000000D+00  0.000000D+00  0.000000D+00  0.000000D+00
     10a 0.000000D+00  0.000000D+00  0.000000D+00  0.000000D+00  0.000000D+00
     10b 0.000000D+00  0.000000D+00  0.000000D+00  0.000000D+00  0.000000D+00
                3b            4a            4b            5a            5b
      3b 0.000000D+00
      4a 0.000000D+00  0.000000D+00
      4b 0.000000D+00  0.000000D+00  0.000000D+00
      5a 0.000000D+00  0.000000D+00  0.000000D+00  0.000000D+00
      5b 0.000000D+00  0.000000D+00  0.000000D+00  0.000000D+00  0.000000D+00
      6a 0.000000D+00  0.000000D+00  0.000000D+00  0.000000D+00  0.000000D+00
      6b 0.000000D+00  0.000000D+00  0.000000D+00  0.000000D+00  0.000000D+00
      7a 0.000000D+00  0.000000D+00  0.000000D+00  0.000000D+00  0.000000D+00
      7b 0.000000D+00  0.000000D+00  0.000000D+00  0.000000D+00  0.000000D+00
      8a 0.000000D+00  0.000000D+00  0.000000D+00  0.000000D+00  0.000000D+00
      8b 0.000000D+00  0.000000D+00  0.000000D+00  0.000000D+00  0.000000D+00
      9a 0.000000D+00  0.000000D+00  0.000000D+00  0.000000D+00  0.000000D+00
      9b 0.000000D+00  0.000000D+00  0.000000D+00  0.000000D+00  0.000000D+00
     10a 0.000000D+00  0.000000D+00  0.000000D+00  0.000000D+00  0.000000D+00
     10b 0.000000D+00  0.000000D+00  0.000000D+00  0.000000D+00  0.000000D+00
                6a            6b            7a            7b            8a
      6a 0.000000D+00
      6b 0.000000D+00  0.000000D+00
      7a 0.000000D+00  0.000000D+00  0.000000D+00
      7b 0.000000D+00  0.000000D+00  0.000000D+00  0.000000D+00
      8a 0.000000D+00  0.000000D+00  0.000000D+00  0.000000D+00  0.000000D+00
      8b 0.000000D+00  0.000000D+00  0.000000D+00  0.000000D+00  0.000000D+00
      9a 0.000000D+00  0.000000D+00  0.000000D+00  0.000000D+00  0.000000D+00
      9b 0.000000D+00  0.000000D+00  0.000000D+00  0.000000D+00  0.000000D+00
     10a 0.000000D+00  0.000000D+00  0.000000D+00  0.000000D+00  0.000000D+00
     10b 0.000000D+00  0.000000D+00  0.000000D+00  0.000000D+00  0.000000D+00
                8b            9a            9b           10a           10b
      8b 0.000000D+00
      9a 0.000000D+00  0.000000D+00
      9b 0.000000D+00  0.000000D+00  0.000000D+00
     10a 0.000000D+00  0.000000D+00  0.000000D+00  0.000000D+00
     10b 0.000000D+00  0.000000D+00  0.000000D+00  0.000000D+00  0.000000D+00
 jaja non-ortho density matrix               [Gau-style] (real):
                 1             2             3             4             5 
      1a  0.596155D+00 -0.492428D-01 -0.281974D-01 -0.362011D-01 -0.183201D-01
      1b -0.492428D-01  0.774164D+00 -0.315938D-02 -0.110154D+00 -0.317197D-01
      2a -0.281974D-01 -0.315938D-02  0.382938D+00  0.209720D+00  0.506751D-05
      2b -0.362011D-01 -0.110154D+00  0.209720D+00  0.880796D+00  0.106595D-02
      3a -0.183201D-01 -0.317197D-01  0.506751D-05  0.106595D-02  0.451014D+00
      3b -0.342266D-01  0.139087D+00  0.808662D-02  0.268151D-01 -0.893290D-01
      4a  0.601246D+00 -0.504195D-01 -0.263009D-01 -0.382077D-01 -0.134747D-01
      4b -0.500991D-01  0.780640D+00 -0.153020D-02 -0.103980D+00 -0.327273D-01
      5a -0.156657D+00 -0.447329D-01 -0.158703D-01  0.485577D-01 -0.797638D-01
      5b -0.355231D-01 -0.946807D-02 -0.131560D-01 -0.524219D-01 -0.453253D-01
      6a -0.240530D-01 -0.312505D-01  0.440331D-02 -0.355175D-02  0.450513D+00
      6b -0.346149D-01  0.131615D+00  0.117049D-01  0.423394D-01 -0.890701D-01
      7a -0.647207D-01  0.122065D-01  0.166005D-01 -0.176245D+00 -0.158665D+00
      7b -0.122498D-01 -0.263121D+00 -0.437203D-03  0.141102D+00 -0.388676D-01
      8a -0.155550D+00 -0.434519D-01 -0.122239D-01  0.383715D-01 -0.839664D-01
      8b -0.362401D-01 -0.119312D-01 -0.954509D-02 -0.363872D-01 -0.451776D-01
      9a  0.184864D-01 -0.146590D+00 -0.739699D-01  0.103967D+01 -0.195548D-01
      9b  0.345247D-01  0.145991D+00 -0.212860D+00 -0.901451D+00 -0.230383D-02
     10a -0.635668D-01  0.133835D-01  0.178865D-01 -0.179889D+00 -0.154257D+00
     10b -0.121292D-01 -0.262207D+00  0.122574D-02  0.147047D+00 -0.384578D-01
                 6             7             8             9            10 
      1a -0.342266D-01  0.601246D+00 -0.500991D-01 -0.156657D+00 -0.355231D-01
      1b  0.139087D+00 -0.504195D-01  0.780640D+00 -0.447329D-01 -0.946807D-02
      2a  0.808662D-02 -0.263009D-01 -0.153020D-02 -0.158703D-01 -0.131560D-01
      2b  0.268151D-01 -0.382077D-01 -0.103980D+00  0.485577D-01 -0.524219D-01
      3a -0.893290D-01 -0.134747D-01 -0.327273D-01 -0.797638D-01 -0.453253D-01
      3b  0.761002D+00 -0.355966D-01  0.148811D+00 -0.430547D-01 -0.101502D+00
      4a -0.355966D-01  0.606470D+00 -0.513134D-01 -0.161062D+00 -0.357845D-01
      4b  0.148811D+00 -0.513134D-01  0.787335D+00 -0.447806D-01 -0.143628D-01
      5a -0.430547D-01 -0.161062D+00 -0.447806D-01  0.452959D+00 -0.920592D-01
      5b -0.101502D+00 -0.357845D-01 -0.143628D-01 -0.920592D-01  0.756508D+00
      6a -0.888498D-01 -0.192291D-01 -0.322849D-01 -0.758862D-01 -0.451201D-01
      6b  0.758515D+00 -0.360084D-01  0.141350D+00 -0.422965D-01 -0.974911D-01
      7a -0.459045D-01 -0.653764D-01  0.105733D-01 -0.291152D-01 -0.224935D-01
      7b -0.166954D-01 -0.128355D-01 -0.264157D+00 -0.262170D-01  0.140984D+00
      8a -0.433764D-01 -0.159923D+00 -0.435734D-01  0.452691D+00 -0.911783D-01
      8b -0.105817D+00 -0.365365D-01 -0.167764D-01 -0.913986D-01  0.758601D+00
      9a  0.456128D-01  0.140664D-01 -0.139284D+00  0.627622D-01 -0.665838D-01
      9b -0.366578D-01  0.365232D-01  0.139913D+00 -0.513271D-01  0.446644D-01
     10a -0.456696D-01 -0.641291D-01  0.117298D-01 -0.340194D-01 -0.214864D-01
     10b -0.118535D-01 -0.127265D-01 -0.263103D+00 -0.248509D-01  0.131250D+00
                11            12            13            14            15 
      1a -0.240530D-01 -0.346149D-01 -0.647207D-01 -0.122498D-01 -0.155550D+00
      1b -0.312505D-01  0.131615D+00  0.122065D-01 -0.263121D+00 -0.434519D-01
      2a  0.440331D-02  0.117049D-01  0.166005D-01 -0.437203D-03 -0.122239D-01
      2b -0.355175D-02  0.423394D-01 -0.176245D+00  0.141102D+00  0.383715D-01
      3a  0.450513D+00 -0.890701D-01 -0.158665D+00 -0.388676D-01 -0.839664D-01
      3b -0.888498D-01  0.758515D+00 -0.459045D-01 -0.166954D-01 -0.433764D-01
      4a -0.192291D-01 -0.360084D-01 -0.653764D-01 -0.128355D-01 -0.159923D+00
      4b -0.322849D-01  0.141350D+00  0.105733D-01 -0.264157D+00 -0.435734D-01
      5a -0.758862D-01 -0.422965D-01 -0.291152D-01 -0.262170D-01  0.452691D+00
      5b -0.451201D-01 -0.974911D-01 -0.224935D-01  0.140984D+00 -0.911783D-01
      6a  0.450213D+00 -0.886719D-01 -0.158473D+00 -0.399188D-01 -0.799508D-01
      6b -0.886719D-01  0.756385D+00 -0.489149D-01 -0.142171D-01 -0.427928D-01
      7a -0.158473D+00 -0.489149D-01  0.639053D+00 -0.745759D-01 -0.211265D-01
      7b -0.399188D-01 -0.142171D-01 -0.745759D-01  0.788253D+00 -0.287273D-01
      8a -0.799508D-01 -0.427928D-01 -0.211265D-01 -0.287273D-01  0.452718D+00
      8b -0.450634D-01 -0.101511D+00 -0.258580D-01  0.148550D+00 -0.907091D-01
      9a -0.309374D-01  0.641355D-01 -0.221659D+00  0.141882D+00  0.454088D-01
      9b  0.242188D-02 -0.530001D-01  0.178559D+00 -0.110780D+00 -0.409275D-01
     10a -0.154036D+00 -0.487437D-01  0.634753D+00 -0.755511D-01 -0.260199D-01
     10b -0.395339D-01 -0.932612D-02 -0.752307D-01  0.781623D+00 -0.274257D-01
                16            17            18            19            20 
      1a -0.362401D-01  0.184864D-01  0.345247D-01 -0.635668D-01 -0.121292D-01
      1b -0.119312D-01 -0.146590D+00  0.145991D+00  0.133835D-01 -0.262207D+00
      2a -0.954509D-02 -0.739699D-01 -0.212860D+00  0.178865D-01  0.122574D-02
      2b -0.363872D-01  0.103967D+01 -0.901451D+00 -0.179889D+00  0.147047D+00
      3a -0.451776D-01 -0.195548D-01 -0.230383D-02 -0.154257D+00 -0.384578D-01
      3b -0.105817D+00  0.456128D-01 -0.366578D-01 -0.456696D-01 -0.118535D-01
      4a -0.365365D-01  0.140664D-01  0.365232D-01 -0.641291D-01 -0.127265D-01
      4b -0.167764D-01 -0.139284D+00  0.139913D+00  0.117298D-01 -0.263103D+00
      5a -0.913986D-01  0.627622D-01 -0.513271D-01 -0.340194D-01 -0.248509D-01
      5b  0.758601D+00 -0.665838D-01  0.446644D-01 -0.214864D-01  0.131250D+00
      6a -0.450634D-01 -0.309374D-01  0.242188D-02 -0.154036D+00 -0.395339D-01
      6b -0.101511D+00  0.641355D-01 -0.530001D-01 -0.487437D-01 -0.932612D-02
      7a -0.258580D-01 -0.221659D+00  0.178559D+00  0.634753D+00 -0.752307D-01
      7b  0.148550D+00  0.141882D+00 -0.110780D+00 -0.755511D-01  0.781623D+00
      8a -0.907091D-01  0.454088D-01 -0.409275D-01 -0.260199D-01 -0.274257D-01
      8b  0.761055D+00 -0.479481D-01  0.286231D-01 -0.249188D-01  0.138829D+00
      9a -0.479481D-01  0.154966D+01 -0.106979D+01 -0.228303D+00  0.149258D+00
      9b  0.286231D-01 -0.106979D+01  0.927894D+00  0.182300D+00 -0.117150D+00
     10a -0.249188D-01 -0.228303D+00  0.182300D+00  0.630593D+00 -0.762348D-01
     10b  0.138829D+00  0.149258D+00 -0.117150D+00 -0.762348D-01  0.775211D+00
 jaja non-ortho density matrix               [Gau-style] (imaginary):
                 1             2             3             4             5 
      1a  0.000000D+00  0.000000D+00  0.000000D+00  0.000000D+00  0.000000D+00
      1b  0.000000D+00  0.000000D+00  0.000000D+00  0.000000D+00  0.000000D+00
      2a  0.000000D+00  0.000000D+00  0.000000D+00  0.000000D+00  0.000000D+00
      2b  0.000000D+00  0.000000D+00  0.000000D+00  0.000000D+00  0.000000D+00
      3a  0.000000D+00  0.000000D+00  0.000000D+00  0.000000D+00  0.000000D+00
      3b  0.000000D+00  0.000000D+00  0.000000D+00  0.000000D+00  0.000000D+00
      4a  0.000000D+00  0.000000D+00  0.000000D+00  0.000000D+00  0.000000D+00
      4b  0.000000D+00  0.000000D+00  0.000000D+00  0.000000D+00  0.000000D+00
      5a  0.000000D+00  0.000000D+00  0.000000D+00  0.000000D+00  0.000000D+00
      5b  0.000000D+00  0.000000D+00  0.000000D+00  0.000000D+00  0.000000D+00
      6a  0.000000D+00  0.000000D+00  0.000000D+00  0.000000D+00  0.000000D+00
      6b  0.000000D+00  0.000000D+00  0.000000D+00  0.000000D+00  0.000000D+00
      7a  0.000000D+00  0.000000D+00  0.000000D+00  0.000000D+00  0.000000D+00
      7b  0.000000D+00  0.000000D+00  0.000000D+00  0.000000D+00  0.000000D+00
      8a  0.000000D+00  0.000000D+00  0.000000D+00  0.000000D+00  0.000000D+00
      8b  0.000000D+00  0.000000D+00  0.000000D+00  0.000000D+00  0.000000D+00
      9a  0.000000D+00  0.000000D+00  0.000000D+00  0.000000D+00  0.000000D+00
      9b  0.000000D+00  0.000000D+00  0.000000D+00  0.000000D+00  0.000000D+00
     10a  0.000000D+00  0.000000D+00  0.000000D+00  0.000000D+00  0.000000D+00
     10b  0.000000D+00  0.000000D+00  0.000000D+00  0.000000D+00  0.000000D+00
                 6             7             8             9            10 
      1a  0.000000D+00  0.000000D+00  0.000000D+00  0.000000D+00  0.000000D+00
      1b  0.000000D+00  0.000000D+00  0.000000D+00  0.000000D+00  0.000000D+00
      2a  0.000000D+00  0.000000D+00  0.000000D+00  0.000000D+00  0.000000D+00
      2b  0.000000D+00  0.000000D+00  0.000000D+00  0.000000D+00  0.000000D+00
      3a  0.000000D+00  0.000000D+00  0.000000D+00  0.000000D+00  0.000000D+00
      3b  0.000000D+00  0.000000D+00  0.000000D+00  0.000000D+00  0.000000D+00
      4a  0.000000D+00  0.000000D+00  0.000000D+00  0.000000D+00  0.000000D+00
      4b  0.000000D+00  0.000000D+00  0.000000D+00  0.000000D+00  0.000000D+00
      5a  0.000000D+00  0.000000D+00  0.000000D+00  0.000000D+00  0.000000D+00
      5b  0.000000D+00  0.000000D+00  0.000000D+00  0.000000D+00  0.000000D+00
      6a  0.000000D+00  0.000000D+00  0.000000D+00  0.000000D+00  0.000000D+00
      6b  0.000000D+00  0.000000D+00  0.000000D+00  0.000000D+00  0.000000D+00
      7a  0.000000D+00  0.000000D+00  0.000000D+00  0.000000D+00  0.000000D+00
      7b  0.000000D+00  0.000000D+00  0.000000D+00  0.000000D+00  0.000000D+00
      8a  0.000000D+00  0.000000D+00  0.000000D+00  0.000000D+00  0.000000D+00
      8b  0.000000D+00  0.000000D+00  0.000000D+00  0.000000D+00  0.000000D+00
      9a  0.000000D+00  0.000000D+00  0.000000D+00  0.000000D+00  0.000000D+00
      9b  0.000000D+00  0.000000D+00  0.000000D+00  0.000000D+00  0.000000D+00
     10a  0.000000D+00  0.000000D+00  0.000000D+00  0.000000D+00  0.000000D+00
     10b  0.000000D+00  0.000000D+00  0.000000D+00  0.000000D+00  0.000000D+00
                11            12            13            14            15 
      1a  0.000000D+00  0.000000D+00  0.000000D+00  0.000000D+00  0.000000D+00
      1b  0.000000D+00  0.000000D+00  0.000000D+00  0.000000D+00  0.000000D+00
      2a  0.000000D+00  0.000000D+00  0.000000D+00  0.000000D+00  0.000000D+00
      2b  0.000000D+00  0.000000D+00  0.000000D+00  0.000000D+00  0.000000D+00
      3a  0.000000D+00  0.000000D+00  0.000000D+00  0.000000D+00  0.000000D+00
      3b  0.000000D+00  0.000000D+00  0.000000D+00  0.000000D+00  0.000000D+00
      4a  0.000000D+00  0.000000D+00  0.000000D+00  0.000000D+00  0.000000D+00
      4b  0.000000D+00  0.000000D+00  0.000000D+00  0.000000D+00  0.000000D+00
      5a  0.000000D+00  0.000000D+00  0.000000D+00  0.000000D+00  0.000000D+00
      5b  0.000000D+00  0.000000D+00  0.000000D+00  0.000000D+00  0.000000D+00
      6a  0.000000D+00  0.000000D+00  0.000000D+00  0.000000D+00  0.000000D+00
      6b  0.000000D+00  0.000000D+00  0.000000D+00  0.000000D+00  0.000000D+00
      7a  0.000000D+00  0.000000D+00  0.000000D+00  0.000000D+00  0.000000D+00
      7b  0.000000D+00  0.000000D+00  0.000000D+00  0.000000D+00  0.000000D+00
      8a  0.000000D+00  0.000000D+00  0.000000D+00  0.000000D+00  0.000000D+00
      8b  0.000000D+00  0.000000D+00  0.000000D+00  0.000000D+00  0.000000D+00
      9a  0.000000D+00  0.000000D+00  0.000000D+00  0.000000D+00  0.000000D+00
      9b  0.000000D+00  0.000000D+00  0.000000D+00  0.000000D+00  0.000000D+00
     10a  0.000000D+00  0.000000D+00  0.000000D+00  0.000000D+00  0.000000D+00
     10b  0.000000D+00  0.000000D+00  0.000000D+00  0.000000D+00  0.000000D+00
                16            17            18            19            20 
      1a  0.000000D+00  0.000000D+00  0.000000D+00  0.000000D+00  0.000000D+00
      1b  0.000000D+00  0.000000D+00  0.000000D+00  0.000000D+00  0.000000D+00
      2a  0.000000D+00  0.000000D+00  0.000000D+00  0.000000D+00  0.000000D+00
      2b  0.000000D+00  0.000000D+00  0.000000D+00  0.000000D+00  0.000000D+00
      3a  0.000000D+00  0.000000D+00  0.000000D+00  0.000000D+00  0.000000D+00
      3b  0.000000D+00  0.000000D+00  0.000000D+00  0.000000D+00  0.000000D+00
      4a  0.000000D+00  0.000000D+00  0.000000D+00  0.000000D+00  0.000000D+00
      4b  0.000000D+00  0.000000D+00  0.000000D+00  0.000000D+00  0.000000D+00
      5a  0.000000D+00  0.000000D+00  0.000000D+00  0.000000D+00  0.000000D+00
      5b  0.000000D+00  0.000000D+00  0.000000D+00  0.000000D+00  0.000000D+00
      6a  0.000000D+00  0.000000D+00  0.000000D+00  0.000000D+00  0.000000D+00
      6b  0.000000D+00  0.000000D+00  0.000000D+00  0.000000D+00  0.000000D+00
      7a  0.000000D+00  0.000000D+00  0.000000D+00  0.000000D+00  0.000000D+00
      7b  0.000000D+00  0.000000D+00  0.000000D+00  0.000000D+00  0.000000D+00
      8a  0.000000D+00  0.000000D+00  0.000000D+00  0.000000D+00  0.000000D+00
      8b  0.000000D+00  0.000000D+00  0.000000D+00  0.000000D+00  0.000000D+00
      9a  0.000000D+00  0.000000D+00  0.000000D+00  0.000000D+00  0.000000D+00
      9b  0.000000D+00  0.000000D+00  0.000000D+00  0.000000D+00  0.000000D+00
     10a  0.000000D+00  0.000000D+00  0.000000D+00  0.000000D+00  0.000000D+00
     10b  0.000000D+00  0.000000D+00  0.000000D+00  0.000000D+00  0.000000D+00
FORTRAN STOP
