 Entering Gaussian System, Link 0=gdv
 AtFile(1): H.gbs
            H     0
            S   10   1.00
               1000.000000000000            0.000068713567
                316.227766000000            0.000169141320
                100.000000000000            0.000823394812
                 31.622776600000            0.003425569236
                 10.000000000000            0.013951996000
                  3.162277660000            0.056909313560
                  1.000000000000            0.198286399900
                  0.316227766000            0.496922426700
                  0.100000000000            0.369846276400
                  0.031622776600            0.003752720039
            ****
 Initial command:
 /users/lcj1/GHF_hess/exe-dir/l1.exe "/users/lcj1/GHF_hess/h10_2rows/follow25/follow45/bck/Gau-12751.inp" -scrdir="/users/lcj1/GHF_hess/h10_2rows/follow25/follow45/bck/"
 Entering Link 1 = /users/lcj1/GHF_hess/exe-dir/l1.exe PID=     12752.
  
 Copyright (c) 1988,1990,1992,1993,1995,1998,2003,2009,2012,
            Gaussian, Inc.  All Rights Reserved.
  
 This is the private, development version of
 the Gaussian(R) DV system of programs. It is based on
 the Gaussian(R) 09 system (copyright 2009, Gaussian, Inc.),
 the Gaussian(R) 03 system (copyright 2003, Gaussian, Inc.),
 the Gaussian(R) 98 system (copyright 1998, Gaussian, Inc.),
 the Gaussian(R) 94 system (copyright 1995, Gaussian, Inc.),
 the Gaussian 92(TM) system (copyright 1992, Gaussian, Inc.),
 the Gaussian 90(TM) system (copyright 1990, Gaussian, Inc.),
 the Gaussian 88(TM) system (copyright 1988, Gaussian, Inc.),
 the Gaussian 86(TM) system (copyright 1986, Carnegie Mellon
 University), and the Gaussian 82(TM) system (copyright 1983,
 Carnegie Mellon University). Gaussian is a federally registered
 trademark of Gaussian, Inc.
  
 This software contains proprietary and confidential information,
 including trade secrets, belonging to Gaussian, Inc.
  
 This software is provided under written license and may be
 used, copied, transmitted, or stored only in accord with that
 written license.
  
 The following legend is applicable only to US Government
 contracts under FAR:
  
                    RESTRICTED RIGHTS LEGEND
  
 Use, reproduction and disclosure by the US Government is
 subject to restrictions as set forth in subparagraphs (a)
 and (c) of the Commercial Computer Software - Restricted
 Rights clause in FAR 52.227-19.
  
 Gaussian, Inc.
 340 Quinnipiac St., Bldg. 40, Wallingford CT 06492
  
  
 ---------------------------------------------------------------
 Warning -- This program may not be used in any manner that
 competes with the business of Gaussian, Inc. or will provide
 assistance to any competitor of Gaussian, Inc.  The licensee
 of this program is prohibited from giving any competitor of
 Gaussian, Inc. access to this program.  By using this program,
 the user acknowledges that Gaussian, Inc. is engaged in the
 business of creating and licensing software in the field of
 computational chemistry and represents and warrants to the
 licensee that it is not a competitor of Gaussian, Inc. and that
 it will not use this program in any manner prohibited above.
 ---------------------------------------------------------------
  

 Cite this work as:
 Gaussian Development Version, Revision H.21,
 M. J. Frisch, G. W. Trucks, H. B. Schlegel, G. E. Scuseria, 
 M. A. Robb, J. R. Cheeseman, G. Scalmani, V. Barone, B. Mennucci, 
 G. A. Petersson, H. Nakatsuji, M. Caricato, X. Li, H. P. Hratchian, 
 A. F. Izmaylov, J. Bloino, G. Zheng, J. L. Sonnenberg, W. Liang, 
 M. Hada, M. Ehara, K. Toyota, R. Fukuda, J. Hasegawa, M. Ishida, 
 T. Nakajima, Y. Honda, O. Kitao, H. Nakai, T. Vreven, 
 J. A. Montgomery, Jr., J. E. Peralta, F. Ogliaro, M. Bearpark, 
 J. J. Heyd, E. Brothers, K. N. Kudin, V. N. Staroverov, T. Keith, 
 R. Kobayashi, J. Normand, K. Raghavachari, A. Rendell, J. C. Burant, 
 S. S. Iyengar, J. Tomasi, M. Cossi, N. Rega, J. M. Millam, M. Klene, 
 J. E. Knox, J. B. Cross, V. Bakken, C. Adamo, J. Jaramillo, 
 R. Gomperts, R. E. Stratmann, O. Yazyev, A. J. Austin, R. Cammi, 
 C. Pomelli, J. W. Ochterski, R. L. Martin, K. Morokuma, 
 V. G. Zakrzewski, G. A. Voth, P. Salvador, J. J. Dannenberg, 
 S. Dapprich, P. V. Parandekar, N. J. Mayhall, A. D. Daniels, 
 O. Farkas, J. B. Foresman, J. V. Ortiz, J. Cioslowski, 
 and D. J. Fox, Gaussian, Inc., Wallingford CT, 2010.
 
 ******************************************
 Gaussian DV:  EM64L-GDVRevH.21 13-May-2012
                28-Feb-2017 
 ******************************************
 %chk=h10.chk
 ----------------------------------------------------------------------
 #ghf/gen scf(tight,novaracc,noincfock,fulldiag) stable guess=read geom
 =nocrowd use=l802 use=l902 test
 ----------------------------------------------------------------------
 ********************************************
   THE COMPLEX ERI TRANSFORMATION WITH L802  
        COMPLEX STABILITY WITH L902          
 ********************************************
 1/38=1/1;
 2/12=1,17=6,18=5,40=1/2;
 3/5=7,16=1,25=20,28=1,116=7/1,2,3,20;
 4/5=1/1;
 5/5=100001,16=1,32=2,38=6/2;
 8/6=1,10=90,11=11/1,2;
 9/8=4,13=1/1,2;
 6/7=2,8=2,9=2,10=2,28=1/1;
 99/5=1,9=1/99;
 ----------------------------------------------------------------------
 hf stability analysis of h10 triangular lattice, y= 0.4427008172522774
 5 alpha= 18.750000000000000
 ----------------------------------------------------------------------
 Symbolic Z-Matrix:
 Charge =  0 Multiplicity = 1
 H
 H                    1     1.37724 
 H                    1     1.37724  2     142.5 
 H                    2     1.37724  1     37.5     3     0.       0
 H                    3     1.37724  1     180.     2     0.       0
 H                    4     1.37724  2     180.     1     0.       0
 H                    5     1.37724  3     180.     2     0.       0
 H                    6     1.37724  4     180.     1     0.       0
 H                    7     1.37724  5     180.     2     0.       0
 H                    8     1.37724  6     180.     1     0.       0
 
                          Input orientation:                          
 ---------------------------------------------------------------------
 Center     Atomic      Atomic             Coordinates (Angstroms)
 Number     Number       Type             X           Y           Z
 ---------------------------------------------------------------------
      1          1           0        0.000000    0.000000    0.000000
      2          1           0        0.000000    0.000000    1.377245
      3          1           0        0.838413    0.000000   -1.092642
      4          1           0        0.838413    0.000000    0.284603
      5          1           0        1.676827    0.000000   -2.185283
      6          1           0        1.676827    0.000000   -0.808039
      7          1           0        2.515240    0.000000   -3.277925
      8          1           0        2.515240    0.000000   -1.900680
      9          1           0        3.353654    0.000000   -4.370567
     10          1           0        3.353654    0.000000   -2.993322
 ---------------------------------------------------------------------
                    Distance matrix (angstroms):
                    1          2          3          4          5
     1  H    0.000000
     2  H    1.377245   0.000000
     3  H    1.377245   2.608309   0.000000
     4  H    0.885402   1.377245   1.377245   0.000000
     5  H    2.754489   3.937430   1.377245   2.608309   0.000000
     6  H    1.861364   2.754489   0.885402   1.377245   1.377245
     7  H    4.131734   5.291223   2.754489   3.937430   1.377245
     8  H    3.152621   4.131734   1.861364   2.754489   0.885402
     9  H    5.508979   6.654647   4.131734   5.291223   2.754489
    10  H    4.495216   5.508979   3.152621   4.131734   1.861364
                    6          7          8          9         10
     6  H    0.000000
     7  H    2.608309   0.000000
     8  H    1.377245   1.377245   0.000000
     9  H    3.937430   1.377245   2.608309   0.000000
    10  H    2.754489   0.885402   1.377245   1.377245   0.000000
 Stoichiometry    H10
 Framework group  C2H[SGH(H10)]
 Deg. of freedom     9
 Full point group                 C2H     NOp   4
 Largest Abelian subgroup         C2H     NOp   4
 Largest concise Abelian subgroup C2      NOp   2
                         Standard orientation:                         
 ---------------------------------------------------------------------
 Center     Atomic      Atomic             Coordinates (Angstroms)
 Number     Number       Type             X           Y           Z
 ---------------------------------------------------------------------
      1          1           0        1.676827   -1.496661    0.000000
      2          1           0        1.676827   -2.873906    0.000000
      3          1           0        0.838413   -0.404019    0.000000
      4          1           0        0.838413   -1.781264    0.000000
      5          1           0        0.000000    0.688622    0.000000
      6          1           0        0.000000   -0.688622    0.000000
      7          1           0       -0.838413    1.781264    0.000000
      8          1           0       -0.838413    0.404019    0.000000
      9          1           0       -1.676827    2.873906    0.000000
     10          1           0       -1.676827    1.496661    0.000000
 ---------------------------------------------------------------------
 Rotational constants (GHZ):    308.8025730     12.2144659     11.7497143
 General basis read from cards:  (5D, 7F)
 There are     5 symmetry adapted cartesian basis functions of AG  symmetry.
 There are     0 symmetry adapted cartesian basis functions of BG  symmetry.
 There are     0 symmetry adapted cartesian basis functions of AU  symmetry.
 There are     5 symmetry adapted cartesian basis functions of BU  symmetry.
 There are     5 symmetry adapted basis functions of AG  symmetry.
 There are     0 symmetry adapted basis functions of BG  symmetry.
 There are     0 symmetry adapted basis functions of AU  symmetry.
 There are     5 symmetry adapted basis functions of BU  symmetry.
    10 basis functions,   100 primitive gaussians,    10 cartesian basis functions
     5 alpha electrons        5 beta electrons
       nuclear repulsion energy        12.0433268100 Hartrees.
 NAtoms=   10 NActive=   10 NUniq=    5 SFac= 4.00D+00 NAtFMM=   60 NAOKFM=F Big=F
 Integral buffers will be    131072 words long.
 Regular integral format.
 Two-electron integral symmetry is turned off.
 One-electron integrals computed using PRISM.
 NBasis=    10 RedAO= T EigKep=  1.83D-01  NBF=     5     0     0     5
 NBsUse=    10 1.00D-06 EigRej= -1.00D+00 NBFU=     5     0     0     5
 IOp(28)                       1
                        1                       0
                        2                       1
                        3                       1
                        4                      20
                        5                       0
                        6                       0
                        7                      10
                        8                       1
                        9                       4
                       10                       0
                       11              1073741824
                       12                      20
                       13                       2
                       14                  131070
                       15                       1
                       16                       1
                       17                  131073
                       18                       0
                       19                       0
                       20                       0
                       21                       2
                       22                  131070
                       23                       0
                       24                       0
                       25                       0
                       26                       0
                       27                   65535
                       28                       2
                       29                  131072
                       30                       0
 IHMeth                       1
 ib3: ISMode =                        0                       4
 Enter DskPsm, NBasis=  10 NBas6D=  10 NShell=  10 IDoSP=4.
 Out2e will use a cutoff of  1.00D-10
 FoFCou: FMM=F IPFlag=           0 FMFlag=           0 FMFlg1=           0
         NFxFlg=           0 DoJE=F BraDBF=F KetDBF=F FulRan=T
         wScrn=  0.000000 ICntrl=     600 IOpCl=  9 I1Cent=           0 NGrid=           0
         NMat0=    0 NMatS0=      0 NMatT0=    0 NMatD0=    0 NMtDS0=    0 NMtDT0=    0
 Symmetry not used in FoFCou.
 Entering PrmDigJobTyp =                      20
 LenSav and NKeep                       0                       0
 Entered Stor2E with KNTT1,2                       2                  131070
 Leave Stor2X
 Entering PrmDigJobTyp =                      20
 LenSav and NKeep                       0                       0
 Entered Stor2E with KNTT1,2                       2                  131056
 Leave Stor2X
 Entering PrmDigJobTyp =                      20
 LenSav and NKeep                       0                       0
 Entered Stor2E with KNTT1,2                       2                  131042
 Leave Stor2X
 Entering PrmDigJobTyp =                      20
 LenSav and NKeep                       0                       0
 Entered Stor2E with KNTT1,2                       2                  131028
 Leave Stor2X
 Entering PrmDigJobTyp =                      20
 LenSav and NKeep                       0                       0
 Entered Stor2E with KNTT1,2                       2                  131014
 Leave Stor2X
 Entering PrmDigJobTyp =                      20
 LenSav and NKeep                       0                       0
 Entered Stor2E with KNTT1,2                       2                  131000
 Leave Stor2X
 Entering PrmDigJobTyp =                      20
 LenSav and NKeep                       0                       0
 Entered Stor2E with KNTT1,2                       2                  130986
 Leave Stor2X
 Entering PrmDigJobTyp =                      20
 LenSav and NKeep                       0                       0
 Entered Stor2E with KNTT1,2                       2                  130972
 Leave Stor2X
 Entering PrmDigJobTyp =                      20
 LenSav and NKeep                       0                       0
 Entered Stor2E with KNTT1,2                       2                  130960
 Leave Stor2X
 Entering PrmDigJobTyp =                      20
 LenSav and NKeep                       0                       0
 Entered Stor2E with KNTT1,2                       2                  130944
 Leave Stor2X
 Entering PrmDigJobTyp =                      20
 LenSav and NKeep                       0                       0
 Entered Stor2E with KNTT1,2                       2                  130928
 Leave Stor2X
 Entering PrmDigJobTyp =                      20
 LenSav and NKeep                       0                       0
 Entered Stor2E with KNTT1,2                       2                  130912
 Leave Stor2X
 Entering PrmDigJobTyp =                      20
 LenSav and NKeep                       0                       0
 Entered Stor2E with KNTT1,2                       2                  130896
 Leave Stor2X
 Entering PrmDigJobTyp =                      20
 LenSav and NKeep                       0                       0
 Entered Stor2E with KNTT1,2                       2                  130880
 Leave Stor2X
 Entering PrmDigJobTyp =                      20
 LenSav and NKeep                       0                       0
 Entered Stor2E with KNTT1,2                       2                  130864
 Leave Stor2X
 Entering PrmDigJobTyp =                      20
 LenSav and NKeep                       0                       0
 Entered Stor2E with KNTT1,2                       2                  130848
 Leave Stor2X
 Entering PrmDigJobTyp =                      20
 LenSav and NKeep                       0                       0
 Entered Stor2E with KNTT1,2                       2                  130832
 Leave Stor2X
 Entering PrmDigJobTyp =                      20
 LenSav and NKeep                       0                       0
 Entered Stor2E with KNTT1,2                       2                  130816
 Leave Stor2X
 Entering PrmDigJobTyp =                      20
 LenSav and NKeep                       0                       0
 Entered Stor2E with KNTT1,2                       2                  130800
 Leave Stor2X
 Entering PrmDigJobTyp =                      20
 LenSav and NKeep                       0                       0
 Entered Stor2E with KNTT1,2                       2                  130784
 Leave Stor2X
 Entering PrmDigJobTyp =                      20
 LenSav and NKeep                       0                       0
 Entered Stor2E with KNTT1,2                       2                  130768
 Leave Stor2X
 Entering PrmDigJobTyp =                      20
 LenSav and NKeep                       0                       0
 Entered Stor2E with KNTT1,2                       2                  130752
 Leave Stor2X
 Entering PrmDigJobTyp =                      20
 LenSav and NKeep                       0                       0
 Entered Stor2E with KNTT1,2                       2                  130736
 Leave Stor2X
 Entering PrmDigJobTyp =                      20
 LenSav and NKeep                       0                       0
 Entered Stor2E with KNTT1,2                       2                  130720
 Leave Stor2X
 Entering PrmDigJobTyp =                      20
 LenSav and NKeep                       0                       0
 Entered Stor2E with KNTT1,2                       2                  130704
 Leave Stor2X
 Entering PrmDigJobTyp =                      20
 LenSav and NKeep                       0                       0
 Entered Stor2E with KNTT1,2                       2                  130700
 Leave Stor2X
 Entering PrmDigJobTyp =                      20
 LenSav and NKeep                       0                       0
 Entered Stor2E with KNTT1,2                       8                  130684
 Leave Stor2X
 Entering PrmDigJobTyp =                      20
 LenSav and NKeep                       0                       0
 Entered Stor2E with KNTT1,2                      18                  130672
 Leave Stor2X
 Entering PrmDigJobTyp =                      20
 LenSav and NKeep                       0                       0
 Entered Stor2E with KNTT1,2                      32                  130664
 Leave Stor2X
 Entering PrmDigJobTyp =                      20
 LenSav and NKeep                       0                       0
 Entered Stor2E with KNTT1,2                      46                  130656
 Leave Stor2X
 Entering PrmDigJobTyp =                      20
 LenSav and NKeep                       0                       0
 Entered Stor2E with KNTT1,2                      60                  130648
 Leave Stor2X
 Entering PrmDigJobTyp =                      20
 LenSav and NKeep                       0                       0
 Entered Stor2E with KNTT1,2                      76                  130642
 Leave Stor2X
 Entering PrmDigJobTyp =                      20
 LenSav and NKeep                       0                       0
 Entered Stor2E with KNTT1,2                      94                  130638
 Leave Stor2X
 Entering PrmDigJobTyp =                      20
 LenSav and NKeep                       0                       0
 Entered Stor2E with KNTT1,2                     114                  130636
 Leave Stor2X
 Entering PrmDigJobTyp =                      20
 LenSav and NKeep                       0                       0
 Entered Stor2E with KNTT1,2                     114                  130630
 Leave Stor2X
 Entering PrmDigJobTyp =                      20
 LenSav and NKeep                       0                       0
 Entered Stor2E with KNTT1,2                     114                  130610
 Leave Stor2X
 Entering PrmDigJobTyp =                      20
 LenSav and NKeep                       0                       0
 Entered Stor2E with KNTT1,2                     114                  130590
 Leave Stor2X
 Entering PrmDigJobTyp =                      20
 LenSav and NKeep                       0                       0
 Entered Stor2E with KNTT1,2                     114                  130570
 Leave Stor2X
 Entering PrmDigJobTyp =                      20
 LenSav and NKeep                       0                       0
 Entered Stor2E with KNTT1,2                     114                  130550
 Leave Stor2X
 Entering PrmDigJobTyp =                      20
 LenSav and NKeep                       0                       0
 Entered Stor2E with KNTT1,2                     114                  130530
 Leave Stor2X
 Entering PrmDigJobTyp =                      20
 LenSav and NKeep                       0                       0
 Entered Stor2E with KNTT1,2                     114                  130510
 Leave Stor2X
 Entering PrmDigJobTyp =                      20
 LenSav and NKeep                       0                       0
 Entered Stor2E with KNTT1,2                     114                  130490
 Leave Stor2X
 Entering PrmDigJobTyp =                      20
 LenSav and NKeep                       0                       0
 Entered Stor2E with KNTT1,2                     114                  130470
 Leave Stor2X
 Entering PrmDigJobTyp =                      20
 LenSav and NKeep                       0                       0
 Entered Stor2E with KNTT1,2                     114                  130450
 Leave Stor2X
 Entering PrmDigJobTyp =                      20
 LenSav and NKeep                       0                       0
 Entered Stor2E with KNTT1,2                     114                  130430
 Leave Stor2X
 Entering PrmDigJobTyp =                      20
 LenSav and NKeep                       0                       0
 Entered Stor2E with KNTT1,2                     130                  130418
 Leave Stor2X
 Entering PrmDigJobTyp =                      20
 LenSav and NKeep                       0                       0
 Entered Stor2E with KNTT1,2                     150                  130410
 Leave Stor2X
 Entering PrmDigJobTyp =                      20
 LenSav and NKeep                       0                       0
 Entered Stor2E with KNTT1,2                     162                  130394
 Leave Stor2X
 Entering PrmDigJobTyp =                      20
 LenSav and NKeep                       0                       0
 Entered Stor2E with KNTT1,2                     180                  130384
 Leave Stor2X
 Entering PrmDigJobTyp =                      20
 LenSav and NKeep                       0                       0
 Entered Stor2E with KNTT1,2                     200                  130376
 Leave Stor2X
 Entering PrmDigJobTyp =                      20
 LenSav and NKeep                       0                       0
 Entered Stor2E with KNTT1,2                     210                  130358
 Leave Stor2X
 Entering PrmDigJobTyp =                      20
 LenSav and NKeep                       0                       0
 Entered Stor2E with KNTT1,2                     228                  130348
 Leave Stor2X
 Entering PrmDigJobTyp =                      20
 LenSav and NKeep                       0                       0
 Entered Stor2E with KNTT1,2                     250                  130342
 Leave Stor2X
 Entering PrmDigJobTyp =                      20
 LenSav and NKeep                       0                       0
 Entered Stor2E with KNTT1,2                     262                  130326
 Leave Stor2X
 Entering PrmDigJobTyp =                      20
 LenSav and NKeep                       0                       0
 Entered Stor2E with KNTT1,2                     266                  130322
 Leave Stor2X
 Entering PrmDigJobTyp =                      20
 LenSav and NKeep                       0                       0
 Entered Stor2E with KNTT1,2                     286                  130306
 Leave Stor2X
 Entering PrmDigJobTyp =                      20
 LenSav and NKeep                       0                       0
 Entered Stor2E with KNTT1,2                     306                  130290
 Leave Stor2X
 Entering PrmDigJobTyp =                      20
 LenSav and NKeep                       0                       0
 Entered Stor2E with KNTT1,2                     332                  130280
 Leave Stor2X
 Entering PrmDigJobTyp =                      20
 LenSav and NKeep                       0                       0
 Entered Stor2E with KNTT1,2                     332                  130278
 Leave Stor2X
 Entering PrmDigJobTyp =                      20
 LenSav and NKeep                       0                       0
 Entered Stor2E with KNTT1,2                     332                  130264
 Leave Stor2X
 Entering PrmDigJobTyp =                      20
 LenSav and NKeep                       0                       0
 Entered Stor2E with KNTT1,2                     332                  130250
 Leave Stor2X
 Entering PrmDigJobTyp =                      20
 LenSav and NKeep                       0                       0
 Entered Stor2E with KNTT1,2                     332                  130236
 Leave Stor2X
 Entering PrmDigJobTyp =                      20
 LenSav and NKeep                       0                       0
 Entered Stor2E with KNTT1,2                     332                  130222
 Leave Stor2X
 Entering PrmDigJobTyp =                      20
 LenSav and NKeep                       0                       0
 Entered Stor2E with KNTT1,2                     332                  130208
 Leave Stor2X
 Entering PrmDigJobTyp =                      20
 LenSav and NKeep                       0                       0
 Entered Stor2E with KNTT1,2                     332                  130198
 Leave Stor2X
 Entering PrmDigJobTyp =                      20
 LenSav and NKeep                       0                       0
 Entered Stor2E with KNTT1,2                     342                  130188
 Leave Stor2X
 Entering PrmDigJobTyp =                      20
 LenSav and NKeep                       0                       0
 Entered Stor2E with KNTT1,2                     352                  130178
 Leave Stor2X
 Entering PrmDigJobTyp =                      20
 LenSav and NKeep                       0                       0
 Entered Stor2E with KNTT1,2                     370                  130176
 Leave Stor2X
 Entering PrmDigJobTyp =                      20
 LenSav and NKeep                       0                       0
 Entered Stor2E with KNTT1,2                     378                  130164
 Leave Stor2X
 Entering PrmDigJobTyp =                      20
 LenSav and NKeep                       0                       0
 Entered Stor2E with KNTT1,2                     392                  130158
 Leave Stor2X
 Entering PrmDigJobTyp =                      20
 LenSav and NKeep                       0                       0
 Entered Stor2E with KNTT1,2                     392                  130154
 Leave Stor2X
 Entering PrmDigJobTyp =                      20
 LenSav and NKeep                       0                       0
 Entered Stor2E with KNTT1,2                     410                  130146
 Leave Stor2X
 Entering PrmDigJobTyp =                      20
 LenSav and NKeep                       0                       0
 Entered Stor2E with KNTT1,2                     424                  130134
 Leave Stor2X
 Entering PrmDigJobTyp =                      20
 LenSav and NKeep                       0                       0
 Entered Stor2E with KNTT1,2                     440                  130124
 Leave Stor2X
 Entering PrmDigJobTyp =                      20
 LenSav and NKeep                       0                       0
 Entered Stor2E with KNTT1,2                     440                  130122
 Leave Stor2X
 Entering PrmDigJobTyp =                      20
 LenSav and NKeep                       0                       0
 Entered Stor2E with KNTT1,2                     452                  130116
 Leave Stor2X
 Entering PrmDigJobTyp =                      20
 LenSav and NKeep                       0                       0
 Entered Stor2E with KNTT1,2                     452                  130114
 Leave Stor2X
 Entering PrmDigJobTyp =                      20
 LenSav and NKeep                       0                       0
 Entered Stor2E with KNTT1,2                     452                  130092
 Leave Stor2X
 Entering PrmDigJobTyp =                      20
 LenSav and NKeep                       0                       0
 Entered Stor2E with KNTT1,2                     452                  130070
 Leave Stor2X
 Entering PrmDigJobTyp =                      20
 LenSav and NKeep                       0                       0
 Entered Stor2E with KNTT1,2                     452                  130048
 Leave Stor2X
 Entering PrmDigJobTyp =                      20
 LenSav and NKeep                       0                       0
 Entered Stor2E with KNTT1,2                     452                  130026
 Leave Stor2X
 Entering PrmDigJobTyp =                      20
 LenSav and NKeep                       0                       0
 Entered Stor2E with KNTT1,2                     452                  130014
 Leave Stor2X
 Entering PrmDigJobTyp =                      20
 LenSav and NKeep                       0                       0
 Entered Stor2E with KNTT1,2                     472                  130004
 Leave Stor2X
 Entering PrmDigJobTyp =                      20
 LenSav and NKeep                       0                       0
 Entered Stor2E with KNTT1,2                     486                  129988
 Leave Stor2X
 Entering PrmDigJobTyp =                      20
 LenSav and NKeep                       0                       0
 Entered Stor2E with KNTT1,2                     508                  129980
 Leave Stor2X
 Entering PrmDigJobTyp =                      20
 LenSav and NKeep                       0                       0
 Entered Stor2E with KNTT1,2                     524                  129966
 Leave Stor2X
 Entering PrmDigJobTyp =                      20
 LenSav and NKeep                       0                       0
 Entered Stor2E with KNTT1,2                     530                  129962
 Leave Stor2X
 Entering PrmDigJobTyp =                      20
 LenSav and NKeep                       0                       0
 Entered Stor2E with KNTT1,2                     550                  129944
 Leave Stor2X
 Entering PrmDigJobTyp =                      20
 LenSav and NKeep                       0                       0
 Entered Stor2E with KNTT1,2                     576                  129932
 Leave Stor2X
 Entering PrmDigJobTyp =                      20
 LenSav and NKeep                       0                       0
 Entered Stor2E with KNTT1,2                     590                  129922
 Leave Stor2X
 Entering PrmDigJobTyp =                      20
 LenSav and NKeep                       0                       0
 Entered Stor2E with KNTT1,2                     606                  129910
 Leave Stor2X
 Entering PrmDigJobTyp =                      20
 LenSav and NKeep                       0                       0
 Entered Stor2E with KNTT1,2                     614                  129906
 Leave Stor2X
 Entering PrmDigJobTyp =                      20
 LenSav and NKeep                       0                       0
 Entered Stor2E with KNTT1,2                     634                  129896
 Leave Stor2X
 Entering PrmDigJobTyp =                      20
 LenSav and NKeep                       0                       0
 Entered Stor2E with KNTT1,2                     634                  129880
 Leave Stor2X
 Entering PrmDigJobTyp =                      20
 LenSav and NKeep                       0                       0
 Entered Stor2E with KNTT1,2                     634                  129864
 Leave Stor2X
 Entering PrmDigJobTyp =                      20
 LenSav and NKeep                       0                       0
 Entered Stor2E with KNTT1,2                     634                  129848
 Leave Stor2X
 Entering PrmDigJobTyp =                      20
 LenSav and NKeep                       0                       0
 Entered Stor2E with KNTT1,2                     634                  129836
 Leave Stor2X
 Entering PrmDigJobTyp =                      20
 LenSav and NKeep                       0                       0
 Entered Stor2E with KNTT1,2                     648                  129826
 Leave Stor2X
 Entering PrmDigJobTyp =                      20
 LenSav and NKeep                       0                       0
 Entered Stor2E with KNTT1,2                     662                  129816
 Leave Stor2X
 Entering PrmDigJobTyp =                      20
 LenSav and NKeep                       0                       0
 Entered Stor2E with KNTT1,2                     678                  129808
 Leave Stor2X
 Entering PrmDigJobTyp =                      20
 LenSav and NKeep                       0                       0
 Entered Stor2E with KNTT1,2                     680                  129804
 Leave Stor2X
 Entering PrmDigJobTyp =                      20
 LenSav and NKeep                       0                       0
 Entered Stor2E with KNTT1,2                     698                  129792
 Leave Stor2X
 Entering PrmDigJobTyp =                      20
 LenSav and NKeep                       0                       0
 Entered Stor2E with KNTT1,2                     716                  129780
 Leave Stor2X
 Entering PrmDigJobTyp =                      20
 LenSav and NKeep                       0                       0
 Entered Stor2E with KNTT1,2                     728                  129770
 Leave Stor2X
 Entering PrmDigJobTyp =                      20
 LenSav and NKeep                       0                       0
 Entered Stor2E with KNTT1,2                     728                  129768
 Leave Stor2X
 Entering PrmDigJobTyp =                      20
 LenSav and NKeep                       0                       0
 Entered Stor2E with KNTT1,2                     746                  129756
 Leave Stor2X
 Entering PrmDigJobTyp =                      20
 LenSav and NKeep                       0                       0
 Entered Stor2E with KNTT1,2                     752                  129750
 Leave Stor2X
 Entering PrmDigJobTyp =                      20
 LenSav and NKeep                       0                       0
 Entered Stor2E with KNTT1,2                     752                  129728
 Leave Stor2X
 Entering PrmDigJobTyp =                      20
 LenSav and NKeep                       0                       0
 Entered Stor2E with KNTT1,2                     752                  129706
 Leave Stor2X
 Entering PrmDigJobTyp =                      20
 LenSav and NKeep                       0                       0
 Entered Stor2E with KNTT1,2                     752                  129684
 Leave Stor2X
 Entering PrmDigJobTyp =                      20
 LenSav and NKeep                       0                       0
 Entered Stor2E with KNTT1,2                     752                  129670
 Leave Stor2X
 Entering PrmDigJobTyp =                      20
 LenSav and NKeep                       0                       0
 Entered Stor2E with KNTT1,2                     770                  129656
 Leave Stor2X
 Entering PrmDigJobTyp =                      20
 LenSav and NKeep                       0                       0
 Entered Stor2E with KNTT1,2                     790                  129644
 Leave Stor2X
 Entering PrmDigJobTyp =                      20
 LenSav and NKeep                       0                       0
 Entered Stor2E with KNTT1,2                     812                  129634
 Leave Stor2X
 Entering PrmDigJobTyp =                      20
 LenSav and NKeep                       0                       0
 Entered Stor2E with KNTT1,2                     816                  129630
 Leave Stor2X
 Entering PrmDigJobTyp =                      20
 LenSav and NKeep                       0                       0
 Entered Stor2E with KNTT1,2                     842                  129614
 Leave Stor2X
 Entering PrmDigJobTyp =                      20
 LenSav and NKeep                       0                       0
 Entered Stor2E with KNTT1,2                     868                  129602
 Leave Stor2X
 Entering PrmDigJobTyp =                      20
 LenSav and NKeep                       0                       0
 Entered Stor2E with KNTT1,2                     888                  129592
 Leave Stor2X
 Entering PrmDigJobTyp =                      20
 LenSav and NKeep                       0                       0
 Entered Stor2E with KNTT1,2                     888                  129590
 Leave Stor2X
 Entering PrmDigJobTyp =                      20
 LenSav and NKeep                       0                       0
 Entered Stor2E with KNTT1,2                     912                  129574
 Leave Stor2X
 Entering PrmDigJobTyp =                      20
 LenSav and NKeep                       0                       0
 Entered Stor2E with KNTT1,2                     928                  129566
 Leave Stor2X
 Entering PrmDigJobTyp =                      20
 LenSav and NKeep                       0                       0
 Entered Stor2E with KNTT1,2                     940                  129558
 Leave Stor2X
 Entering PrmDigJobTyp =                      20
 LenSav and NKeep                       0                       0
 Entered Stor2E with KNTT1,2                     940                  129530
 Leave Stor2X
 Entering PrmDigJobTyp =                      20
 LenSav and NKeep                       0                       0
 Entered Stor2E with KNTT1,2                     940                  129502
 Leave Stor2X
 Entering PrmDigJobTyp =                      20
 LenSav and NKeep                       0                       0
 Entered Stor2E with KNTT1,2                     940                  129478
 Leave Stor2X
 Entering PrmDigJobTyp =                      20
 LenSav and NKeep                       0                       0
 Entered Stor2E with KNTT1,2                     968                  129464
 Leave Stor2X
 Entering PrmDigJobTyp =                      20
 LenSav and NKeep                       0                       0
 Entered Stor2E with KNTT1,2                     992                  129446
 Leave Stor2X
 Entering PrmDigJobTyp =                      20
 LenSav and NKeep                       0                       0
 Entered Stor2E with KNTT1,2                    1008                  129442
 Leave Stor2X
 Entering PrmDigJobTyp =                      20
 LenSav and NKeep                       0                       0
 Entered Stor2E with KNTT1,2                    1044                  129426
 Leave Stor2X
 Entering PrmDigJobTyp =                      20
 LenSav and NKeep                       0                       0
 Entered Stor2E with KNTT1,2                    1060                  129414
 Leave Stor2X
 Entering PrmDigJobTyp =                      20
 LenSav and NKeep                       0                       0
 Entered Stor2E with KNTT1,2                    1084                  129406
 Leave Stor2X
 Entering PrmDigJobTyp =                      20
 LenSav and NKeep                       0                       0
 Entered Stor2E with KNTT1,2                    1108                  129390
 Leave Stor2X
 Entering PrmDigJobTyp =                      20
 LenSav and NKeep                       0                       0
 Entered Stor2E with KNTT1,2                    1128                  129386
 Leave Stor2X
 Entering PrmDigJobTyp =                      20
 LenSav and NKeep                       0                       0
 Entered Stor2E with KNTT1,2                    1144                  129370
 Leave Stor2X
 Entering PrmDigJobTyp =                      20
 LenSav and NKeep                       0                       0
 Entered Stor2E with KNTT1,2                    1152                  129358
 Leave Stor2X
 Entering PrmDigJobTyp =                      20
 LenSav and NKeep                       0                       0
 Entered Stor2E with KNTT1,2                    1152                  129338
 Leave Stor2X
 Entering PrmDigJobTyp =                      20
 LenSav and NKeep                       0                       0
 Entered Stor2E with KNTT1,2                    1170                  129330
 Leave Stor2X
 Entering PrmDigJobTyp =                      20
 LenSav and NKeep                       0                       0
 Entered Stor2E with KNTT1,2                    1182                  129322
 Leave Stor2X
 Entering PrmDigJobTyp =                      20
 LenSav and NKeep                       0                       0
 Entered Stor2E with KNTT1,2                    1190                  129322
 Leave Stor2X
 Entering PrmDigJobTyp =                      20
 LenSav and NKeep                       0                       0
 Entered Stor2E with KNTT1,2                    1196                  129318
 Leave Stor2X
 Entering PrmDigJobTyp =                      20
 LenSav and NKeep                       0                       0
 Entered Stor2E with KNTT1,2                    1202                  129318
 Leave Stor2X
 Entering PrmDigJobTyp =                      20
 LenSav and NKeep                       0                       0
 Entered Stor2E with KNTT1,2                    1206                  129314
 Leave Stor2X
 Entering PrmDigJobTyp =                      20
 LenSav and NKeep                       0                       0
 Entered Stor2E with KNTT1,2                    1206                  129306
 Leave Stor2X
 Entering PrmDigJobTyp =                      20
 LenSav and NKeep                       0                       0
 Entered Stor2E with KNTT1,2                    1206                  129304
 Leave Stor2X
 Entering PrmDigJobTyp =                      20
 LenSav and NKeep                       0                       0
 Entered Stor2E with KNTT1,2                    1206                  129284
 Leave Stor2X
 Entering PrmDigJobTyp =                      20
 LenSav and NKeep                       0                       0
 Entered Stor2E with KNTT1,2                    1224                  129276
 Leave Stor2X
 Entering PrmDigJobTyp =                      20
 LenSav and NKeep                       0                       0
 Entered Stor2E with KNTT1,2                    1240                  129272
 Leave Stor2X
 Entering PrmDigJobTyp =                      20
 LenSav and NKeep                       0                       0
 Entered Stor2E with KNTT1,2                    1244                  129268
 Leave Stor2X
 Entering PrmDigJobTyp =                      20
 LenSav and NKeep                       0                       0
 Entered Stor2E with KNTT1,2                    1250                  129264
 Leave Stor2X
 Entering PrmDigJobTyp =                      20
 LenSav and NKeep                       0                       0
 Entered Stor2E with KNTT1,2                    1252                  129260
 Leave Stor2X
 Entering PrmDigJobTyp =                      20
 LenSav and NKeep                       0                       0
 Entered Stor2E with KNTT1,2                    1256                  129256
 Leave Stor2X
 Entering PrmDigJobTyp =                      20
 LenSav and NKeep                       0                       0
 Entered Stor2E with KNTT1,2                    1260                  129252
 Leave Stor2X
 Entering PrmDigJobTyp =                      20
 LenSav and NKeep                       0                       0
 Entered Stor2E with KNTT1,2                    1262                  129252
 Leave Stor2X
 In PrSumR
 Called IWRITE
         1540 integrals produced for a total of         1540.
 Initial guess from the checkpoint file:  "h10.chk"
 B after Tr=     0.000000    0.000000    0.000000
         Rot=    0.664673    0.000000    0.000000    0.747134 Ang=  96.69 deg.
 Initial guess <Sx>= 0.0000 <Sy>= 0.0000 <Sz>= 0.0000 <S**2>= 0.0000 S= 0.0000
 Two-electron integrals will be kept in memory, NGetB=      152788.
 Requested convergence on RMS density matrix=1.00D-08 within 128 cycles.
 Requested convergence on MAX density matrix=1.00D-06.
 Requested convergence on             energy=1.00D-06.
 No special actions if energy rises.
 Density File Not Found. Continue as usual
 SCF Done:  E(GHF) =  -4.70231516175     A.U. after   15 cycles
            NFock= 15  Conv=0.17D-09     -V/T= 1.9219
 <Sx>= 0.0000 <Sy>= 0.0000 <Sz>= 0.0000 <S**2>= 0.0000 S= 0.0000
 <L.S>= 0.000000000000E+00
 Range of M.O.s used for correlation:     1    10
 NBasis=    10 NAE=    10 NBE=     0 NFC=     0 NFV=     0
 NROrb=     20 NOA=    10 NOB=     0 NVA=    10 NVB=     0
 jaja DoHack is true or false? T
 jaja in hckghf.F, NBasis=                      10
 jaja in hckGHF/FixOG, LC =                      800
 jaja in hckGHF/FixOG, IRwC=                      548
 bfr conversion (real):
                 1             2             3             4             5 
      1a -0.266263D-03  0.180114D+00  0.267549D-02  0.269976D+00 -0.282619D+00
      1b  0.180114D+00  0.266263D-03  0.269976D+00 -0.267549D-02 -0.382751D-01
      2a -0.101635D-03  0.687513D-01  0.127669D-02  0.128827D+00 -0.270106D+00
      2b  0.687513D-01  0.101635D-03  0.128827D+00 -0.127669D-02 -0.365805D-01
      3a -0.299670D-03  0.202712D+00  0.156571D-02  0.157991D+00  0.244284D+00
      3b  0.202712D+00  0.299670D-03  0.157991D+00 -0.156571D-02  0.330834D-01
      4a -0.325304D-03  0.220052D+00  0.304777D-02  0.307541D+00 -0.233529D+00
      4b  0.220052D+00  0.325304D-03  0.307541D+00 -0.304777D-02 -0.316268D-01
      5a -0.270517D-03  0.182991D+00 -0.115161D-02 -0.116205D+00  0.292182D+00
      5b  0.182991D+00  0.270517D-03 -0.116205D+00  0.115161D-02  0.395703D-01
      6a -0.270517D-03  0.182991D+00  0.115161D-02  0.116205D+00  0.292182D+00
      6b  0.182991D+00  0.270517D-03  0.116205D+00 -0.115161D-02  0.395703D-01
      7a -0.325304D-03  0.220052D+00 -0.304777D-02 -0.307541D+00 -0.233529D+00
      7b  0.220052D+00  0.325304D-03 -0.307541D+00  0.304777D-02 -0.316268D-01
      8a -0.299670D-03  0.202712D+00 -0.156571D-02 -0.157991D+00  0.244284D+00
      8b  0.202712D+00  0.299670D-03 -0.157991D+00  0.156571D-02  0.330834D-01
      9a -0.101635D-03  0.687513D-01 -0.127669D-02 -0.128827D+00 -0.270106D+00
      9b  0.687513D-01  0.101635D-03 -0.128827D+00  0.127669D-02 -0.365805D-01
     10a -0.266263D-03  0.180114D+00 -0.267549D-02 -0.269976D+00 -0.282619D+00
     10b  0.180114D+00  0.266263D-03 -0.269976D+00  0.267549D-02 -0.382751D-01
                 6             7             8             9            10 
      1a  0.382751D-01 -0.166123D+00 -0.233582D-02  0.309299D-01  0.574460D+00
      1b -0.282619D+00  0.233582D-02 -0.166123D+00  0.574460D+00 -0.309299D-01
      2a  0.365805D-01 -0.444944D+00 -0.625626D-02 -0.182541D-01 -0.339032D+00
      2b -0.270106D+00  0.625626D-02 -0.444944D+00 -0.339032D+00  0.182541D-01
      3a -0.330834D-01  0.454054D+00  0.638435D-02  0.163616D-01  0.303884D+00
      3b  0.244284D+00 -0.638435D-02  0.454054D+00  0.303884D+00 -0.163616D-01
      4a  0.316268D-01 -0.382651D-02 -0.538037D-04 -0.134188D-01 -0.249226D+00
      4b -0.233529D+00  0.538037D-04 -0.382651D-02 -0.249226D+00  0.134188D-01
      5a -0.395703D-01 -0.438508D+00 -0.616576D-02  0.347415D-01  0.645251D+00
      5b  0.292182D+00  0.616576D-02 -0.438508D+00  0.645251D+00 -0.347415D-01
      6a -0.395703D-01  0.438508D+00  0.616576D-02 -0.347415D-01 -0.645251D+00
      6b  0.292182D+00 -0.616576D-02  0.438508D+00 -0.645251D+00  0.347415D-01
      7a  0.316268D-01  0.382651D-02  0.538037D-04  0.134188D-01  0.249226D+00
      7b -0.233529D+00 -0.538037D-04  0.382651D-02  0.249226D+00 -0.134188D-01
      8a -0.330834D-01 -0.454054D+00 -0.638435D-02 -0.163616D-01 -0.303884D+00
      8b  0.244284D+00  0.638435D-02 -0.454054D+00 -0.303884D+00  0.163616D-01
      9a  0.365805D-01  0.444944D+00  0.625626D-02  0.182541D-01  0.339032D+00
      9b -0.270106D+00 -0.625626D-02  0.444944D+00  0.339032D+00 -0.182541D-01
     10a  0.382751D-01  0.166123D+00  0.233582D-02 -0.309299D-01 -0.574460D+00
     10b -0.282619D+00 -0.233582D-02  0.166123D+00 -0.574460D+00  0.309299D-01
                11            12            13            14            15 
      1a -0.501350D+00 -0.820067D-02 -0.329021D-02 -0.247822D+00 -0.120585D-01
      1b  0.820067D-02 -0.501350D+00 -0.247822D+00  0.329021D-02 -0.601272D+00
      2a  0.728642D+00  0.119185D-01  0.766007D-02  0.576964D+00 -0.428676D-02
      2b -0.119185D-01  0.728642D+00  0.576965D+00 -0.766007D-02 -0.213751D+00
      3a -0.350130D-01 -0.572713D-03  0.928710D-02  0.699514D+00 -0.835780D-02
      3b  0.572713D-03 -0.350130D-01  0.699514D+00 -0.928710D-02 -0.416746D+00
      4a -0.166400D+00 -0.272183D-02 -0.698751D-02 -0.526307D+00  0.181911D-01
      4b  0.272183D-02 -0.166400D+00 -0.526307D+00  0.698751D-02  0.907065D+00
      5a  0.259587D+00  0.424610D-02  0.295865D-03  0.222849D-01  0.376464D-02
      5b -0.424610D-02  0.259587D+00  0.222849D-01 -0.295865D-03  0.187716D+00
      6a  0.259587D+00  0.424610D-02 -0.295865D-03 -0.222849D-01  0.376464D-02
      6b -0.424610D-02  0.259587D+00 -0.222849D-01  0.295865D-03  0.187716D+00
      7a -0.166400D+00 -0.272183D-02  0.698751D-02  0.526307D+00  0.181911D-01
      7b  0.272183D-02 -0.166400D+00  0.526307D+00 -0.698751D-02  0.907065D+00
      8a -0.350130D-01 -0.572713D-03 -0.928710D-02 -0.699514D+00 -0.835780D-02
      8b  0.572713D-03 -0.350130D-01 -0.699514D+00  0.928710D-02 -0.416746D+00
      9a  0.728642D+00  0.119185D-01 -0.766007D-02 -0.576965D+00 -0.428676D-02
      9b -0.119185D-01  0.728642D+00 -0.576964D+00  0.766007D-02 -0.213751D+00
     10a -0.501350D+00 -0.820067D-02  0.329021D-02  0.247822D+00 -0.120585D-01
     10b  0.820067D-02 -0.501350D+00  0.247822D+00 -0.329021D-02 -0.601272D+00
                16            17            18            19            20 
      1a -0.601272D+00  0.150352D-01 -0.761150D+00 -0.994508D-02 -0.605308D+00
      1b  0.120585D-01 -0.761150D+00 -0.150352D-01 -0.605308D+00  0.994508D-02
      2a -0.213751D+00  0.921443D-03 -0.466476D-01  0.134004D-02  0.815618D-01
      2b  0.428676D-02 -0.466476D-01 -0.921443D-03  0.815618D-01 -0.134004D-02
      3a -0.416746D+00 -0.733930D-02  0.371548D+00  0.179567D-01  0.109293D+01
      3b  0.835780D-02  0.371548D+00  0.733930D-02  0.109293D+01 -0.179567D-01
      4a  0.907065D+00 -0.170591D-01  0.863609D+00  0.668655D-02  0.406977D+00
      4b -0.181911D-01  0.863609D+00  0.170591D-01  0.406977D+00 -0.668655D-02
      5a  0.187716D+00 -0.151090D-01  0.764886D+00 -0.163774D-01 -0.996810D+00
      5b -0.376464D-02  0.764886D+00  0.151090D-01 -0.996810D+00  0.163774D-01
      6a  0.187716D+00  0.151090D-01 -0.764886D+00 -0.163774D-01 -0.996810D+00
      6b -0.376464D-02 -0.764886D+00 -0.151090D-01 -0.996810D+00  0.163774D-01
      7a  0.907065D+00  0.170591D-01 -0.863609D+00  0.668655D-02  0.406977D+00
      7b -0.181911D-01 -0.863609D+00 -0.170591D-01  0.406977D+00 -0.668655D-02
      8a -0.416746D+00  0.733930D-02 -0.371548D+00  0.179567D-01  0.109293D+01
      8b  0.835780D-02 -0.371548D+00 -0.733930D-02  0.109293D+01 -0.179567D-01
      9a -0.213751D+00 -0.921443D-03  0.466476D-01  0.134004D-02  0.815618D-01
      9b  0.428676D-02  0.466476D-01  0.921443D-03  0.815618D-01 -0.134004D-02
     10a -0.601272D+00 -0.150352D-01  0.761150D+00 -0.994508D-02 -0.605308D+00
     10b  0.120585D-01  0.761150D+00  0.150352D-01 -0.605308D+00  0.994508D-02
 bfr conversion (imaginary):
                 1             2             3             4             5 
      1a  0.000000D+00  0.000000D+00  0.000000D+00  0.000000D+00  0.000000D+00
      1b  0.000000D+00  0.000000D+00  0.000000D+00  0.000000D+00  0.000000D+00
      2a  0.000000D+00  0.000000D+00  0.000000D+00  0.000000D+00  0.000000D+00
      2b  0.000000D+00  0.000000D+00  0.000000D+00  0.000000D+00  0.000000D+00
      3a  0.000000D+00  0.000000D+00  0.000000D+00  0.000000D+00  0.000000D+00
      3b  0.000000D+00  0.000000D+00  0.000000D+00  0.000000D+00  0.000000D+00
      4a  0.000000D+00  0.000000D+00  0.000000D+00  0.000000D+00  0.000000D+00
      4b  0.000000D+00  0.000000D+00  0.000000D+00  0.000000D+00  0.000000D+00
      5a  0.000000D+00  0.000000D+00  0.000000D+00  0.000000D+00  0.000000D+00
      5b  0.000000D+00  0.000000D+00  0.000000D+00  0.000000D+00  0.000000D+00
      6a  0.000000D+00  0.000000D+00  0.000000D+00  0.000000D+00  0.000000D+00
      6b  0.000000D+00  0.000000D+00  0.000000D+00  0.000000D+00  0.000000D+00
      7a  0.000000D+00  0.000000D+00  0.000000D+00  0.000000D+00  0.000000D+00
      7b  0.000000D+00  0.000000D+00  0.000000D+00  0.000000D+00  0.000000D+00
      8a  0.000000D+00  0.000000D+00  0.000000D+00  0.000000D+00  0.000000D+00
      8b  0.000000D+00  0.000000D+00  0.000000D+00  0.000000D+00  0.000000D+00
      9a  0.000000D+00  0.000000D+00  0.000000D+00  0.000000D+00  0.000000D+00
      9b  0.000000D+00  0.000000D+00  0.000000D+00  0.000000D+00  0.000000D+00
     10a  0.000000D+00  0.000000D+00  0.000000D+00  0.000000D+00  0.000000D+00
     10b  0.000000D+00  0.000000D+00  0.000000D+00  0.000000D+00  0.000000D+00
                 6             7             8             9            10 
      1a  0.000000D+00  0.000000D+00  0.000000D+00  0.000000D+00  0.000000D+00
      1b  0.000000D+00  0.000000D+00  0.000000D+00  0.000000D+00  0.000000D+00
      2a  0.000000D+00  0.000000D+00  0.000000D+00  0.000000D+00  0.000000D+00
      2b  0.000000D+00  0.000000D+00  0.000000D+00  0.000000D+00  0.000000D+00
      3a  0.000000D+00  0.000000D+00  0.000000D+00  0.000000D+00  0.000000D+00
      3b  0.000000D+00  0.000000D+00  0.000000D+00  0.000000D+00  0.000000D+00
      4a  0.000000D+00  0.000000D+00  0.000000D+00  0.000000D+00  0.000000D+00
      4b  0.000000D+00  0.000000D+00  0.000000D+00  0.000000D+00  0.000000D+00
      5a  0.000000D+00  0.000000D+00  0.000000D+00  0.000000D+00  0.000000D+00
      5b  0.000000D+00  0.000000D+00  0.000000D+00  0.000000D+00  0.000000D+00
      6a  0.000000D+00  0.000000D+00  0.000000D+00  0.000000D+00  0.000000D+00
      6b  0.000000D+00  0.000000D+00  0.000000D+00  0.000000D+00  0.000000D+00
      7a  0.000000D+00  0.000000D+00  0.000000D+00  0.000000D+00  0.000000D+00
      7b  0.000000D+00  0.000000D+00  0.000000D+00  0.000000D+00  0.000000D+00
      8a  0.000000D+00  0.000000D+00  0.000000D+00  0.000000D+00  0.000000D+00
      8b  0.000000D+00  0.000000D+00  0.000000D+00  0.000000D+00  0.000000D+00
      9a  0.000000D+00  0.000000D+00  0.000000D+00  0.000000D+00  0.000000D+00
      9b  0.000000D+00  0.000000D+00  0.000000D+00  0.000000D+00  0.000000D+00
     10a  0.000000D+00  0.000000D+00  0.000000D+00  0.000000D+00  0.000000D+00
     10b  0.000000D+00  0.000000D+00  0.000000D+00  0.000000D+00  0.000000D+00
                11            12            13            14            15 
      1a  0.000000D+00  0.000000D+00  0.000000D+00  0.000000D+00  0.000000D+00
      1b  0.000000D+00  0.000000D+00  0.000000D+00  0.000000D+00  0.000000D+00
      2a  0.000000D+00  0.000000D+00  0.000000D+00  0.000000D+00  0.000000D+00
      2b  0.000000D+00  0.000000D+00  0.000000D+00  0.000000D+00  0.000000D+00
      3a  0.000000D+00  0.000000D+00  0.000000D+00  0.000000D+00  0.000000D+00
      3b  0.000000D+00  0.000000D+00  0.000000D+00  0.000000D+00  0.000000D+00
      4a  0.000000D+00  0.000000D+00  0.000000D+00  0.000000D+00  0.000000D+00
      4b  0.000000D+00  0.000000D+00  0.000000D+00  0.000000D+00  0.000000D+00
      5a  0.000000D+00  0.000000D+00  0.000000D+00  0.000000D+00  0.000000D+00
      5b  0.000000D+00  0.000000D+00  0.000000D+00  0.000000D+00  0.000000D+00
      6a  0.000000D+00  0.000000D+00  0.000000D+00  0.000000D+00  0.000000D+00
      6b  0.000000D+00  0.000000D+00  0.000000D+00  0.000000D+00  0.000000D+00
      7a  0.000000D+00  0.000000D+00  0.000000D+00  0.000000D+00  0.000000D+00
      7b  0.000000D+00  0.000000D+00  0.000000D+00  0.000000D+00  0.000000D+00
      8a  0.000000D+00  0.000000D+00  0.000000D+00  0.000000D+00  0.000000D+00
      8b  0.000000D+00  0.000000D+00  0.000000D+00  0.000000D+00  0.000000D+00
      9a  0.000000D+00  0.000000D+00  0.000000D+00  0.000000D+00  0.000000D+00
      9b  0.000000D+00  0.000000D+00  0.000000D+00  0.000000D+00  0.000000D+00
     10a  0.000000D+00  0.000000D+00  0.000000D+00  0.000000D+00  0.000000D+00
     10b  0.000000D+00  0.000000D+00  0.000000D+00  0.000000D+00  0.000000D+00
                16            17            18            19            20 
      1a  0.000000D+00  0.000000D+00  0.000000D+00  0.000000D+00  0.000000D+00
      1b  0.000000D+00  0.000000D+00  0.000000D+00  0.000000D+00  0.000000D+00
      2a  0.000000D+00  0.000000D+00  0.000000D+00  0.000000D+00  0.000000D+00
      2b  0.000000D+00  0.000000D+00  0.000000D+00  0.000000D+00  0.000000D+00
      3a  0.000000D+00  0.000000D+00  0.000000D+00  0.000000D+00  0.000000D+00
      3b  0.000000D+00  0.000000D+00  0.000000D+00  0.000000D+00  0.000000D+00
      4a  0.000000D+00  0.000000D+00  0.000000D+00  0.000000D+00  0.000000D+00
      4b  0.000000D+00  0.000000D+00  0.000000D+00  0.000000D+00  0.000000D+00
      5a  0.000000D+00  0.000000D+00  0.000000D+00  0.000000D+00  0.000000D+00
      5b  0.000000D+00  0.000000D+00  0.000000D+00  0.000000D+00  0.000000D+00
      6a  0.000000D+00  0.000000D+00  0.000000D+00  0.000000D+00  0.000000D+00
      6b  0.000000D+00  0.000000D+00  0.000000D+00  0.000000D+00  0.000000D+00
      7a  0.000000D+00  0.000000D+00  0.000000D+00  0.000000D+00  0.000000D+00
      7b  0.000000D+00  0.000000D+00  0.000000D+00  0.000000D+00  0.000000D+00
      8a  0.000000D+00  0.000000D+00  0.000000D+00  0.000000D+00  0.000000D+00
      8b  0.000000D+00  0.000000D+00  0.000000D+00  0.000000D+00  0.000000D+00
      9a  0.000000D+00  0.000000D+00  0.000000D+00  0.000000D+00  0.000000D+00
      9b  0.000000D+00  0.000000D+00  0.000000D+00  0.000000D+00  0.000000D+00
     10a  0.000000D+00  0.000000D+00  0.000000D+00  0.000000D+00  0.000000D+00
     10b  0.000000D+00  0.000000D+00  0.000000D+00  0.000000D+00  0.000000D+00
 afr conversion (alpha, real):
                 1             2             3             4             5 
      1  -0.266263D-03  0.180114D+00  0.267549D-02  0.269976D+00 -0.282619D+00
      2  -0.101635D-03  0.687513D-01  0.127669D-02  0.128827D+00 -0.270106D+00
      3  -0.299670D-03  0.202712D+00  0.156571D-02  0.157991D+00  0.244284D+00
      4  -0.325304D-03  0.220052D+00  0.304777D-02  0.307541D+00 -0.233529D+00
      5  -0.270517D-03  0.182991D+00 -0.115161D-02 -0.116205D+00  0.292182D+00
      6  -0.270517D-03  0.182991D+00  0.115161D-02  0.116205D+00  0.292182D+00
      7  -0.325304D-03  0.220052D+00 -0.304777D-02 -0.307541D+00 -0.233529D+00
      8  -0.299670D-03  0.202712D+00 -0.156571D-02 -0.157991D+00  0.244284D+00
      9  -0.101635D-03  0.687513D-01 -0.127669D-02 -0.128827D+00 -0.270106D+00
     10  -0.266263D-03  0.180114D+00 -0.267549D-02 -0.269976D+00 -0.282619D+00
                 6             7             8             9            10 
      1   0.382751D-01 -0.166123D+00 -0.233582D-02  0.309299D-01  0.574460D+00
      2   0.365805D-01 -0.444944D+00 -0.625626D-02 -0.182541D-01 -0.339032D+00
      3  -0.330834D-01  0.454054D+00  0.638435D-02  0.163616D-01  0.303884D+00
      4   0.316268D-01 -0.382651D-02 -0.538037D-04 -0.134188D-01 -0.249226D+00
      5  -0.395703D-01 -0.438508D+00 -0.616576D-02  0.347415D-01  0.645251D+00
      6  -0.395703D-01  0.438508D+00  0.616576D-02 -0.347415D-01 -0.645251D+00
      7   0.316268D-01  0.382651D-02  0.538037D-04  0.134188D-01  0.249226D+00
      8  -0.330834D-01 -0.454054D+00 -0.638435D-02 -0.163616D-01 -0.303884D+00
      9   0.365805D-01  0.444944D+00  0.625626D-02  0.182541D-01  0.339032D+00
     10   0.382751D-01  0.166123D+00  0.233582D-02 -0.309299D-01 -0.574460D+00
                11            12            13            14            15 
      1  -0.501350D+00 -0.820067D-02 -0.329021D-02 -0.247822D+00 -0.120585D-01
      2   0.728642D+00  0.119185D-01  0.766007D-02  0.576964D+00 -0.428676D-02
      3  -0.350130D-01 -0.572713D-03  0.928710D-02  0.699514D+00 -0.835780D-02
      4  -0.166400D+00 -0.272183D-02 -0.698751D-02 -0.526307D+00  0.181911D-01
      5   0.259587D+00  0.424610D-02  0.295865D-03  0.222849D-01  0.376464D-02
      6   0.259587D+00  0.424610D-02 -0.295865D-03 -0.222849D-01  0.376464D-02
      7  -0.166400D+00 -0.272183D-02  0.698751D-02  0.526307D+00  0.181911D-01
      8  -0.350130D-01 -0.572713D-03 -0.928710D-02 -0.699514D+00 -0.835780D-02
      9   0.728642D+00  0.119185D-01 -0.766007D-02 -0.576965D+00 -0.428676D-02
     10  -0.501350D+00 -0.820067D-02  0.329021D-02  0.247822D+00 -0.120585D-01
                16            17            18            19            20 
      1  -0.601272D+00  0.150352D-01 -0.761150D+00 -0.994508D-02 -0.605308D+00
      2  -0.213751D+00  0.921443D-03 -0.466476D-01  0.134004D-02  0.815618D-01
      3  -0.416746D+00 -0.733930D-02  0.371548D+00  0.179567D-01  0.109293D+01
      4   0.907065D+00 -0.170591D-01  0.863609D+00  0.668655D-02  0.406977D+00
      5   0.187716D+00 -0.151090D-01  0.764886D+00 -0.163774D-01 -0.996810D+00
      6   0.187716D+00  0.151090D-01 -0.764886D+00 -0.163774D-01 -0.996810D+00
      7   0.907065D+00  0.170591D-01 -0.863609D+00  0.668655D-02  0.406977D+00
      8  -0.416746D+00  0.733930D-02 -0.371548D+00  0.179567D-01  0.109293D+01
      9  -0.213751D+00 -0.921443D-03  0.466476D-01  0.134004D-02  0.815618D-01
     10  -0.601272D+00 -0.150352D-01  0.761150D+00 -0.994508D-02 -0.605308D+00
 afr conversion (alpha, imaginary):
                 1             2             3             4             5 
      1   0.000000D+00  0.000000D+00  0.000000D+00  0.000000D+00  0.000000D+00
      2   0.000000D+00  0.000000D+00  0.000000D+00  0.000000D+00  0.000000D+00
      3   0.000000D+00  0.000000D+00  0.000000D+00  0.000000D+00  0.000000D+00
      4   0.000000D+00  0.000000D+00  0.000000D+00  0.000000D+00  0.000000D+00
      5   0.000000D+00  0.000000D+00  0.000000D+00  0.000000D+00  0.000000D+00
      6   0.000000D+00  0.000000D+00  0.000000D+00  0.000000D+00  0.000000D+00
      7   0.000000D+00  0.000000D+00  0.000000D+00  0.000000D+00  0.000000D+00
      8   0.000000D+00  0.000000D+00  0.000000D+00  0.000000D+00  0.000000D+00
      9   0.000000D+00  0.000000D+00  0.000000D+00  0.000000D+00  0.000000D+00
     10   0.000000D+00  0.000000D+00  0.000000D+00  0.000000D+00  0.000000D+00
                 6             7             8             9            10 
      1   0.000000D+00  0.000000D+00  0.000000D+00  0.000000D+00  0.000000D+00
      2   0.000000D+00  0.000000D+00  0.000000D+00  0.000000D+00  0.000000D+00
      3   0.000000D+00  0.000000D+00  0.000000D+00  0.000000D+00  0.000000D+00
      4   0.000000D+00  0.000000D+00  0.000000D+00  0.000000D+00  0.000000D+00
      5   0.000000D+00  0.000000D+00  0.000000D+00  0.000000D+00  0.000000D+00
      6   0.000000D+00  0.000000D+00  0.000000D+00  0.000000D+00  0.000000D+00
      7   0.000000D+00  0.000000D+00  0.000000D+00  0.000000D+00  0.000000D+00
      8   0.000000D+00  0.000000D+00  0.000000D+00  0.000000D+00  0.000000D+00
      9   0.000000D+00  0.000000D+00  0.000000D+00  0.000000D+00  0.000000D+00
     10   0.000000D+00  0.000000D+00  0.000000D+00  0.000000D+00  0.000000D+00
                11            12            13            14            15 
      1   0.000000D+00  0.000000D+00  0.000000D+00  0.000000D+00  0.000000D+00
      2   0.000000D+00  0.000000D+00  0.000000D+00  0.000000D+00  0.000000D+00
      3   0.000000D+00  0.000000D+00  0.000000D+00  0.000000D+00  0.000000D+00
      4   0.000000D+00  0.000000D+00  0.000000D+00  0.000000D+00  0.000000D+00
      5   0.000000D+00  0.000000D+00  0.000000D+00  0.000000D+00  0.000000D+00
      6   0.000000D+00  0.000000D+00  0.000000D+00  0.000000D+00  0.000000D+00
      7   0.000000D+00  0.000000D+00  0.000000D+00  0.000000D+00  0.000000D+00
      8   0.000000D+00  0.000000D+00  0.000000D+00  0.000000D+00  0.000000D+00
      9   0.000000D+00  0.000000D+00  0.000000D+00  0.000000D+00  0.000000D+00
     10   0.000000D+00  0.000000D+00  0.000000D+00  0.000000D+00  0.000000D+00
                16            17            18            19            20 
      1   0.000000D+00  0.000000D+00  0.000000D+00  0.000000D+00  0.000000D+00
      2   0.000000D+00  0.000000D+00  0.000000D+00  0.000000D+00  0.000000D+00
      3   0.000000D+00  0.000000D+00  0.000000D+00  0.000000D+00  0.000000D+00
      4   0.000000D+00  0.000000D+00  0.000000D+00  0.000000D+00  0.000000D+00
      5   0.000000D+00  0.000000D+00  0.000000D+00  0.000000D+00  0.000000D+00
      6   0.000000D+00  0.000000D+00  0.000000D+00  0.000000D+00  0.000000D+00
      7   0.000000D+00  0.000000D+00  0.000000D+00  0.000000D+00  0.000000D+00
      8   0.000000D+00  0.000000D+00  0.000000D+00  0.000000D+00  0.000000D+00
      9   0.000000D+00  0.000000D+00  0.000000D+00  0.000000D+00  0.000000D+00
     10   0.000000D+00  0.000000D+00  0.000000D+00  0.000000D+00  0.000000D+00
 afr conversion (beta, real):
                 1             2             3             4             5 
      1   0.180114D+00  0.266263D-03  0.269976D+00 -0.267549D-02 -0.382751D-01
      2   0.687513D-01  0.101635D-03  0.128827D+00 -0.127669D-02 -0.365805D-01
      3   0.202712D+00  0.299670D-03  0.157991D+00 -0.156571D-02  0.330834D-01
      4   0.220052D+00  0.325304D-03  0.307541D+00 -0.304777D-02 -0.316268D-01
      5   0.182991D+00  0.270517D-03 -0.116205D+00  0.115161D-02  0.395703D-01
      6   0.182991D+00  0.270517D-03  0.116205D+00 -0.115161D-02  0.395703D-01
      7   0.220052D+00  0.325304D-03 -0.307541D+00  0.304777D-02 -0.316268D-01
      8   0.202712D+00  0.299670D-03 -0.157991D+00  0.156571D-02  0.330834D-01
      9   0.687513D-01  0.101635D-03 -0.128827D+00  0.127669D-02 -0.365805D-01
     10   0.180114D+00  0.266263D-03 -0.269976D+00  0.267549D-02 -0.382751D-01
                 6             7             8             9            10 
      1  -0.282619D+00  0.233582D-02 -0.166123D+00  0.574460D+00 -0.309299D-01
      2  -0.270106D+00  0.625626D-02 -0.444944D+00 -0.339032D+00  0.182541D-01
      3   0.244284D+00 -0.638435D-02  0.454054D+00  0.303884D+00 -0.163616D-01
      4  -0.233529D+00  0.538037D-04 -0.382651D-02 -0.249226D+00  0.134188D-01
      5   0.292182D+00  0.616576D-02 -0.438508D+00  0.645251D+00 -0.347415D-01
      6   0.292182D+00 -0.616576D-02  0.438508D+00 -0.645251D+00  0.347415D-01
      7  -0.233529D+00 -0.538037D-04  0.382651D-02  0.249226D+00 -0.134188D-01
      8   0.244284D+00  0.638435D-02 -0.454054D+00 -0.303884D+00  0.163616D-01
      9  -0.270106D+00 -0.625626D-02  0.444944D+00  0.339032D+00 -0.182541D-01
     10  -0.282619D+00 -0.233582D-02  0.166123D+00 -0.574460D+00  0.309299D-01
                11            12            13            14            15 
      1   0.820067D-02 -0.501350D+00 -0.247822D+00  0.329021D-02 -0.601272D+00
      2  -0.119185D-01  0.728642D+00  0.576965D+00 -0.766007D-02 -0.213751D+00
      3   0.572713D-03 -0.350130D-01  0.699514D+00 -0.928710D-02 -0.416746D+00
      4   0.272183D-02 -0.166400D+00 -0.526307D+00  0.698751D-02  0.907065D+00
      5  -0.424610D-02  0.259587D+00  0.222849D-01 -0.295865D-03  0.187716D+00
      6  -0.424610D-02  0.259587D+00 -0.222849D-01  0.295865D-03  0.187716D+00
      7   0.272183D-02 -0.166400D+00  0.526307D+00 -0.698751D-02  0.907065D+00
      8   0.572713D-03 -0.350130D-01 -0.699514D+00  0.928710D-02 -0.416746D+00
      9  -0.119185D-01  0.728642D+00 -0.576964D+00  0.766007D-02 -0.213751D+00
     10   0.820067D-02 -0.501350D+00  0.247822D+00 -0.329021D-02 -0.601272D+00
                16            17            18            19            20 
      1   0.120585D-01 -0.761150D+00 -0.150352D-01 -0.605308D+00  0.994508D-02
      2   0.428676D-02 -0.466476D-01 -0.921443D-03  0.815618D-01 -0.134004D-02
      3   0.835780D-02  0.371548D+00  0.733930D-02  0.109293D+01 -0.179567D-01
      4  -0.181911D-01  0.863609D+00  0.170591D-01  0.406977D+00 -0.668655D-02
      5  -0.376464D-02  0.764886D+00  0.151090D-01 -0.996810D+00  0.163774D-01
      6  -0.376464D-02 -0.764886D+00 -0.151090D-01 -0.996810D+00  0.163774D-01
      7  -0.181911D-01 -0.863609D+00 -0.170591D-01  0.406977D+00 -0.668655D-02
      8   0.835780D-02 -0.371548D+00 -0.733930D-02  0.109293D+01 -0.179567D-01
      9   0.428676D-02  0.466476D-01  0.921443D-03  0.815618D-01 -0.134004D-02
     10   0.120585D-01  0.761150D+00  0.150352D-01 -0.605308D+00  0.994508D-02
 afr conversion (beta, imaginary):
                 1             2             3             4             5 
      1   0.000000D+00  0.000000D+00  0.000000D+00  0.000000D+00  0.000000D+00
      2   0.000000D+00  0.000000D+00  0.000000D+00  0.000000D+00  0.000000D+00
      3   0.000000D+00  0.000000D+00  0.000000D+00  0.000000D+00  0.000000D+00
      4   0.000000D+00  0.000000D+00  0.000000D+00  0.000000D+00  0.000000D+00
      5   0.000000D+00  0.000000D+00  0.000000D+00  0.000000D+00  0.000000D+00
      6   0.000000D+00  0.000000D+00  0.000000D+00  0.000000D+00  0.000000D+00
      7   0.000000D+00  0.000000D+00  0.000000D+00  0.000000D+00  0.000000D+00
      8   0.000000D+00  0.000000D+00  0.000000D+00  0.000000D+00  0.000000D+00
      9   0.000000D+00  0.000000D+00  0.000000D+00  0.000000D+00  0.000000D+00
     10   0.000000D+00  0.000000D+00  0.000000D+00  0.000000D+00  0.000000D+00
                 6             7             8             9            10 
      1   0.000000D+00  0.000000D+00  0.000000D+00  0.000000D+00  0.000000D+00
      2   0.000000D+00  0.000000D+00  0.000000D+00  0.000000D+00  0.000000D+00
      3   0.000000D+00  0.000000D+00  0.000000D+00  0.000000D+00  0.000000D+00
      4   0.000000D+00  0.000000D+00  0.000000D+00  0.000000D+00  0.000000D+00
      5   0.000000D+00  0.000000D+00  0.000000D+00  0.000000D+00  0.000000D+00
      6   0.000000D+00  0.000000D+00  0.000000D+00  0.000000D+00  0.000000D+00
      7   0.000000D+00  0.000000D+00  0.000000D+00  0.000000D+00  0.000000D+00
      8   0.000000D+00  0.000000D+00  0.000000D+00  0.000000D+00  0.000000D+00
      9   0.000000D+00  0.000000D+00  0.000000D+00  0.000000D+00  0.000000D+00
     10   0.000000D+00  0.000000D+00  0.000000D+00  0.000000D+00  0.000000D+00
                11            12            13            14            15 
      1   0.000000D+00  0.000000D+00  0.000000D+00  0.000000D+00  0.000000D+00
      2   0.000000D+00  0.000000D+00  0.000000D+00  0.000000D+00  0.000000D+00
      3   0.000000D+00  0.000000D+00  0.000000D+00  0.000000D+00  0.000000D+00
      4   0.000000D+00  0.000000D+00  0.000000D+00  0.000000D+00  0.000000D+00
      5   0.000000D+00  0.000000D+00  0.000000D+00  0.000000D+00  0.000000D+00
      6   0.000000D+00  0.000000D+00  0.000000D+00  0.000000D+00  0.000000D+00
      7   0.000000D+00  0.000000D+00  0.000000D+00  0.000000D+00  0.000000D+00
      8   0.000000D+00  0.000000D+00  0.000000D+00  0.000000D+00  0.000000D+00
      9   0.000000D+00  0.000000D+00  0.000000D+00  0.000000D+00  0.000000D+00
     10   0.000000D+00  0.000000D+00  0.000000D+00  0.000000D+00  0.000000D+00
                16            17            18            19            20 
      1   0.000000D+00  0.000000D+00  0.000000D+00  0.000000D+00  0.000000D+00
      2   0.000000D+00  0.000000D+00  0.000000D+00  0.000000D+00  0.000000D+00
      3   0.000000D+00  0.000000D+00  0.000000D+00  0.000000D+00  0.000000D+00
      4   0.000000D+00  0.000000D+00  0.000000D+00  0.000000D+00  0.000000D+00
      5   0.000000D+00  0.000000D+00  0.000000D+00  0.000000D+00  0.000000D+00
      6   0.000000D+00  0.000000D+00  0.000000D+00  0.000000D+00  0.000000D+00
      7   0.000000D+00  0.000000D+00  0.000000D+00  0.000000D+00  0.000000D+00
      8   0.000000D+00  0.000000D+00  0.000000D+00  0.000000D+00  0.000000D+00
      9   0.000000D+00  0.000000D+00  0.000000D+00  0.000000D+00  0.000000D+00
     10   0.000000D+00  0.000000D+00  0.000000D+00  0.000000D+00  0.000000D+00
 jaja in hckghf.F, ISPECT =                     548
Spin block MO for GHF transformation
NOA =   10   NOB =   10
NVA =   10   NVB =   10
 NOAvA in Hack                     100
 jaja in tranN3.F, ISPECT =                     548
 in l802/tranN3.F, LSPECT =                      800
 NMat, NBtSiz,MDV                    8372                   16000
                133954722
 TranN3:  NGot= 134217728 NBasic=    263006 NTTT=       550 NMat=      8372.
 Defined bucket =                      51                   10000
 Defined bucket =                      52                   10000
 Defined bucket =                      53                   10000
 Defined bucket =                      55                   10000
 Defined bucket =                      57                   10000
 Defined bucket =                      58                   10000
 Defined bucket =                      60                   10000
 Defined bucket =                      72                   10000
 Defined bucket =                      73                   10000
 Defined bucket =                      74                   10000
 Defined bucket =                      75                   10000
 Defined bucket =                      76                   10000
 (IK/LS) integrals will be saved in memory.
 TrCghf made   2 passes through the AO integrals.
 jaja DoHack is true or false? F
 jaja in hckghf.F, NBasis=                      10
 jaja in hckGHF/FixOG, LC =                      800
 jaja in hckGHF/FixOG, IRwC=                      548
 bfr conversion (alpha, real):
                 1             2             3             4             5 
      1  -0.266263D-03  0.180114D+00  0.267549D-02  0.269976D+00 -0.282619D+00
      2  -0.101635D-03  0.687513D-01  0.127669D-02  0.128827D+00 -0.270106D+00
      3  -0.299670D-03  0.202712D+00  0.156571D-02  0.157991D+00  0.244284D+00
      4  -0.325304D-03  0.220052D+00  0.304777D-02  0.307541D+00 -0.233529D+00
      5  -0.270517D-03  0.182991D+00 -0.115161D-02 -0.116205D+00  0.292182D+00
      6  -0.270517D-03  0.182991D+00  0.115161D-02  0.116205D+00  0.292182D+00
      7  -0.325304D-03  0.220052D+00 -0.304777D-02 -0.307541D+00 -0.233529D+00
      8  -0.299670D-03  0.202712D+00 -0.156571D-02 -0.157991D+00  0.244284D+00
      9  -0.101635D-03  0.687513D-01 -0.127669D-02 -0.128827D+00 -0.270106D+00
     10  -0.266263D-03  0.180114D+00 -0.267549D-02 -0.269976D+00 -0.282619D+00
                 6             7             8             9            10 
      1   0.382751D-01 -0.166123D+00 -0.233582D-02  0.309299D-01  0.574460D+00
      2   0.365805D-01 -0.444944D+00 -0.625626D-02 -0.182541D-01 -0.339032D+00
      3  -0.330834D-01  0.454054D+00  0.638435D-02  0.163616D-01  0.303884D+00
      4   0.316268D-01 -0.382651D-02 -0.538037D-04 -0.134188D-01 -0.249226D+00
      5  -0.395703D-01 -0.438508D+00 -0.616576D-02  0.347415D-01  0.645251D+00
      6  -0.395703D-01  0.438508D+00  0.616576D-02 -0.347415D-01 -0.645251D+00
      7   0.316268D-01  0.382651D-02  0.538037D-04  0.134188D-01  0.249226D+00
      8  -0.330834D-01 -0.454054D+00 -0.638435D-02 -0.163616D-01 -0.303884D+00
      9   0.365805D-01  0.444944D+00  0.625626D-02  0.182541D-01  0.339032D+00
     10   0.382751D-01  0.166123D+00  0.233582D-02 -0.309299D-01 -0.574460D+00
                11            12            13            14            15 
      1  -0.501350D+00 -0.820067D-02 -0.329021D-02 -0.247822D+00 -0.120585D-01
      2   0.728642D+00  0.119185D-01  0.766007D-02  0.576964D+00 -0.428676D-02
      3  -0.350130D-01 -0.572713D-03  0.928710D-02  0.699514D+00 -0.835780D-02
      4  -0.166400D+00 -0.272183D-02 -0.698751D-02 -0.526307D+00  0.181911D-01
      5   0.259587D+00  0.424610D-02  0.295865D-03  0.222849D-01  0.376464D-02
      6   0.259587D+00  0.424610D-02 -0.295865D-03 -0.222849D-01  0.376464D-02
      7  -0.166400D+00 -0.272183D-02  0.698751D-02  0.526307D+00  0.181911D-01
      8  -0.350130D-01 -0.572713D-03 -0.928710D-02 -0.699514D+00 -0.835780D-02
      9   0.728642D+00  0.119185D-01 -0.766007D-02 -0.576965D+00 -0.428676D-02
     10  -0.501350D+00 -0.820067D-02  0.329021D-02  0.247822D+00 -0.120585D-01
                16            17            18            19            20 
      1  -0.601272D+00  0.150352D-01 -0.761150D+00 -0.994508D-02 -0.605308D+00
      2  -0.213751D+00  0.921443D-03 -0.466476D-01  0.134004D-02  0.815618D-01
      3  -0.416746D+00 -0.733930D-02  0.371548D+00  0.179567D-01  0.109293D+01
      4   0.907065D+00 -0.170591D-01  0.863609D+00  0.668655D-02  0.406977D+00
      5   0.187716D+00 -0.151090D-01  0.764886D+00 -0.163774D-01 -0.996810D+00
      6   0.187716D+00  0.151090D-01 -0.764886D+00 -0.163774D-01 -0.996810D+00
      7   0.907065D+00  0.170591D-01 -0.863609D+00  0.668655D-02  0.406977D+00
      8  -0.416746D+00  0.733930D-02 -0.371548D+00  0.179567D-01  0.109293D+01
      9  -0.213751D+00 -0.921443D-03  0.466476D-01  0.134004D-02  0.815618D-01
     10  -0.601272D+00 -0.150352D-01  0.761150D+00 -0.994508D-02 -0.605308D+00
 bfr conversion (alpha, imaginary):
                 1             2             3             4             5 
      1   0.000000D+00  0.000000D+00  0.000000D+00  0.000000D+00  0.000000D+00
      2   0.000000D+00  0.000000D+00  0.000000D+00  0.000000D+00  0.000000D+00
      3   0.000000D+00  0.000000D+00  0.000000D+00  0.000000D+00  0.000000D+00
      4   0.000000D+00  0.000000D+00  0.000000D+00  0.000000D+00  0.000000D+00
      5   0.000000D+00  0.000000D+00  0.000000D+00  0.000000D+00  0.000000D+00
      6   0.000000D+00  0.000000D+00  0.000000D+00  0.000000D+00  0.000000D+00
      7   0.000000D+00  0.000000D+00  0.000000D+00  0.000000D+00  0.000000D+00
      8   0.000000D+00  0.000000D+00  0.000000D+00  0.000000D+00  0.000000D+00
      9   0.000000D+00  0.000000D+00  0.000000D+00  0.000000D+00  0.000000D+00
     10   0.000000D+00  0.000000D+00  0.000000D+00  0.000000D+00  0.000000D+00
                 6             7             8             9            10 
      1   0.000000D+00  0.000000D+00  0.000000D+00  0.000000D+00  0.000000D+00
      2   0.000000D+00  0.000000D+00  0.000000D+00  0.000000D+00  0.000000D+00
      3   0.000000D+00  0.000000D+00  0.000000D+00  0.000000D+00  0.000000D+00
      4   0.000000D+00  0.000000D+00  0.000000D+00  0.000000D+00  0.000000D+00
      5   0.000000D+00  0.000000D+00  0.000000D+00  0.000000D+00  0.000000D+00
      6   0.000000D+00  0.000000D+00  0.000000D+00  0.000000D+00  0.000000D+00
      7   0.000000D+00  0.000000D+00  0.000000D+00  0.000000D+00  0.000000D+00
      8   0.000000D+00  0.000000D+00  0.000000D+00  0.000000D+00  0.000000D+00
      9   0.000000D+00  0.000000D+00  0.000000D+00  0.000000D+00  0.000000D+00
     10   0.000000D+00  0.000000D+00  0.000000D+00  0.000000D+00  0.000000D+00
                11            12            13            14            15 
      1   0.000000D+00  0.000000D+00  0.000000D+00  0.000000D+00  0.000000D+00
      2   0.000000D+00  0.000000D+00  0.000000D+00  0.000000D+00  0.000000D+00
[...]
      6b 0.159773D-01 -0.327359D+00  0.142380D-01 -0.351577D+00 -0.832690D-02
      7a-0.119686D+00 -0.123619D-01 -0.339358D-01 -0.101119D-01 -0.236759D+00
      7b-0.691127D-02  0.852361D-01 -0.965649D-02  0.107039D+00  0.901895D-02
      8a-0.289147D+00  0.219659D-01  0.241917D-01  0.100442D-01 -0.120192D+00
      8b 0.127526D-01 -0.227177D+00  0.129123D-01 -0.692512D-01 -0.880696D-02
      9a 0.757386D-03 -0.127041D-01 -0.736090D-01 -0.873142D-02 -0.241038D-01
      9b-0.108713D-01  0.156869D+00 -0.237835D-01  0.274876D-01  0.155575D-01
     10a-0.127418D+00 -0.134773D-01  0.193157D-01 -0.144551D-01 -0.180369D+00
     10b-0.188980D-01  0.377983D-01 -0.126223D-01  0.111204D+00  0.482200D-02
                3b            4a            4b            5a            5b
      3b 0.683458D+00
      4a 0.826586D-02  0.433907D+00
      4b-0.628475D-01 -0.126012D-02  0.747002D+00
      5a-0.141863D-01 -0.250401D+00  0.132610D-01  0.526542D+00
      5b 0.142733D+00  0.100497D-01 -0.364826D+00 -0.133262D-01  0.743465D+00
      6a-0.100381D-01  0.102981D+00  0.123522D-01 -0.815459D-01 -0.172303D-01
      6b 0.602282D+00  0.777296D-02 -0.974569D-01 -0.152042D-01  0.448223D-01
      7a 0.134690D-01 -0.178789D+00 -0.151910D-01  0.349060D-01  0.176212D-01
      7b-0.284746D+00 -0.532985D-02 -0.360813D-01  0.130420D-01 -0.130717D-03
      8a-0.141464D-01 -0.235197D+00  0.136415D-01  0.483338D+00 -0.180513D-01
      8b-0.289958D-01  0.919149D-02 -0.269133D+00 -0.163402D-01  0.464529D+00
      9a 0.126894D-01  0.176704D-01 -0.127949D-01 -0.239822D+00  0.130874D-01
      9b-0.666611D-01 -0.123394D-01  0.113006D+00  0.146734D-01 -0.377863D+00
     10a 0.140353D-01 -0.432576D-01 -0.170639D-01 -0.189253D+00  0.168850D-01
     10b-0.352974D+00 -0.116132D-01  0.497668D-01  0.165704D-01 -0.305031D+00
                6a            6b            7a            7b            8a
      6a 0.633008D+00
      6b-0.206962D-01  0.644181D+00
      7a-0.296012D+00  0.166622D-01  0.729059D+00
      7b 0.134509D-01 -0.307467D+00 -0.221446D-01  0.444228D+00
      8a 0.263381D-01 -0.185554D-01  0.725552D-01  0.121114D-01  0.573291D+00
      8b-0.131192D-01  0.557063D-01  0.129582D-01  0.335073D-01 -0.161347D-01
      9a-0.581693D-01  0.128873D-01  0.338760D+00 -0.131359D-01 -0.227289D+00
      9b 0.138562D-01 -0.180699D+00 -0.119333D-01  0.381532D+00  0.966151D-02
     10a-0.122913D+00  0.161064D-01  0.553400D+00 -0.195993D-01 -0.927960D-01
     10b 0.169318D-01 -0.207994D+00 -0.148835D-01  0.457589D+00  0.237999D-01
                8b            9a            9b           10a           10b
      8b 0.505870D+00
      9a 0.956080D-02  0.301787D+00
      9b-0.421052D+00 -0.271738D-02  0.798254D+00
     10a 0.179203D-01  0.357545D+00 -0.156166D-01  0.530217D+00
     10b 0.285202D-01 -0.138245D-01  0.395141D+00 -0.108133D-01  0.773329D+00
 jaja lower-tri density matrix (imaginary):
                1a            1b            2a            2b            3a
      1a 0.000000D+00
      1b 0.000000D+00  0.000000D+00
      2a 0.000000D+00  0.000000D+00  0.000000D+00
      2b 0.000000D+00  0.000000D+00  0.000000D+00  0.000000D+00
      3a 0.000000D+00  0.000000D+00  0.000000D+00  0.000000D+00  0.000000D+00
      3b 0.000000D+00  0.000000D+00  0.000000D+00  0.000000D+00  0.000000D+00
      4a 0.000000D+00  0.000000D+00  0.000000D+00  0.000000D+00  0.000000D+00
      4b 0.000000D+00  0.000000D+00  0.000000D+00  0.000000D+00  0.000000D+00
      5a 0.000000D+00  0.000000D+00  0.000000D+00  0.000000D+00  0.000000D+00
      5b 0.000000D+00  0.000000D+00  0.000000D+00  0.000000D+00  0.000000D+00
      6a 0.000000D+00  0.000000D+00  0.000000D+00  0.000000D+00  0.000000D+00
      6b 0.000000D+00  0.000000D+00  0.000000D+00  0.000000D+00  0.000000D+00
      7a 0.000000D+00  0.000000D+00  0.000000D+00  0.000000D+00  0.000000D+00
      7b 0.000000D+00  0.000000D+00  0.000000D+00  0.000000D+00  0.000000D+00
      8a 0.000000D+00  0.000000D+00  0.000000D+00  0.000000D+00  0.000000D+00
      8b 0.000000D+00  0.000000D+00  0.000000D+00  0.000000D+00  0.000000D+00
      9a 0.000000D+00  0.000000D+00  0.000000D+00  0.000000D+00  0.000000D+00
      9b 0.000000D+00  0.000000D+00  0.000000D+00  0.000000D+00  0.000000D+00
     10a 0.000000D+00  0.000000D+00  0.000000D+00  0.000000D+00  0.000000D+00
     10b 0.000000D+00  0.000000D+00  0.000000D+00  0.000000D+00  0.000000D+00
                3b            4a            4b            5a            5b
      3b 0.000000D+00
      4a 0.000000D+00  0.000000D+00
      4b 0.000000D+00  0.000000D+00  0.000000D+00
      5a 0.000000D+00  0.000000D+00  0.000000D+00  0.000000D+00
      5b 0.000000D+00  0.000000D+00  0.000000D+00  0.000000D+00  0.000000D+00
      6a 0.000000D+00  0.000000D+00  0.000000D+00  0.000000D+00  0.000000D+00
      6b 0.000000D+00  0.000000D+00  0.000000D+00  0.000000D+00  0.000000D+00
      7a 0.000000D+00  0.000000D+00  0.000000D+00  0.000000D+00  0.000000D+00
      7b 0.000000D+00  0.000000D+00  0.000000D+00  0.000000D+00  0.000000D+00
      8a 0.000000D+00  0.000000D+00  0.000000D+00  0.000000D+00  0.000000D+00
      8b 0.000000D+00  0.000000D+00  0.000000D+00  0.000000D+00  0.000000D+00
      9a 0.000000D+00  0.000000D+00  0.000000D+00  0.000000D+00  0.000000D+00
      9b 0.000000D+00  0.000000D+00  0.000000D+00  0.000000D+00  0.000000D+00
     10a 0.000000D+00  0.000000D+00  0.000000D+00  0.000000D+00  0.000000D+00
     10b 0.000000D+00  0.000000D+00  0.000000D+00  0.000000D+00  0.000000D+00
                6a            6b            7a            7b            8a
      6a 0.000000D+00
      6b 0.000000D+00  0.000000D+00
      7a 0.000000D+00  0.000000D+00  0.000000D+00
      7b 0.000000D+00  0.000000D+00  0.000000D+00  0.000000D+00
      8a 0.000000D+00  0.000000D+00  0.000000D+00  0.000000D+00  0.000000D+00
      8b 0.000000D+00  0.000000D+00  0.000000D+00  0.000000D+00  0.000000D+00
      9a 0.000000D+00  0.000000D+00  0.000000D+00  0.000000D+00  0.000000D+00
      9b 0.000000D+00  0.000000D+00  0.000000D+00  0.000000D+00  0.000000D+00
     10a 0.000000D+00  0.000000D+00  0.000000D+00  0.000000D+00  0.000000D+00
     10b 0.000000D+00  0.000000D+00  0.000000D+00  0.000000D+00  0.000000D+00
                8b            9a            9b           10a           10b
      8b 0.000000D+00
      9a 0.000000D+00  0.000000D+00
      9b 0.000000D+00  0.000000D+00  0.000000D+00
     10a 0.000000D+00  0.000000D+00  0.000000D+00  0.000000D+00
     10b 0.000000D+00  0.000000D+00  0.000000D+00  0.000000D+00  0.000000D+00
 jaja non-ortho density matrix               [Gau-style] (real):
                 1             2             3             4             5 
      1a  0.742405D+00 -0.248623D-01  0.297050D+00 -0.983067D-02  0.142211D+00
      1b -0.248623D-01  0.614348D+00 -0.116228D-01  0.439761D+00  0.874786D-03
      2a  0.297050D+00 -0.116228D-01  0.676126D+00 -0.298152D-01 -0.313021D+00
      2b -0.983067D-02  0.439761D+00 -0.298152D-01  0.377141D+00  0.155142D-01
      3a  0.142211D+00  0.874786D-03 -0.313021D+00  0.155142D-01  0.455205D+00
      3b  0.675433D-02 -0.237901D+00  0.156149D-01 -0.339970D+00 -0.685083D-02
      4a  0.429379D+00 -0.104332D-01  0.325373D+00 -0.121221D-01  0.114513D+00
      4b -0.571739D-02  0.608564D+00 -0.109194D-01  0.399317D+00  0.911259D-02
      5a -0.120089D+00  0.157880D-01 -0.896544D-01  0.153438D-01 -0.281809D-01
      5b  0.166134D-01 -0.218105D+00  0.163127D-01 -0.134495D+00 -0.875013D-02
      6a -0.185061D+00  0.162920D-01 -0.223720D+00  0.126519D-01  0.376675D+00
      6b  0.159773D-01 -0.327359D+00  0.142380D-01 -0.351577D+00 -0.832690D-02
      7a -0.119686D+00 -0.123619D-01 -0.339358D-01 -0.101119D-01 -0.236759D+00
      7b -0.691127D-02  0.852361D-01 -0.965649D-02  0.107039D+00  0.901895D-02
      8a -0.289147D+00  0.219659D-01  0.241917D-01  0.100442D-01 -0.120192D+00
      8b  0.127526D-01 -0.227177D+00  0.129123D-01 -0.692512D-01 -0.880696D-02
      9a  0.757386D-03 -0.127041D-01 -0.736090D-01 -0.873142D-02 -0.241038D-01
      9b -0.108713D-01  0.156869D+00 -0.237835D-01  0.274876D-01  0.155575D-01
     10a -0.127418D+00 -0.134773D-01  0.193157D-01 -0.144551D-01 -0.180369D+00
     10b -0.188980D-01  0.377983D-01 -0.126223D-01  0.111204D+00  0.482200D-02
                 6             7             8             9            10 
      1a  0.675433D-02  0.429379D+00 -0.571739D-02 -0.120089D+00  0.166134D-01
      1b -0.237901D+00 -0.104332D-01  0.608564D+00  0.157880D-01 -0.218105D+00
      2a  0.156149D-01  0.325373D+00 -0.109194D-01 -0.896544D-01  0.163127D-01
      2b -0.339970D+00 -0.121221D-01  0.399317D+00  0.153438D-01 -0.134495D+00
      3a -0.685083D-02  0.114513D+00  0.911259D-02 -0.281809D-01 -0.875013D-02
      3b  0.683458D+00  0.826586D-02 -0.628475D-01 -0.141863D-01  0.142733D+00
      4a  0.826586D-02  0.433907D+00 -0.126012D-02 -0.250401D+00  0.100497D-01
      4b -0.628475D-01 -0.126012D-02  0.747002D+00  0.132610D-01 -0.364826D+00
      5a -0.141863D-01 -0.250401D+00  0.132610D-01  0.526542D+00 -0.133262D-01
      5b  0.142733D+00  0.100497D-01 -0.364826D+00 -0.133262D-01  0.743465D+00
      6a -0.100381D-01  0.102981D+00  0.123522D-01 -0.815459D-01 -0.172303D-01
      6b  0.602282D+00  0.777296D-02 -0.974569D-01 -0.152042D-01  0.448223D-01
      7a  0.134690D-01 -0.178789D+00 -0.151910D-01  0.349060D-01  0.176212D-01
      7b -0.284746D+00 -0.532985D-02 -0.360813D-01  0.130420D-01 -0.130717D-03
      8a -0.141464D-01 -0.235197D+00  0.136415D-01  0.483338D+00 -0.180513D-01
      8b -0.289958D-01  0.919149D-02 -0.269133D+00 -0.163402D-01  0.464529D+00
      9a  0.126894D-01  0.176704D-01 -0.127949D-01 -0.239822D+00  0.130874D-01
      9b -0.666611D-01 -0.123394D-01  0.113006D+00  0.146734D-01 -0.377863D+00
     10a  0.140353D-01 -0.432576D-01 -0.170639D-01 -0.189253D+00  0.168850D-01
     10b -0.352974D+00 -0.116132D-01  0.497668D-01  0.165704D-01 -0.305031D+00
                11            12            13            14            15 
      1a -0.185061D+00  0.159773D-01 -0.119686D+00 -0.691127D-02 -0.289147D+00
      1b  0.162920D-01 -0.327359D+00 -0.123619D-01  0.852361D-01  0.219659D-01
      2a -0.223720D+00  0.142380D-01 -0.339358D-01 -0.965649D-02  0.241917D-01
      2b  0.126519D-01 -0.351577D+00 -0.101119D-01  0.107039D+00  0.100442D-01
      3a  0.376675D+00 -0.832690D-02 -0.236759D+00  0.901895D-02 -0.120192D+00
      3b -0.100381D-01  0.602282D+00  0.134690D-01 -0.284746D+00 -0.141464D-01
      4a  0.102981D+00  0.777296D-02 -0.178789D+00 -0.532985D-02 -0.235197D+00
      4b  0.123522D-01 -0.974569D-01 -0.151910D-01 -0.360813D-01  0.136415D-01
      5a -0.815459D-01 -0.152042D-01  0.349060D-01  0.130420D-01  0.483338D+00
      5b -0.172303D-01  0.448223D-01  0.176212D-01 -0.130717D-03 -0.180513D-01
      6a  0.633008D+00 -0.206962D-01 -0.296012D+00  0.134509D-01  0.263381D-01
      6b -0.206962D-01  0.644181D+00  0.166622D-01 -0.307467D+00 -0.185554D-01
      7a -0.296012D+00  0.166622D-01  0.729059D+00 -0.221446D-01  0.725552D-01
      7b  0.134509D-01 -0.307467D+00 -0.221446D-01  0.444228D+00  0.121114D-01
      8a  0.263381D-01 -0.185554D-01  0.725552D-01  0.121114D-01  0.573291D+00
      8b -0.131192D-01  0.557063D-01  0.129582D-01  0.335073D-01 -0.161347D-01
      9a -0.581693D-01  0.128873D-01  0.338760D+00 -0.131359D-01 -0.227289D+00
      9b  0.138562D-01 -0.180699D+00 -0.119333D-01  0.381532D+00  0.966151D-02
     10a -0.122913D+00  0.161064D-01  0.553400D+00 -0.195993D-01 -0.927960D-01
     10b  0.169318D-01 -0.207994D+00 -0.148835D-01  0.457589D+00  0.237999D-01
                16            17            18            19            20 
      1a  0.127526D-01  0.757386D-03 -0.108713D-01 -0.127418D+00 -0.188980D-01
      1b -0.227177D+00 -0.127041D-01  0.156869D+00 -0.134773D-01  0.377983D-01
      2a  0.129123D-01 -0.736090D-01 -0.237835D-01  0.193157D-01 -0.126223D-01
      2b -0.692512D-01 -0.873142D-02  0.274876D-01 -0.144551D-01  0.111204D+00
      3a -0.880696D-02 -0.241038D-01  0.155575D-01 -0.180369D+00  0.482200D-02
      3b -0.289958D-01  0.126894D-01 -0.666611D-01  0.140353D-01 -0.352974D+00
      4a  0.919149D-02  0.176704D-01 -0.123394D-01 -0.432576D-01 -0.116132D-01
      4b -0.269133D+00 -0.127949D-01  0.113006D+00 -0.170639D-01  0.497668D-01
      5a -0.163402D-01 -0.239822D+00  0.146734D-01 -0.189253D+00  0.165704D-01
      5b  0.464529D+00  0.130874D-01 -0.377863D+00  0.168850D-01 -0.305031D+00
      6a -0.131192D-01 -0.581693D-01  0.138562D-01 -0.122913D+00  0.169318D-01
      6b  0.557063D-01  0.128873D-01 -0.180699D+00  0.161064D-01 -0.207994D+00
      7a  0.129582D-01  0.338760D+00 -0.119333D-01  0.553400D+00 -0.148835D-01
      7b  0.335073D-01 -0.131359D-01  0.381532D+00 -0.195993D-01  0.457589D+00
      8a -0.161347D-01 -0.227289D+00  0.966151D-02 -0.927960D-01  0.237999D-01
      8b  0.505870D+00  0.956080D-02 -0.421052D+00  0.179203D-01  0.285202D-01
      9a  0.956080D-02  0.301787D+00 -0.271738D-02  0.357545D+00 -0.138245D-01
      9b -0.421052D+00 -0.271738D-02  0.798254D+00 -0.156166D-01  0.395141D+00
     10a  0.179203D-01  0.357545D+00 -0.156166D-01  0.530217D+00 -0.108133D-01
     10b  0.285202D-01 -0.138245D-01  0.395141D+00 -0.108133D-01  0.773329D+00
 jaja non-ortho density matrix               [Gau-style] (imaginary):
                 1             2             3             4             5 
      1a  0.000000D+00  0.000000D+00  0.000000D+00  0.000000D+00  0.000000D+00
      1b  0.000000D+00  0.000000D+00  0.000000D+00  0.000000D+00  0.000000D+00
      2a  0.000000D+00  0.000000D+00  0.000000D+00  0.000000D+00  0.000000D+00
      2b  0.000000D+00  0.000000D+00  0.000000D+00  0.000000D+00  0.000000D+00
      3a  0.000000D+00  0.000000D+00  0.000000D+00  0.000000D+00  0.000000D+00
      3b  0.000000D+00  0.000000D+00  0.000000D+00  0.000000D+00  0.000000D+00
      4a  0.000000D+00  0.000000D+00  0.000000D+00  0.000000D+00  0.000000D+00
      4b  0.000000D+00  0.000000D+00  0.000000D+00  0.000000D+00  0.000000D+00
      5a  0.000000D+00  0.000000D+00  0.000000D+00  0.000000D+00  0.000000D+00
      5b  0.000000D+00  0.000000D+00  0.000000D+00  0.000000D+00  0.000000D+00
      6a  0.000000D+00  0.000000D+00  0.000000D+00  0.000000D+00  0.000000D+00
      6b  0.000000D+00  0.000000D+00  0.000000D+00  0.000000D+00  0.000000D+00
      7a  0.000000D+00  0.000000D+00  0.000000D+00  0.000000D+00  0.000000D+00
      7b  0.000000D+00  0.000000D+00  0.000000D+00  0.000000D+00  0.000000D+00
      8a  0.000000D+00  0.000000D+00  0.000000D+00  0.000000D+00  0.000000D+00
      8b  0.000000D+00  0.000000D+00  0.000000D+00  0.000000D+00  0.000000D+00
      9a  0.000000D+00  0.000000D+00  0.000000D+00  0.000000D+00  0.000000D+00
      9b  0.000000D+00  0.000000D+00  0.000000D+00  0.000000D+00  0.000000D+00
     10a  0.000000D+00  0.000000D+00  0.000000D+00  0.000000D+00  0.000000D+00
     10b  0.000000D+00  0.000000D+00  0.000000D+00  0.000000D+00  0.000000D+00
                 6             7             8             9            10 
      1a  0.000000D+00  0.000000D+00  0.000000D+00  0.000000D+00  0.000000D+00
      1b  0.000000D+00  0.000000D+00  0.000000D+00  0.000000D+00  0.000000D+00
      2a  0.000000D+00  0.000000D+00  0.000000D+00  0.000000D+00  0.000000D+00
      2b  0.000000D+00  0.000000D+00  0.000000D+00  0.000000D+00  0.000000D+00
      3a  0.000000D+00  0.000000D+00  0.000000D+00  0.000000D+00  0.000000D+00
      3b  0.000000D+00  0.000000D+00  0.000000D+00  0.000000D+00  0.000000D+00
      4a  0.000000D+00  0.000000D+00  0.000000D+00  0.000000D+00  0.000000D+00
      4b  0.000000D+00  0.000000D+00  0.000000D+00  0.000000D+00  0.000000D+00
      5a  0.000000D+00  0.000000D+00  0.000000D+00  0.000000D+00  0.000000D+00
      5b  0.000000D+00  0.000000D+00  0.000000D+00  0.000000D+00  0.000000D+00
      6a  0.000000D+00  0.000000D+00  0.000000D+00  0.000000D+00  0.000000D+00
      6b  0.000000D+00  0.000000D+00  0.000000D+00  0.000000D+00  0.000000D+00
      7a  0.000000D+00  0.000000D+00  0.000000D+00  0.000000D+00  0.000000D+00
      7b  0.000000D+00  0.000000D+00  0.000000D+00  0.000000D+00  0.000000D+00
      8a  0.000000D+00  0.000000D+00  0.000000D+00  0.000000D+00  0.000000D+00
      8b  0.000000D+00  0.000000D+00  0.000000D+00  0.000000D+00  0.000000D+00
      9a  0.000000D+00  0.000000D+00  0.000000D+00  0.000000D+00  0.000000D+00
      9b  0.000000D+00  0.000000D+00  0.000000D+00  0.000000D+00  0.000000D+00
     10a  0.000000D+00  0.000000D+00  0.000000D+00  0.000000D+00  0.000000D+00
     10b  0.000000D+00  0.000000D+00  0.000000D+00  0.000000D+00  0.000000D+00
                11            12            13            14            15 
      1a  0.000000D+00  0.000000D+00  0.000000D+00  0.000000D+00  0.000000D+00
      1b  0.000000D+00  0.000000D+00  0.000000D+00  0.000000D+00  0.000000D+00
      2a  0.000000D+00  0.000000D+00  0.000000D+00  0.000000D+00  0.000000D+00
      2b  0.000000D+00  0.000000D+00  0.000000D+00  0.000000D+00  0.000000D+00
      3a  0.000000D+00  0.000000D+00  0.000000D+00  0.000000D+00  0.000000D+00
      3b  0.000000D+00  0.000000D+00  0.000000D+00  0.000000D+00  0.000000D+00
      4a  0.000000D+00  0.000000D+00  0.000000D+00  0.000000D+00  0.000000D+00
      4b  0.000000D+00  0.000000D+00  0.000000D+00  0.000000D+00  0.000000D+00
      5a  0.000000D+00  0.000000D+00  0.000000D+00  0.000000D+00  0.000000D+00
      5b  0.000000D+00  0.000000D+00  0.000000D+00  0.000000D+00  0.000000D+00
      6a  0.000000D+00  0.000000D+00  0.000000D+00  0.000000D+00  0.000000D+00
      6b  0.000000D+00  0.000000D+00  0.000000D+00  0.000000D+00  0.000000D+00
      7a  0.000000D+00  0.000000D+00  0.000000D+00  0.000000D+00  0.000000D+00
      7b  0.000000D+00  0.000000D+00  0.000000D+00  0.000000D+00  0.000000D+00
      8a  0.000000D+00  0.000000D+00  0.000000D+00  0.000000D+00  0.000000D+00
      8b  0.000000D+00  0.000000D+00  0.000000D+00  0.000000D+00  0.000000D+00
      9a  0.000000D+00  0.000000D+00  0.000000D+00  0.000000D+00  0.000000D+00
      9b  0.000000D+00  0.000000D+00  0.000000D+00  0.000000D+00  0.000000D+00
     10a  0.000000D+00  0.000000D+00  0.000000D+00  0.000000D+00  0.000000D+00
     10b  0.000000D+00  0.000000D+00  0.000000D+00  0.000000D+00  0.000000D+00
                16            17            18            19            20 
      1a  0.000000D+00  0.000000D+00  0.000000D+00  0.000000D+00  0.000000D+00
      1b  0.000000D+00  0.000000D+00  0.000000D+00  0.000000D+00  0.000000D+00
      2a  0.000000D+00  0.000000D+00  0.000000D+00  0.000000D+00  0.000000D+00
      2b  0.000000D+00  0.000000D+00  0.000000D+00  0.000000D+00  0.000000D+00
      3a  0.000000D+00  0.000000D+00  0.000000D+00  0.000000D+00  0.000000D+00
      3b  0.000000D+00  0.000000D+00  0.000000D+00  0.000000D+00  0.000000D+00
      4a  0.000000D+00  0.000000D+00  0.000000D+00  0.000000D+00  0.000000D+00
      4b  0.000000D+00  0.000000D+00  0.000000D+00  0.000000D+00  0.000000D+00
      5a  0.000000D+00  0.000000D+00  0.000000D+00  0.000000D+00  0.000000D+00
      5b  0.000000D+00  0.000000D+00  0.000000D+00  0.000000D+00  0.000000D+00
      6a  0.000000D+00  0.000000D+00  0.000000D+00  0.000000D+00  0.000000D+00
      6b  0.000000D+00  0.000000D+00  0.000000D+00  0.000000D+00  0.000000D+00
      7a  0.000000D+00  0.000000D+00  0.000000D+00  0.000000D+00  0.000000D+00
      7b  0.000000D+00  0.000000D+00  0.000000D+00  0.000000D+00  0.000000D+00
      8a  0.000000D+00  0.000000D+00  0.000000D+00  0.000000D+00  0.000000D+00
      8b  0.000000D+00  0.000000D+00  0.000000D+00  0.000000D+00  0.000000D+00
      9a  0.000000D+00  0.000000D+00  0.000000D+00  0.000000D+00  0.000000D+00
      9b  0.000000D+00  0.000000D+00  0.000000D+00  0.000000D+00  0.000000D+00
     10a  0.000000D+00  0.000000D+00  0.000000D+00  0.000000D+00  0.000000D+00
     10b  0.000000D+00  0.000000D+00  0.000000D+00  0.000000D+00  0.000000D+00
FORTRAN STOP
