 Entering Gaussian System, Link 0=gdv
 AtFile(1): H.gbs
            H     0
            S   10   1.00
               1000.000000000000            0.000068713567
                316.227766000000            0.000169141320
                100.000000000000            0.000823394812
                 31.622776600000            0.003425569236
                 10.000000000000            0.013951996000
                  3.162277660000            0.056909313560
                  1.000000000000            0.198286399900
                  0.316227766000            0.496922426700
                  0.100000000000            0.369846276400
                  0.031622776600            0.003752720039
            ****
 Initial command:
 /users/lcj1/GHF_hess/exe-dir/l1.exe "/users/lcj1/GHF_hess/h10_2rows/follow25/follow45/bck/Gau-9066.inp" -scrdir="/users/lcj1/GHF_hess/h10_2rows/follow25/follow45/bck/"
 Entering Link 1 = /users/lcj1/GHF_hess/exe-dir/l1.exe PID=      9067.
  
 Copyright (c) 1988,1990,1992,1993,1995,1998,2003,2009,2012,
            Gaussian, Inc.  All Rights Reserved.
  
 This is the private, development version of
 the Gaussian(R) DV system of programs. It is based on
 the Gaussian(R) 09 system (copyright 2009, Gaussian, Inc.),
 the Gaussian(R) 03 system (copyright 2003, Gaussian, Inc.),
 the Gaussian(R) 98 system (copyright 1998, Gaussian, Inc.),
 the Gaussian(R) 94 system (copyright 1995, Gaussian, Inc.),
 the Gaussian 92(TM) system (copyright 1992, Gaussian, Inc.),
 the Gaussian 90(TM) system (copyright 1990, Gaussian, Inc.),
 the Gaussian 88(TM) system (copyright 1988, Gaussian, Inc.),
 the Gaussian 86(TM) system (copyright 1986, Carnegie Mellon
 University), and the Gaussian 82(TM) system (copyright 1983,
 Carnegie Mellon University). Gaussian is a federally registered
 trademark of Gaussian, Inc.
  
 This software contains proprietary and confidential information,
 including trade secrets, belonging to Gaussian, Inc.
  
 This software is provided under written license and may be
 used, copied, transmitted, or stored only in accord with that
 written license.
  
 The following legend is applicable only to US Government
 contracts under FAR:
  
                    RESTRICTED RIGHTS LEGEND
  
 Use, reproduction and disclosure by the US Government is
 subject to restrictions as set forth in subparagraphs (a)
 and (c) of the Commercial Computer Software - Restricted
 Rights clause in FAR 52.227-19.
  
 Gaussian, Inc.
 340 Quinnipiac St., Bldg. 40, Wallingford CT 06492
  
  
 ---------------------------------------------------------------
 Warning -- This program may not be used in any manner that
 competes with the business of Gaussian, Inc. or will provide
 assistance to any competitor of Gaussian, Inc.  The licensee
 of this program is prohibited from giving any competitor of
 Gaussian, Inc. access to this program.  By using this program,
 the user acknowledges that Gaussian, Inc. is engaged in the
 business of creating and licensing software in the field of
 computational chemistry and represents and warrants to the
 licensee that it is not a competitor of Gaussian, Inc. and that
 it will not use this program in any manner prohibited above.
 ---------------------------------------------------------------
  

 Cite this work as:
 Gaussian Development Version, Revision H.21,
 M. J. Frisch, G. W. Trucks, H. B. Schlegel, G. E. Scuseria, 
 M. A. Robb, J. R. Cheeseman, G. Scalmani, V. Barone, B. Mennucci, 
 G. A. Petersson, H. Nakatsuji, M. Caricato, X. Li, H. P. Hratchian, 
 A. F. Izmaylov, J. Bloino, G. Zheng, J. L. Sonnenberg, W. Liang, 
 M. Hada, M. Ehara, K. Toyota, R. Fukuda, J. Hasegawa, M. Ishida, 
 T. Nakajima, Y. Honda, O. Kitao, H. Nakai, T. Vreven, 
 J. A. Montgomery, Jr., J. E. Peralta, F. Ogliaro, M. Bearpark, 
 J. J. Heyd, E. Brothers, K. N. Kudin, V. N. Staroverov, T. Keith, 
 R. Kobayashi, J. Normand, K. Raghavachari, A. Rendell, J. C. Burant, 
 S. S. Iyengar, J. Tomasi, M. Cossi, N. Rega, J. M. Millam, M. Klene, 
 J. E. Knox, J. B. Cross, V. Bakken, C. Adamo, J. Jaramillo, 
 R. Gomperts, R. E. Stratmann, O. Yazyev, A. J. Austin, R. Cammi, 
 C. Pomelli, J. W. Ochterski, R. L. Martin, K. Morokuma, 
 V. G. Zakrzewski, G. A. Voth, P. Salvador, J. J. Dannenberg, 
 S. Dapprich, P. V. Parandekar, N. J. Mayhall, A. D. Daniels, 
 O. Farkas, J. B. Foresman, J. V. Ortiz, J. Cioslowski, 
 and D. J. Fox, Gaussian, Inc., Wallingford CT, 2010.
 
 ******************************************
 Gaussian DV:  EM64L-GDVRevH.21 13-May-2012
                28-Feb-2017 
 ******************************************
 %chk=h10.chk
 ----------------------------------------------------------------------
 #ghf/gen scf(tight,novaracc,noincfock,fulldiag) stable guess=read geom
 =nocrowd use=l802 use=l902 test
 ----------------------------------------------------------------------
 ********************************************
   THE COMPLEX ERI TRANSFORMATION WITH L802  
        COMPLEX STABILITY WITH L902          
 ********************************************
 1/38=1/1;
 2/12=1,17=6,18=5,40=1/2;
 3/5=7,16=1,25=20,28=1,116=7/1,2,3,20;
 4/5=1/1;
 5/5=100001,16=1,32=2,38=6/2;
 8/6=1,10=90,11=11/1,2;
 9/8=4,13=1/1,2;
 6/7=2,8=2,9=2,10=2,28=1/1;
 99/5=1,9=1/99;
 ----------------------------------------------------------------------
 hf stability analysis of h10 triangular lattice, y= 0.5802591979462536
 9 alpha= 30.250000000000000
 ----------------------------------------------------------------------
 Symbolic Z-Matrix:
 Charge =  0 Multiplicity = 1
 H
 H                    1     1.15182 
 H                    1     1.15182  2     119.5 
 H                    2     1.15182  1     60.5     3     0.       0
 H                    3     1.15182  1     180.     2     0.       0
 H                    4     1.15182  2     180.     1     0.       0
 H                    5     1.15182  3     180.     2     0.       0
 H                    6     1.15182  4     180.     1     0.       0
 H                    7     1.15182  5     180.     2     0.       0
 H                    8     1.15182  6     180.     1     0.       0
 
                          Input orientation:                          
 ---------------------------------------------------------------------
 Center     Atomic      Atomic             Coordinates (Angstroms)
 Number     Number       Type             X           Y           Z
 ---------------------------------------------------------------------
      1          1           0        0.000000    0.000000    0.000000
      2          1           0        0.000000    0.000000    1.151824
      3          1           0        1.002497    0.000000   -0.567185
      4          1           0        1.002497    0.000000    0.584639
      5          1           0        2.004994    0.000000   -1.134371
      6          1           0        2.004994    0.000000    0.017453
      7          1           0        3.007491    0.000000   -1.701556
      8          1           0        3.007491    0.000000   -0.549732
      9          1           0        4.009988    0.000000   -2.268742
     10          1           0        4.009988    0.000000   -1.116918
 ---------------------------------------------------------------------
                    Distance matrix (angstroms):
                    1          2          3          4          5
     1  H    0.000000
     2  H    1.151824   0.000000
     3  H    1.151824   1.989974   0.000000
     4  H    1.160518   1.151824   1.151824   0.000000
     5  H    2.303649   3.040837   1.151824   1.989974   0.000000
     6  H    2.005070   2.303649   1.160518   1.151824   1.151824
     7  H    3.455473   4.145695   2.303649   3.040837   1.151824
     8  H    3.057320   3.455473   2.005070   2.303649   1.160518
     9  H    4.607298   5.270700   3.455473   4.145695   2.303649
    10  H    4.162632   4.607298   3.057320   3.455473   2.005070
                    6          7          8          9         10
     6  H    0.000000
     7  H    1.989974   0.000000
     8  H    1.151824   1.151824   0.000000
     9  H    3.040837   1.151824   1.989974   0.000000
    10  H    2.303649   1.160518   1.151824   1.151824   0.000000
 Stoichiometry    H10
 Framework group  C2H[SGH(H10)]
 Deg. of freedom     9
 Full point group                 C2H     NOp   4
 Largest Abelian subgroup         C2H     NOp   4
 Largest concise Abelian subgroup C2      NOp   2
                         Standard orientation:                         
 ---------------------------------------------------------------------
 Center     Atomic      Atomic             Coordinates (Angstroms)
 Number     Number       Type             X           Y           Z
 ---------------------------------------------------------------------
      1          1           0        2.004994   -0.558459    0.000000
      2          1           0        2.004994   -1.710283    0.000000
      3          1           0        1.002497    0.008727    0.000000
      4          1           0        1.002497   -1.143098    0.000000
      5          1           0        0.000000    0.575912    0.000000
      6          1           0        0.000000   -0.575912    0.000000
      7          1           0       -1.002497    1.143098    0.000000
      8          1           0       -1.002497   -0.008727    0.000000
      9          1           0       -2.004994    1.710283    0.000000
     10          1           0       -2.004994    0.558459    0.000000
 ---------------------------------------------------------------------
 Rotational constants (GHZ):    206.2437442     18.2883533     16.7987495
 General basis read from cards:  (5D, 7F)
 There are     5 symmetry adapted cartesian basis functions of AG  symmetry.
 There are     0 symmetry adapted cartesian basis functions of BG  symmetry.
 There are     0 symmetry adapted cartesian basis functions of AU  symmetry.
 There are     5 symmetry adapted cartesian basis functions of BU  symmetry.
 There are     5 symmetry adapted basis functions of AG  symmetry.
 There are     0 symmetry adapted basis functions of BG  symmetry.
 There are     0 symmetry adapted basis functions of AU  symmetry.
 There are     5 symmetry adapted basis functions of BU  symmetry.
    10 basis functions,   100 primitive gaussians,    10 cartesian basis functions
     5 alpha electrons        5 beta electrons
       nuclear repulsion energy        13.2235194152 Hartrees.
 NAtoms=   10 NActive=   10 NUniq=    5 SFac= 4.00D+00 NAtFMM=   60 NAOKFM=F Big=F
 Integral buffers will be    131072 words long.
 Regular integral format.
 Two-electron integral symmetry is turned off.
 One-electron integrals computed using PRISM.
 NBasis=    10 RedAO= T EigKep=  1.87D-01  NBF=     5     0     0     5
 NBsUse=    10 1.00D-06 EigRej= -1.00D+00 NBFU=     5     0     0     5
 IOp(28)                       1
                        1                       0
                        2                       1
                        3                       1
                        4                      20
                        5                       0
                        6                       0
                        7                      10
                        8                       1
                        9                       4
                       10                       0
                       11              1073741824
                       12                      20
                       13                       2
                       14                  131070
                       15                       1
                       16                       1
                       17                  131073
                       18                       0
                       19                       0
                       20                       0
                       21                       2
                       22                  131070
                       23                       0
                       24                       0
                       25                       0
                       26                       0
                       27                   65535
                       28                       2
                       29                  131072
                       30                       0
 IHMeth                       1
 ib3: ISMode =                        0                       4
 Enter DskPsm, NBasis=  10 NBas6D=  10 NShell=  10 IDoSP=4.
 Out2e will use a cutoff of  1.00D-10
 FoFCou: FMM=F IPFlag=           0 FMFlag=           0 FMFlg1=           0
         NFxFlg=           0 DoJE=F BraDBF=F KetDBF=F FulRan=T
         wScrn=  0.000000 ICntrl=     600 IOpCl=  9 I1Cent=           0 NGrid=           0
         NMat0=    0 NMatS0=      0 NMatT0=    0 NMatD0=    0 NMtDS0=    0 NMtDT0=    0
 Symmetry not used in FoFCou.
 Entering PrmDigJobTyp =                      20
 LenSav and NKeep                       0                       0
 Entered Stor2E with KNTT1,2                       2                  131070
 Leave Stor2X
 Entering PrmDigJobTyp =                      20
 LenSav and NKeep                       0                       0
 Entered Stor2E with KNTT1,2                       2                  131056
 Leave Stor2X
 Entering PrmDigJobTyp =                      20
 LenSav and NKeep                       0                       0
 Entered Stor2E with KNTT1,2                       2                  131042
 Leave Stor2X
 Entering PrmDigJobTyp =                      20
 LenSav and NKeep                       0                       0
 Entered Stor2E with KNTT1,2                       2                  131028
 Leave Stor2X
 Entering PrmDigJobTyp =                      20
 LenSav and NKeep                       0                       0
 Entered Stor2E with KNTT1,2                       2                  131014
 Leave Stor2X
 Entering PrmDigJobTyp =                      20
 LenSav and NKeep                       0                       0
 Entered Stor2E with KNTT1,2                       2                  131000
 Leave Stor2X
 Entering PrmDigJobTyp =                      20
 LenSav and NKeep                       0                       0
 Entered Stor2E with KNTT1,2                       2                  130986
 Leave Stor2X
 Entering PrmDigJobTyp =                      20
 LenSav and NKeep                       0                       0
 Entered Stor2E with KNTT1,2                       2                  130972
 Leave Stor2X
 Entering PrmDigJobTyp =                      20
 LenSav and NKeep                       0                       0
 Entered Stor2E with KNTT1,2                       2                  130960
 Leave Stor2X
 Entering PrmDigJobTyp =                      20
 LenSav and NKeep                       0                       0
 Entered Stor2E with KNTT1,2                       2                  130946
 Leave Stor2X
 Entering PrmDigJobTyp =                      20
 LenSav and NKeep                       0                       0
 Entered Stor2E with KNTT1,2                       2                  130932
 Leave Stor2X
 Entering PrmDigJobTyp =                      20
 LenSav and NKeep                       0                       0
 Entered Stor2E with KNTT1,2                       2                  130918
 Leave Stor2X
 Entering PrmDigJobTyp =                      20
 LenSav and NKeep                       0                       0
 Entered Stor2E with KNTT1,2                       2                  130904
 Leave Stor2X
 Entering PrmDigJobTyp =                      20
 LenSav and NKeep                       0                       0
 Entered Stor2E with KNTT1,2                       2                  130890
 Leave Stor2X
 Entering PrmDigJobTyp =                      20
 LenSav and NKeep                       0                       0
 Entered Stor2E with KNTT1,2                       2                  130876
 Leave Stor2X
 Entering PrmDigJobTyp =                      20
 LenSav and NKeep                       0                       0
 Entered Stor2E with KNTT1,2                       2                  130862
 Leave Stor2X
 Entering PrmDigJobTyp =                      20
 LenSav and NKeep                       0                       0
 Entered Stor2E with KNTT1,2                       2                  130848
 Leave Stor2X
 Entering PrmDigJobTyp =                      20
 LenSav and NKeep                       0                       0
 Entered Stor2E with KNTT1,2                       2                  130834
 Leave Stor2X
 Entering PrmDigJobTyp =                      20
 LenSav and NKeep                       0                       0
 Entered Stor2E with KNTT1,2                       2                  130820
 Leave Stor2X
 Entering PrmDigJobTyp =                      20
 LenSav and NKeep                       0                       0
 Entered Stor2E with KNTT1,2                       2                  130806
 Leave Stor2X
 Entering PrmDigJobTyp =                      20
 LenSav and NKeep                       0                       0
 Entered Stor2E with KNTT1,2                       2                  130792
 Leave Stor2X
 Entering PrmDigJobTyp =                      20
 LenSav and NKeep                       0                       0
 Entered Stor2E with KNTT1,2                       2                  130778
 Leave Stor2X
 Entering PrmDigJobTyp =                      20
 LenSav and NKeep                       0                       0
 Entered Stor2E with KNTT1,2                       2                  130764
 Leave Stor2X
 Entering PrmDigJobTyp =                      20
 LenSav and NKeep                       0                       0
 Entered Stor2E with KNTT1,2                       2                  130750
 Leave Stor2X
 Entering PrmDigJobTyp =                      20
 LenSav and NKeep                       0                       0
 Entered Stor2E with KNTT1,2                       2                  130736
 Leave Stor2X
 Entering PrmDigJobTyp =                      20
 LenSav and NKeep                       0                       0
 Entered Stor2E with KNTT1,2                       2                  130722
 Leave Stor2X
 Entering PrmDigJobTyp =                      20
 LenSav and NKeep                       0                       0
 Entered Stor2E with KNTT1,2                       2                  130708
 Leave Stor2X
 Entering PrmDigJobTyp =                      20
 LenSav and NKeep                       0                       0
 Entered Stor2E with KNTT1,2                       2                  130694
 Leave Stor2X
 Entering PrmDigJobTyp =                      20
 LenSav and NKeep                       0                       0
 Entered Stor2E with KNTT1,2                       2                  130680
 Leave Stor2X
 Entering PrmDigJobTyp =                      20
 LenSav and NKeep                       0                       0
 Entered Stor2E with KNTT1,2                       2                  130666
 Leave Stor2X
 Entering PrmDigJobTyp =                      20
 LenSav and NKeep                       0                       0
 Entered Stor2E with KNTT1,2                       2                  130652
 Leave Stor2X
 Entering PrmDigJobTyp =                      20
 LenSav and NKeep                       0                       0
 Entered Stor2E with KNTT1,2                       2                  130638
 Leave Stor2X
 Entering PrmDigJobTyp =                      20
 LenSav and NKeep                       0                       0
 Entered Stor2E with KNTT1,2                       2                  130624
 Leave Stor2X
 Entering PrmDigJobTyp =                      20
 LenSav and NKeep                       0                       0
 Entered Stor2E with KNTT1,2                       2                  130620
 Leave Stor2X
 Entering PrmDigJobTyp =                      20
 LenSav and NKeep                       0                       0
 Entered Stor2E with KNTT1,2                       4                  130602
 Leave Stor2X
 Entering PrmDigJobTyp =                      20
 LenSav and NKeep                       0                       0
 Entered Stor2E with KNTT1,2                      12                  130590
 Leave Stor2X
 Entering PrmDigJobTyp =                      20
 LenSav and NKeep                       0                       0
 Entered Stor2E with KNTT1,2                      22                  130580
 Leave Stor2X
 Entering PrmDigJobTyp =                      20
 LenSav and NKeep                       0                       0
 Entered Stor2E with KNTT1,2                      32                  130570
 Leave Stor2X
 Entering PrmDigJobTyp =                      20
 LenSav and NKeep                       0                       0
 Entered Stor2E with KNTT1,2                      44                  130562
 Leave Stor2X
 Entering PrmDigJobTyp =                      20
 LenSav and NKeep                       0                       0
 Entered Stor2E with KNTT1,2                      58                  130556
 Leave Stor2X
 Entering PrmDigJobTyp =                      20
 LenSav and NKeep                       0                       0
 Entered Stor2E with KNTT1,2                      70                  130548
 Leave Stor2X
 Entering PrmDigJobTyp =                      20
 LenSav and NKeep                       0                       0
 Entered Stor2E with KNTT1,2                      80                  130538
 Leave Stor2X
 Entering PrmDigJobTyp =                      20
 LenSav and NKeep                       0                       0
 Entered Stor2E with KNTT1,2                      94                  130532
 Leave Stor2X
 Entering PrmDigJobTyp =                      20
 LenSav and NKeep                       0                       0
 Entered Stor2E with KNTT1,2                     112                  130530
 Leave Stor2X
 Entering PrmDigJobTyp =                      20
 LenSav and NKeep                       0                       0
 Entered Stor2E with KNTT1,2                     126                  130524
 Leave Stor2X
 Entering PrmDigJobTyp =                      20
 LenSav and NKeep                       0                       0
 Entered Stor2E with KNTT1,2                     138                  130516
 Leave Stor2X
 Entering PrmDigJobTyp =                      20
 LenSav and NKeep                       0                       0
 Entered Stor2E with KNTT1,2                     158                  130516
 Leave Stor2X
 Entering PrmDigJobTyp =                      20
 LenSav and NKeep                       0                       0
 Entered Stor2E with KNTT1,2                     168                  130506
 Leave Stor2X
 Entering PrmDigJobTyp =                      20
 LenSav and NKeep                       0                       0
 Entered Stor2E with KNTT1,2                     186                  130504
 Leave Stor2X
 Entering PrmDigJobTyp =                      20
 LenSav and NKeep                       0                       0
 Entered Stor2E with KNTT1,2                     186                  130498
 Leave Stor2X
 Entering PrmDigJobTyp =                      20
 LenSav and NKeep                       0                       0
 Entered Stor2E with KNTT1,2                     186                  130482
 Leave Stor2X
 Entering PrmDigJobTyp =                      20
 LenSav and NKeep                       0                       0
 Entered Stor2E with KNTT1,2                     186                  130466
 Leave Stor2X
 Entering PrmDigJobTyp =                      20
 LenSav and NKeep                       0                       0
 Entered Stor2E with KNTT1,2                     186                  130450
 Leave Stor2X
 Entering PrmDigJobTyp =                      20
 LenSav and NKeep                       0                       0
 Entered Stor2E with KNTT1,2                     186                  130434
 Leave Stor2X
 Entering PrmDigJobTyp =                      20
 LenSav and NKeep                       0                       0
 Entered Stor2E with KNTT1,2                     186                  130418
 Leave Stor2X
 Entering PrmDigJobTyp =                      20
 LenSav and NKeep                       0                       0
 Entered Stor2E with KNTT1,2                     186                  130402
 Leave Stor2X
 Entering PrmDigJobTyp =                      20
 LenSav and NKeep                       0                       0
 Entered Stor2E with KNTT1,2                     186                  130386
 Leave Stor2X
 Entering PrmDigJobTyp =                      20
 LenSav and NKeep                       0                       0
 Entered Stor2E with KNTT1,2                     186                  130370
 Leave Stor2X
 Entering PrmDigJobTyp =                      20
 LenSav and NKeep                       0                       0
 Entered Stor2E with KNTT1,2                     186                  130358
 Leave Stor2X
 Entering PrmDigJobTyp =                      20
 LenSav and NKeep                       0                       0
 Entered Stor2E with KNTT1,2                     196                  130346
 Leave Stor2X
 Entering PrmDigJobTyp =                      20
 LenSav and NKeep                       0                       0
 Entered Stor2E with KNTT1,2                     212                  130340
 Leave Stor2X
 Entering PrmDigJobTyp =                      20
 LenSav and NKeep                       0                       0
 Entered Stor2E with KNTT1,2                     224                  130330
 Leave Stor2X
 Entering PrmDigJobTyp =                      20
 LenSav and NKeep                       0                       0
 Entered Stor2E with KNTT1,2                     234                  130318
 Leave Stor2X
 Entering PrmDigJobTyp =                      20
 LenSav and NKeep                       0                       0
 Entered Stor2E with KNTT1,2                     254                  130316
 Leave Stor2X
 Entering PrmDigJobTyp =                      20
 LenSav and NKeep                       0                       0
 Entered Stor2E with KNTT1,2                     260                  130300
 Leave Stor2X
 Entering PrmDigJobTyp =                      20
 LenSav and NKeep                       0                       0
 Entered Stor2E with KNTT1,2                     274                  130292
 Leave Stor2X
 Entering PrmDigJobTyp =                      20
 LenSav and NKeep                       0                       0
 Entered Stor2E with KNTT1,2                     288                  130284
 Leave Stor2X
 Entering PrmDigJobTyp =                      20
 LenSav and NKeep                       0                       0
 Entered Stor2E with KNTT1,2                     302                  130276
 Leave Stor2X
 Entering PrmDigJobTyp =                      20
 LenSav and NKeep                       0                       0
 Entered Stor2E with KNTT1,2                     318                  130270
 Leave Stor2X
 Entering PrmDigJobTyp =                      20
 LenSav and NKeep                       0                       0
 Entered Stor2E with KNTT1,2                     324                  130258
 Leave Stor2X
 Entering PrmDigJobTyp =                      20
 LenSav and NKeep                       0                       0
 Entered Stor2E with KNTT1,2                     338                  130246
 Leave Stor2X
 Entering PrmDigJobTyp =                      20
 LenSav and NKeep                       0                       0
 Entered Stor2E with KNTT1,2                     356                  130238
 Leave Stor2X
 Entering PrmDigJobTyp =                      20
 LenSav and NKeep                       0                       0
 Entered Stor2E with KNTT1,2                     358                  130236
 Leave Stor2X
 Entering PrmDigJobTyp =                      20
 LenSav and NKeep                       0                       0
 Entered Stor2E with KNTT1,2                     358                  130218
 Leave Stor2X
 Entering PrmDigJobTyp =                      20
 LenSav and NKeep                       0                       0
 Entered Stor2E with KNTT1,2                     358                  130200
 Leave Stor2X
 Entering PrmDigJobTyp =                      20
 LenSav and NKeep                       0                       0
 Entered Stor2E with KNTT1,2                     358                  130182
 Leave Stor2X
 Entering PrmDigJobTyp =                      20
 LenSav and NKeep                       0                       0
 Entered Stor2E with KNTT1,2                     358                  130164
 Leave Stor2X
 Entering PrmDigJobTyp =                      20
 LenSav and NKeep                       0                       0
 Entered Stor2E with KNTT1,2                     358                  130146
 Leave Stor2X
 Entering PrmDigJobTyp =                      20
 LenSav and NKeep                       0                       0
 Entered Stor2E with KNTT1,2                     358                  130128
 Leave Stor2X
 Entering PrmDigJobTyp =                      20
 LenSav and NKeep                       0                       0
 Entered Stor2E with KNTT1,2                     358                  130116
 Leave Stor2X
 Entering PrmDigJobTyp =                      20
 LenSav and NKeep                       0                       0
 Entered Stor2E with KNTT1,2                     368                  130102
 Leave Stor2X
 Entering PrmDigJobTyp =                      20
 LenSav and NKeep                       0                       0
 Entered Stor2E with KNTT1,2                     386                  130096
 Leave Stor2X
 Entering PrmDigJobTyp =                      20
 LenSav and NKeep                       0                       0
 Entered Stor2E with KNTT1,2                     402                  130088
 Leave Stor2X
 Entering PrmDigJobTyp =                      20
 LenSav and NKeep                       0                       0
 Entered Stor2E with KNTT1,2                     414                  130076
 Leave Stor2X
 Entering PrmDigJobTyp =                      20
 LenSav and NKeep                       0                       0
 Entered Stor2E with KNTT1,2                     428                  130066
 Leave Stor2X
 Entering PrmDigJobTyp =                      20
 LenSav and NKeep                       0                       0
 Entered Stor2E with KNTT1,2                     444                  130058
 Leave Stor2X
 Entering PrmDigJobTyp =                      20
 LenSav and NKeep                       0                       0
 Entered Stor2E with KNTT1,2                     458                  130048
 Leave Stor2X
 Entering PrmDigJobTyp =                      20
 LenSav and NKeep                       0                       0
 Entered Stor2E with KNTT1,2                     474                  130040
 Leave Stor2X
 Entering PrmDigJobTyp =                      20
 LenSav and NKeep                       0                       0
 Entered Stor2E with KNTT1,2                     478                  130032
 Leave Stor2X
 Entering PrmDigJobTyp =                      20
 LenSav and NKeep                       0                       0
 Entered Stor2E with KNTT1,2                     494                  130020
 Leave Stor2X
 Entering PrmDigJobTyp =                      20
 LenSav and NKeep                       0                       0
 Entered Stor2E with KNTT1,2                     510                  130008
 Leave Stor2X
 Entering PrmDigJobTyp =                      20
 LenSav and NKeep                       0                       0
 Entered Stor2E with KNTT1,2                     526                  129996
 Leave Stor2X
 Entering PrmDigJobTyp =                      20
 LenSav and NKeep                       0                       0
 Entered Stor2E with KNTT1,2                     544                  129984
 Leave Stor2X
 Entering PrmDigJobTyp =                      20
 LenSav and NKeep                       0                       0
 Entered Stor2E with KNTT1,2                     552                  129980
 Leave Stor2X
 Entering PrmDigJobTyp =                      20
 LenSav and NKeep                       0                       0
 Entered Stor2E with KNTT1,2                     552                  129960
 Leave Stor2X
 Entering PrmDigJobTyp =                      20
 LenSav and NKeep                       0                       0
 Entered Stor2E with KNTT1,2                     552                  129940
 Leave Stor2X
 Entering PrmDigJobTyp =                      20
 LenSav and NKeep                       0                       0
 Entered Stor2E with KNTT1,2                     552                  129920
 Leave Stor2X
 Entering PrmDigJobTyp =                      20
 LenSav and NKeep                       0                       0
 Entered Stor2E with KNTT1,2                     552                  129900
 Leave Stor2X
 Entering PrmDigJobTyp =                      20
 LenSav and NKeep                       0                       0
 Entered Stor2E with KNTT1,2                     552                  129880
 Leave Stor2X
 Entering PrmDigJobTyp =                      20
 LenSav and NKeep                       0                       0
 Entered Stor2E with KNTT1,2                     568                  129868
 Leave Stor2X
 Entering PrmDigJobTyp =                      20
 LenSav and NKeep                       0                       0
 Entered Stor2E with KNTT1,2                     586                  129858
 Leave Stor2X
 Entering PrmDigJobTyp =                      20
 LenSav and NKeep                       0                       0
 Entered Stor2E with KNTT1,2                     602                  129846
 Leave Stor2X
 Entering PrmDigJobTyp =                      20
 LenSav and NKeep                       0                       0
 Entered Stor2E with KNTT1,2                     622                  129838
 Leave Stor2X
 Entering PrmDigJobTyp =                      20
 LenSav and NKeep                       0                       0
 Entered Stor2E with KNTT1,2                     636                  129824
 Leave Stor2X
 Entering PrmDigJobTyp =                      20
 LenSav and NKeep                       0                       0
 Entered Stor2E with KNTT1,2                     654                  129814
 Leave Stor2X
 Entering PrmDigJobTyp =                      20
 LenSav and NKeep                       0                       0
 Entered Stor2E with KNTT1,2                     654                  129812
 Leave Stor2X
 Entering PrmDigJobTyp =                      20
 LenSav and NKeep                       0                       0
 Entered Stor2E with KNTT1,2                     676                  129802
 Leave Stor2X
 Entering PrmDigJobTyp =                      20
 LenSav and NKeep                       0                       0
 Entered Stor2E with KNTT1,2                     694                  129788
 Leave Stor2X
 Entering PrmDigJobTyp =                      20
 LenSav and NKeep                       0                       0
 Entered Stor2E with KNTT1,2                     696                  129784
 Leave Stor2X
 Entering PrmDigJobTyp =                      20
 LenSav and NKeep                       0                       0
 Entered Stor2E with KNTT1,2                     716                  129770
 Leave Stor2X
 Entering PrmDigJobTyp =                      20
 LenSav and NKeep                       0                       0
 Entered Stor2E with KNTT1,2                     732                  129760
 Leave Stor2X
 Entering PrmDigJobTyp =                      20
 LenSav and NKeep                       0                       0
 Entered Stor2E with KNTT1,2                     752                  129750
 Leave Stor2X
 Entering PrmDigJobTyp =                      20
 LenSav and NKeep                       0                       0
 Entered Stor2E with KNTT1,2                     752                  129728
 Leave Stor2X
 Entering PrmDigJobTyp =                      20
 LenSav and NKeep                       0                       0
 Entered Stor2E with KNTT1,2                     752                  129706
 Leave Stor2X
 Entering PrmDigJobTyp =                      20
 LenSav and NKeep                       0                       0
 Entered Stor2E with KNTT1,2                     752                  129684
 Leave Stor2X
 Entering PrmDigJobTyp =                      20
 LenSav and NKeep                       0                       0
 Entered Stor2E with KNTT1,2                     752                  129670
 Leave Stor2X
 Entering PrmDigJobTyp =                      20
 LenSav and NKeep                       0                       0
 Entered Stor2E with KNTT1,2                     768                  129658
 Leave Stor2X
 Entering PrmDigJobTyp =                      20
 LenSav and NKeep                       0                       0
 Entered Stor2E with KNTT1,2                     788                  129650
 Leave Stor2X
 Entering PrmDigJobTyp =                      20
 LenSav and NKeep                       0                       0
 Entered Stor2E with KNTT1,2                     802                  129636
 Leave Stor2X
 Entering PrmDigJobTyp =                      20
 LenSav and NKeep                       0                       0
 Entered Stor2E with KNTT1,2                     820                  129626
 Leave Stor2X
 Entering PrmDigJobTyp =                      20
 LenSav and NKeep                       0                       0
 Entered Stor2E with KNTT1,2                     836                  129618
 Leave Stor2X
 Entering PrmDigJobTyp =                      20
 LenSav and NKeep                       0                       0
 Entered Stor2E with KNTT1,2                     858                  129606
 Leave Stor2X
 Entering PrmDigJobTyp =                      20
 LenSav and NKeep                       0                       0
 Entered Stor2E with KNTT1,2                     872                  129598
 Leave Stor2X
 Entering PrmDigJobTyp =                      20
 LenSav and NKeep                       0                       0
 Entered Stor2E with KNTT1,2                     896                  129586
 Leave Stor2X
 Entering PrmDigJobTyp =                      20
 LenSav and NKeep                       0                       0
 Entered Stor2E with KNTT1,2                     904                  129582
 Leave Stor2X
 Entering PrmDigJobTyp =                      20
 LenSav and NKeep                       0                       0
 Entered Stor2E with KNTT1,2                     928                  129566
 Leave Stor2X
 Entering PrmDigJobTyp =                      20
 LenSav and NKeep                       0                       0
 Entered Stor2E with KNTT1,2                     940                  129558
 Leave Stor2X
 Entering PrmDigJobTyp =                      20
 LenSav and NKeep                       0                       0
 Entered Stor2E with KNTT1,2                     940                  129536
 Leave Stor2X
 Entering PrmDigJobTyp =                      20
 LenSav and NKeep                       0                       0
 Entered Stor2E with KNTT1,2                     940                  129514
 Leave Stor2X
 Entering PrmDigJobTyp =                      20
 LenSav and NKeep                       0                       0
 Entered Stor2E with KNTT1,2                     940                  129498
 Leave Stor2X
 Entering PrmDigJobTyp =                      20
 LenSav and NKeep                       0                       0
 Entered Stor2E with KNTT1,2                     958                  129486
 Leave Stor2X
 Entering PrmDigJobTyp =                      20
 LenSav and NKeep                       0                       0
 Entered Stor2E with KNTT1,2                     980                  129478
 Leave Stor2X
 Entering PrmDigJobTyp =                      20
 LenSav and NKeep                       0                       0
 Entered Stor2E with KNTT1,2                    1000                  129468
 Leave Stor2X
 Entering PrmDigJobTyp =                      20
 LenSav and NKeep                       0                       0
 Entered Stor2E with KNTT1,2                    1006                  129462
 Leave Stor2X
 Entering PrmDigJobTyp =                      20
 LenSav and NKeep                       0                       0
 Entered Stor2E with KNTT1,2                    1032                  129452
 Leave Stor2X
 Entering PrmDigJobTyp =                      20
 LenSav and NKeep                       0                       0
 Entered Stor2E with KNTT1,2                    1036                  129450
 Leave Stor2X
 Entering PrmDigJobTyp =                      20
 LenSav and NKeep                       0                       0
 Entered Stor2E with KNTT1,2                    1060                  129438
 Leave Stor2X
 Entering PrmDigJobTyp =                      20
 LenSav and NKeep                       0                       0
 Entered Stor2E with KNTT1,2                    1078                  129426
 Leave Stor2X
 Entering PrmDigJobTyp =                      20
 LenSav and NKeep                       0                       0
 Entered Stor2E with KNTT1,2                    1090                  129414
 Leave Stor2X
 Entering PrmDigJobTyp =                      20
 LenSav and NKeep                       0                       0
 Entered Stor2E with KNTT1,2                    1096                  129408
 Leave Stor2X
 Entering PrmDigJobTyp =                      20
 LenSav and NKeep                       0                       0
 Entered Stor2E with KNTT1,2                    1096                  129382
 Leave Stor2X
 Entering PrmDigJobTyp =                      20
 LenSav and NKeep                       0                       0
 Entered Stor2E with KNTT1,2                    1096                  129368
 Leave Stor2X
 Entering PrmDigJobTyp =                      20
 LenSav and NKeep                       0                       0
 Entered Stor2E with KNTT1,2                    1120                  129356
 Leave Stor2X
 Entering PrmDigJobTyp =                      20
 LenSav and NKeep                       0                       0
 Entered Stor2E with KNTT1,2                    1144                  129348
 Leave Stor2X
 Entering PrmDigJobTyp =                      20
 LenSav and NKeep                       0                       0
 Entered Stor2E with KNTT1,2                    1164                  129340
 Leave Stor2X
 Entering PrmDigJobTyp =                      20
 LenSav and NKeep                       0                       0
 Entered Stor2E with KNTT1,2                    1180                  129332
 Leave Stor2X
 Entering PrmDigJobTyp =                      20
 LenSav and NKeep                       0                       0
 Entered Stor2E with KNTT1,2                    1192                  129324
 Leave Stor2X
 Entering PrmDigJobTyp =                      20
 LenSav and NKeep                       0                       0
 Entered Stor2E with KNTT1,2                    1200                  129316
 Leave Stor2X
 Entering PrmDigJobTyp =                      20
 LenSav and NKeep                       0                       0
 Entered Stor2E with KNTT1,2                    1204                  129308
 Leave Stor2X
 Entering PrmDigJobTyp =                      20
 LenSav and NKeep                       0                       0
 Entered Stor2E with KNTT1,2                    1206                  129304
 Leave Stor2X
 Entering PrmDigJobTyp =                      20
 LenSav and NKeep                       0                       0
 Entered Stor2E with KNTT1,2                    1206                  129284
 Leave Stor2X
 Entering PrmDigJobTyp =                      20
 LenSav and NKeep                       0                       0
 Entered Stor2E with KNTT1,2                    1232                  129276
 Leave Stor2X
 Entering PrmDigJobTyp =                      20
 LenSav and NKeep                       0                       0
 Entered Stor2E with KNTT1,2                    1242                  129272
 Leave Stor2X
 Entering PrmDigJobTyp =                      20
 LenSav and NKeep                       0                       0
 Entered Stor2E with KNTT1,2                    1250                  129268
 Leave Stor2X
 Entering PrmDigJobTyp =                      20
 LenSav and NKeep                       0                       0
 Entered Stor2E with KNTT1,2                    1256                  129264
 Leave Stor2X
 Entering PrmDigJobTyp =                      20
 LenSav and NKeep                       0                       0
 Entered Stor2E with KNTT1,2                    1260                  129260
 Leave Stor2X
 Entering PrmDigJobTyp =                      20
 LenSav and NKeep                       0                       0
 Entered Stor2E with KNTT1,2                    1262                  129256
 Leave Stor2X
 Entering PrmDigJobTyp =                      20
 LenSav and NKeep                       0                       0
 Entered Stor2E with KNTT1,2                    1262                  129252
 Leave Stor2X
 In PrSumR
 Called IWRITE
         1540 integrals produced for a total of         1540.
 Initial guess from the checkpoint file:  "h10.chk"
 B after Tr=     0.000000    0.000000    0.000000
         Rot=    0.799062    0.000000    0.000000    0.601249 Ang=  73.92 deg.
 Initial guess <Sx>= 0.0000 <Sy>= 0.0000 <Sz>= 0.0000 <S**2>= 0.0000 S= 0.0000
 Two-electron integrals will be kept in memory, NGetB=      152788.
 Requested convergence on RMS density matrix=1.00D-08 within 128 cycles.
 Requested convergence on MAX density matrix=1.00D-06.
 Requested convergence on             energy=1.00D-06.
 No special actions if energy rises.
 Density File Not Found. Continue as usual
 SCF Done:  E(GHF) =  -4.86802285667     A.U. after   12 cycles
            NFock= 12  Conv=0.16D-08     -V/T= 1.9609
 <Sx>= 0.0000 <Sy>= 0.0000 <Sz>= 0.0000 <S**2>= 0.0000 S= 0.0000
 <L.S>= 0.000000000000E+00
 Range of M.O.s used for correlation:     1    10
 NBasis=    10 NAE=    10 NBE=     0 NFC=     0 NFV=     0
 NROrb=     20 NOA=    10 NOB=     0 NVA=    10 NVB=     0
 jaja DoHack is true or false? T
 jaja in hckghf.F, NBasis=                      10
 jaja in hckGHF/FixOG, LC =                      800
 jaja in hckGHF/FixOG, IRwC=                      548
 bfr conversion (real):
                 1             2             3             4             5 
      1a -0.292062D-01  0.116277D+00  0.928683D-02  0.243315D+00  0.141206D+00
      1b  0.116277D+00  0.292062D-01  0.243315D+00 -0.928683D-02  0.307328D+00
      2a -0.139586D-01  0.555723D-01  0.610125D-02  0.159853D+00  0.154794D+00
      2b  0.555723D-01  0.139586D-01  0.159853D+00 -0.610125D-02  0.336904D+00
      3a -0.522571D-01  0.208048D+00  0.801680D-02  0.210040D+00 -0.724072D-01
      3b  0.208048D+00  0.522571D-01  0.210040D+00 -0.801680D-02 -0.157591D+00
      4a -0.484999D-01  0.193090D+00  0.112456D-01  0.294636D+00  0.563278D-01
      4b  0.193090D+00  0.484999D-01  0.294636D+00 -0.112456D-01  0.122595D+00
      5a -0.494529D-01  0.196883D+00 -0.325482D-02 -0.852763D-01 -0.133808D+00
      5b  0.196883D+00  0.494529D-01 -0.852763D-01  0.325482D-02 -0.291227D+00
      6a -0.494529D-01  0.196883D+00  0.325482D-02  0.852763D-01 -0.133808D+00
      6b  0.196883D+00  0.494529D-01  0.852763D-01 -0.325482D-02 -0.291227D+00
      7a -0.484999D-01  0.193090D+00 -0.112456D-01 -0.294636D+00  0.563278D-01
      7b  0.193090D+00  0.484999D-01 -0.294636D+00  0.112456D-01  0.122595D+00
      8a -0.522571D-01  0.208048D+00 -0.801680D-02 -0.210040D+00 -0.724072D-01
      8b  0.208048D+00  0.522571D-01 -0.210040D+00  0.801680D-02 -0.157591D+00
      9a -0.139586D-01  0.555723D-01 -0.610125D-02 -0.159853D+00  0.154794D+00
      9b  0.555723D-01  0.139586D-01 -0.159853D+00  0.610125D-02  0.336904D+00
     10a -0.292062D-01  0.116277D+00 -0.928683D-02 -0.243315D+00  0.141206D+00
     10b  0.116277D+00  0.292062D-01 -0.243315D+00  0.928683D-02  0.307328D+00
                 6             7             8             9            10 
      1a  0.307328D+00  0.350055D-01  0.200241D+00  0.288021D+00  0.915077D-01
      1b -0.141206D+00  0.200241D+00 -0.350055D-01 -0.915077D-01  0.288021D+00
      2a  0.336904D+00 -0.376094D-01 -0.215136D+00  0.506951D+00  0.161064D+00
      2b -0.154794D+00 -0.215136D+00  0.376094D-01 -0.161064D+00  0.506951D+00
      3a -0.157591D+00  0.973159D-01  0.556673D+00 -0.373011D+00 -0.118510D+00
      3b  0.724072D-01  0.556673D+00 -0.973159D-01  0.118510D+00 -0.373011D+00
      4a  0.122595D+00 -0.520070D-01 -0.297494D+00 -0.325963D+00 -0.103562D+00
      4b -0.563278D-01 -0.297494D+00  0.520070D-01  0.103562D+00 -0.325963D+00
      5a -0.291227D+00  0.761800D-01  0.435770D+00  0.400296D+00  0.127179D+00
      5b  0.133808D+00  0.435770D+00 -0.761800D-01 -0.127179D+00  0.400296D+00
      6a -0.291227D+00 -0.761800D-01 -0.435770D+00 -0.400296D+00 -0.127179D+00
      6b  0.133808D+00 -0.435770D+00  0.761800D-01  0.127179D+00 -0.400296D+00
      7a  0.122595D+00  0.520070D-01  0.297494D+00  0.325963D+00  0.103562D+00
      7b -0.563278D-01  0.297494D+00 -0.520070D-01 -0.103562D+00  0.325963D+00
      8a -0.157591D+00 -0.973159D-01 -0.556673D+00  0.373011D+00  0.118510D+00
      8b  0.724072D-01 -0.556673D+00  0.973159D-01 -0.118510D+00  0.373011D+00
      9a  0.336904D+00  0.376094D-01  0.215136D+00 -0.506951D+00 -0.161064D+00
      9b -0.154794D+00  0.215136D+00 -0.376094D-01  0.161064D+00 -0.506951D+00
     10a  0.307328D+00 -0.350055D-01 -0.200241D+00 -0.288021D+00 -0.915077D-01
     10b -0.141206D+00 -0.200241D+00  0.350055D-01  0.915077D-01 -0.288021D+00
                11            12            13            14            15 
      1a  0.401500D+00  0.468126D+00 -0.290469D-01  0.676412D-01  0.652454D+00
      1b  0.468126D+00 -0.401500D+00  0.676412D-01  0.290469D-01  0.597943D+00
      2a -0.236664D+00 -0.275937D+00  0.278294D+00 -0.648059D+00 -0.365415D+00
      2b -0.275937D+00  0.236664D+00 -0.648059D+00 -0.278294D+00 -0.334885D+00
      3a  0.269921D+00  0.314713D+00  0.351416D-01 -0.818338D-01 -0.331896D+00
      3b  0.314713D+00 -0.269921D+00 -0.818338D-01 -0.351416D-01 -0.304167D+00
      4a -0.294775D+00 -0.343692D+00 -0.371263D+00  0.864556D+00 -0.189674D+00
      4b -0.343692D+00  0.294775D+00  0.864556D+00  0.371263D+00 -0.173828D+00
      5a -0.158643D+00 -0.184969D+00  0.166301D+00 -0.387262D+00 -0.335178D+00
      5b -0.184969D+00  0.158643D+00 -0.387262D+00 -0.166301D+00 -0.307174D+00
      6a -0.158643D+00 -0.184969D+00  0.166301D+00 -0.387262D+00  0.335178D+00
      6b -0.184969D+00  0.158643D+00 -0.387262D+00 -0.166301D+00  0.307174D+00
      7a -0.294775D+00 -0.343692D+00 -0.371263D+00  0.864556D+00  0.189674D+00
      7b -0.343692D+00  0.294775D+00  0.864556D+00  0.371263D+00  0.173828D+00
      8a  0.269921D+00  0.314713D+00  0.351416D-01 -0.818338D-01  0.331896D+00
      8b  0.314713D+00 -0.269921D+00 -0.818338D-01 -0.351416D-01  0.304167D+00
      9a -0.236664D+00 -0.275937D+00  0.278294D+00 -0.648059D+00  0.365415D+00
      9b -0.275937D+00  0.236664D+00 -0.648059D+00 -0.278294D+00  0.334885D+00
     10a  0.401500D+00  0.468126D+00 -0.290469D-01  0.676412D-01 -0.652454D+00
     10b  0.468126D+00 -0.401500D+00  0.676412D-01  0.290469D-01 -0.597943D+00
                16            17            18            19            20 
      1a -0.597943D+00 -0.719499D+00 -0.122544D+00 -0.399545D-03  0.172943D+00
      1b  0.652454D+00  0.122544D+00 -0.719499D+00  0.172943D+00  0.399545D-03
      2a  0.334885D+00  0.307287D+00  0.523370D-01  0.121751D-02 -0.527002D+00
      2b -0.365415D+00 -0.523370D-01  0.307287D+00 -0.527002D+00 -0.121751D-02
      3a  0.304167D+00  0.110289D+01  0.187844D+00  0.140799D-02 -0.609450D+00
      3b -0.331896D+00 -0.187844D+00  0.110289D+01 -0.609450D+00 -0.140799D-02
      4a  0.173828D+00  0.881469D-01  0.150131D-01 -0.227212D-02  0.983490D+00
      4b -0.189674D+00 -0.150131D-01  0.881469D-01  0.983490D+00  0.227212D-02
      5a  0.307174D+00 -0.790622D+00 -0.134658D+00 -0.232788D-02  0.100763D+01
      5b -0.335178D+00  0.134658D+00 -0.790622D+00  0.100763D+01  0.232788D-02
      6a -0.307174D+00 -0.790622D+00 -0.134658D+00  0.232788D-02 -0.100763D+01
      6b  0.335178D+00  0.134658D+00 -0.790622D+00 -0.100763D+01 -0.232788D-02
      7a -0.173828D+00  0.881469D-01  0.150131D-01  0.227212D-02 -0.983490D+00
      7b  0.189674D+00 -0.150131D-01  0.881469D-01 -0.983490D+00 -0.227212D-02
      8a -0.304167D+00  0.110289D+01  0.187844D+00 -0.140799D-02  0.609450D+00
      8b  0.331896D+00 -0.187844D+00  0.110289D+01  0.609450D+00  0.140799D-02
      9a -0.334885D+00  0.307287D+00  0.523370D-01 -0.121751D-02  0.527002D+00
      9b  0.365415D+00 -0.523370D-01  0.307287D+00  0.527002D+00  0.121751D-02
     10a  0.597943D+00 -0.719499D+00 -0.122544D+00  0.399545D-03 -0.172943D+00
     10b -0.652454D+00  0.122544D+00 -0.719499D+00 -0.172943D+00 -0.399545D-03
 bfr conversion (imaginary):
                 1             2             3             4             5 
      1a  0.000000D+00  0.000000D+00  0.000000D+00  0.000000D+00  0.000000D+00
      1b  0.000000D+00  0.000000D+00  0.000000D+00  0.000000D+00  0.000000D+00
      2a  0.000000D+00  0.000000D+00  0.000000D+00  0.000000D+00  0.000000D+00
      2b  0.000000D+00  0.000000D+00  0.000000D+00  0.000000D+00  0.000000D+00
      3a  0.000000D+00  0.000000D+00  0.000000D+00  0.000000D+00  0.000000D+00
      3b  0.000000D+00  0.000000D+00  0.000000D+00  0.000000D+00  0.000000D+00
      4a  0.000000D+00  0.000000D+00  0.000000D+00  0.000000D+00  0.000000D+00
      4b  0.000000D+00  0.000000D+00  0.000000D+00  0.000000D+00  0.000000D+00
      5a  0.000000D+00  0.000000D+00  0.000000D+00  0.000000D+00  0.000000D+00
      5b  0.000000D+00  0.000000D+00  0.000000D+00  0.000000D+00  0.000000D+00
      6a  0.000000D+00  0.000000D+00  0.000000D+00  0.000000D+00  0.000000D+00
      6b  0.000000D+00  0.000000D+00  0.000000D+00  0.000000D+00  0.000000D+00
      7a  0.000000D+00  0.000000D+00  0.000000D+00  0.000000D+00  0.000000D+00
      7b  0.000000D+00  0.000000D+00  0.000000D+00  0.000000D+00  0.000000D+00
      8a  0.000000D+00  0.000000D+00  0.000000D+00  0.000000D+00  0.000000D+00
      8b  0.000000D+00  0.000000D+00  0.000000D+00  0.000000D+00  0.000000D+00
      9a  0.000000D+00  0.000000D+00  0.000000D+00  0.000000D+00  0.000000D+00
      9b  0.000000D+00  0.000000D+00  0.000000D+00  0.000000D+00  0.000000D+00
     10a  0.000000D+00  0.000000D+00  0.000000D+00  0.000000D+00  0.000000D+00
     10b  0.000000D+00  0.000000D+00  0.000000D+00  0.000000D+00  0.000000D+00
                 6             7             8             9            10 
      1a  0.000000D+00  0.000000D+00  0.000000D+00  0.000000D+00  0.000000D+00
      1b  0.000000D+00  0.000000D+00  0.000000D+00  0.000000D+00  0.000000D+00
      2a  0.000000D+00  0.000000D+00  0.000000D+00  0.000000D+00  0.000000D+00
      2b  0.000000D+00  0.000000D+00  0.000000D+00  0.000000D+00  0.000000D+00
      3a  0.000000D+00  0.000000D+00  0.000000D+00  0.000000D+00  0.000000D+00
      3b  0.000000D+00  0.000000D+00  0.000000D+00  0.000000D+00  0.000000D+00
      4a  0.000000D+00  0.000000D+00  0.000000D+00  0.000000D+00  0.000000D+00
      4b  0.000000D+00  0.000000D+00  0.000000D+00  0.000000D+00  0.000000D+00
      5a  0.000000D+00  0.000000D+00  0.000000D+00  0.000000D+00  0.000000D+00
      5b  0.000000D+00  0.000000D+00  0.000000D+00  0.000000D+00  0.000000D+00
      6a  0.000000D+00  0.000000D+00  0.000000D+00  0.000000D+00  0.000000D+00
      6b  0.000000D+00  0.000000D+00  0.000000D+00  0.000000D+00  0.000000D+00
      7a  0.000000D+00  0.000000D+00  0.000000D+00  0.000000D+00  0.000000D+00
      7b  0.000000D+00  0.000000D+00  0.000000D+00  0.000000D+00  0.000000D+00
      8a  0.000000D+00  0.000000D+00  0.000000D+00  0.000000D+00  0.000000D+00
      8b  0.000000D+00  0.000000D+00  0.000000D+00  0.000000D+00  0.000000D+00
      9a  0.000000D+00  0.000000D+00  0.000000D+00  0.000000D+00  0.000000D+00
      9b  0.000000D+00  0.000000D+00  0.000000D+00  0.000000D+00  0.000000D+00
     10a  0.000000D+00  0.000000D+00  0.000000D+00  0.000000D+00  0.000000D+00
     10b  0.000000D+00  0.000000D+00  0.000000D+00  0.000000D+00  0.000000D+00
                11            12            13            14            15 
      1a  0.000000D+00  0.000000D+00  0.000000D+00  0.000000D+00  0.000000D+00
      1b  0.000000D+00  0.000000D+00  0.000000D+00  0.000000D+00  0.000000D+00
      2a  0.000000D+00  0.000000D+00  0.000000D+00  0.000000D+00  0.000000D+00
      2b  0.000000D+00  0.000000D+00  0.000000D+00  0.000000D+00  0.000000D+00
      3a  0.000000D+00  0.000000D+00  0.000000D+00  0.000000D+00  0.000000D+00
      3b  0.000000D+00  0.000000D+00  0.000000D+00  0.000000D+00  0.000000D+00
      4a  0.000000D+00  0.000000D+00  0.000000D+00  0.000000D+00  0.000000D+00
      4b  0.000000D+00  0.000000D+00  0.000000D+00  0.000000D+00  0.000000D+00
      5a  0.000000D+00  0.000000D+00  0.000000D+00  0.000000D+00  0.000000D+00
      5b  0.000000D+00  0.000000D+00  0.000000D+00  0.000000D+00  0.000000D+00
      6a  0.000000D+00  0.000000D+00  0.000000D+00  0.000000D+00  0.000000D+00
      6b  0.000000D+00  0.000000D+00  0.000000D+00  0.000000D+00  0.000000D+00
      7a  0.000000D+00  0.000000D+00  0.000000D+00  0.000000D+00  0.000000D+00
      7b  0.000000D+00  0.000000D+00  0.000000D+00  0.000000D+00  0.000000D+00
      8a  0.000000D+00  0.000000D+00  0.000000D+00  0.000000D+00  0.000000D+00
      8b  0.000000D+00  0.000000D+00  0.000000D+00  0.000000D+00  0.000000D+00
      9a  0.000000D+00  0.000000D+00  0.000000D+00  0.000000D+00  0.000000D+00
      9b  0.000000D+00  0.000000D+00  0.000000D+00  0.000000D+00  0.000000D+00
     10a  0.000000D+00  0.000000D+00  0.000000D+00  0.000000D+00  0.000000D+00
     10b  0.000000D+00  0.000000D+00  0.000000D+00  0.000000D+00  0.000000D+00
                16            17            18            19            20 
      1a  0.000000D+00  0.000000D+00  0.000000D+00  0.000000D+00  0.000000D+00
      1b  0.000000D+00  0.000000D+00  0.000000D+00  0.000000D+00  0.000000D+00
      2a  0.000000D+00  0.000000D+00  0.000000D+00  0.000000D+00  0.000000D+00
      2b  0.000000D+00  0.000000D+00  0.000000D+00  0.000000D+00  0.000000D+00
      3a  0.000000D+00  0.000000D+00  0.000000D+00  0.000000D+00  0.000000D+00
      3b  0.000000D+00  0.000000D+00  0.000000D+00  0.000000D+00  0.000000D+00
      4a  0.000000D+00  0.000000D+00  0.000000D+00  0.000000D+00  0.000000D+00
      4b  0.000000D+00  0.000000D+00  0.000000D+00  0.000000D+00  0.000000D+00
      5a  0.000000D+00  0.000000D+00  0.000000D+00  0.000000D+00  0.000000D+00
      5b  0.000000D+00  0.000000D+00  0.000000D+00  0.000000D+00  0.000000D+00
      6a  0.000000D+00  0.000000D+00  0.000000D+00  0.000000D+00  0.000000D+00
      6b  0.000000D+00  0.000000D+00  0.000000D+00  0.000000D+00  0.000000D+00
      7a  0.000000D+00  0.000000D+00  0.000000D+00  0.000000D+00  0.000000D+00
      7b  0.000000D+00  0.000000D+00  0.000000D+00  0.000000D+00  0.000000D+00
      8a  0.000000D+00  0.000000D+00  0.000000D+00  0.000000D+00  0.000000D+00
      8b  0.000000D+00  0.000000D+00  0.000000D+00  0.000000D+00  0.000000D+00
      9a  0.000000D+00  0.000000D+00  0.000000D+00  0.000000D+00  0.000000D+00
      9b  0.000000D+00  0.000000D+00  0.000000D+00  0.000000D+00  0.000000D+00
     10a  0.000000D+00  0.000000D+00  0.000000D+00  0.000000D+00  0.000000D+00
     10b  0.000000D+00  0.000000D+00  0.000000D+00  0.000000D+00  0.000000D+00
 afr conversion (alpha, real):
                 1             2             3             4             5 
      1  -0.292062D-01  0.116277D+00  0.928683D-02  0.243315D+00  0.141206D+00
      2  -0.139586D-01  0.555723D-01  0.610125D-02  0.159853D+00  0.154794D+00
      3  -0.522571D-01  0.208048D+00  0.801680D-02  0.210040D+00 -0.724072D-01
      4  -0.484999D-01  0.193090D+00  0.112456D-01  0.294636D+00  0.563278D-01
      5  -0.494529D-01  0.196883D+00 -0.325482D-02 -0.852763D-01 -0.133808D+00
      6  -0.494529D-01  0.196883D+00  0.325482D-02  0.852763D-01 -0.133808D+00
      7  -0.484999D-01  0.193090D+00 -0.112456D-01 -0.294636D+00  0.563278D-01
      8  -0.522571D-01  0.208048D+00 -0.801680D-02 -0.210040D+00 -0.724072D-01
      9  -0.139586D-01  0.555723D-01 -0.610125D-02 -0.159853D+00  0.154794D+00
     10  -0.292062D-01  0.116277D+00 -0.928683D-02 -0.243315D+00  0.141206D+00
                 6             7             8             9            10 
      1   0.307328D+00  0.350055D-01  0.200241D+00  0.288021D+00  0.915077D-01
      2   0.336904D+00 -0.376094D-01 -0.215136D+00  0.506951D+00  0.161064D+00
      3  -0.157591D+00  0.973159D-01  0.556673D+00 -0.373011D+00 -0.118510D+00
      4   0.122595D+00 -0.520070D-01 -0.297494D+00 -0.325963D+00 -0.103562D+00
      5  -0.291227D+00  0.761800D-01  0.435770D+00  0.400296D+00  0.127179D+00
      6  -0.291227D+00 -0.761800D-01 -0.435770D+00 -0.400296D+00 -0.127179D+00
      7   0.122595D+00  0.520070D-01  0.297494D+00  0.325963D+00  0.103562D+00
      8  -0.157591D+00 -0.973159D-01 -0.556673D+00  0.373011D+00  0.118510D+00
      9   0.336904D+00  0.376094D-01  0.215136D+00 -0.506951D+00 -0.161064D+00
     10   0.307328D+00 -0.350055D-01 -0.200241D+00 -0.288021D+00 -0.915077D-01
                11            12            13            14            15 
      1   0.401500D+00  0.468126D+00 -0.290469D-01  0.676412D-01  0.652454D+00
      2  -0.236664D+00 -0.275937D+00  0.278294D+00 -0.648059D+00 -0.365415D+00
      3   0.269921D+00  0.314713D+00  0.351416D-01 -0.818338D-01 -0.331896D+00
      4  -0.294775D+00 -0.343692D+00 -0.371263D+00  0.864556D+00 -0.189674D+00
      5  -0.158643D+00 -0.184969D+00  0.166301D+00 -0.387262D+00 -0.335178D+00
      6  -0.158643D+00 -0.184969D+00  0.166301D+00 -0.387262D+00  0.335178D+00
      7  -0.294775D+00 -0.343692D+00 -0.371263D+00  0.864556D+00  0.189674D+00
      8   0.269921D+00  0.314713D+00  0.351416D-01 -0.818338D-01  0.331896D+00
      9  -0.236664D+00 -0.275937D+00  0.278294D+00 -0.648059D+00  0.365415D+00
     10   0.401500D+00  0.468126D+00 -0.290469D-01  0.676412D-01 -0.652454D+00
                16            17            18            19            20 
      1  -0.597943D+00 -0.719499D+00 -0.122544D+00 -0.399545D-03  0.172943D+00
      2   0.334885D+00  0.307287D+00  0.523370D-01  0.121751D-02 -0.527002D+00
      3   0.304167D+00  0.110289D+01  0.187844D+00  0.140799D-02 -0.609450D+00
      4   0.173828D+00  0.881469D-01  0.150131D-01 -0.227212D-02  0.983490D+00
      5   0.307174D+00 -0.790622D+00 -0.134658D+00 -0.232788D-02  0.100763D+01
      6  -0.307174D+00 -0.790622D+00 -0.134658D+00  0.232788D-02 -0.100763D+01
      7  -0.173828D+00  0.881469D-01  0.150131D-01  0.227212D-02 -0.983490D+00
      8  -0.304167D+00  0.110289D+01  0.187844D+00 -0.140799D-02  0.609450D+00
      9  -0.334885D+00  0.307287D+00  0.523370D-01 -0.121751D-02  0.527002D+00
     10   0.597943D+00 -0.719499D+00 -0.122544D+00  0.399545D-03 -0.172943D+00
 afr conversion (alpha, imaginary):
                 1             2             3             4             5 
      1   0.000000D+00  0.000000D+00  0.000000D+00  0.000000D+00  0.000000D+00
      2   0.000000D+00  0.000000D+00  0.000000D+00  0.000000D+00  0.000000D+00
      3   0.000000D+00  0.000000D+00  0.000000D+00  0.000000D+00  0.000000D+00
      4   0.000000D+00  0.000000D+00  0.000000D+00  0.000000D+00  0.000000D+00
      5   0.000000D+00  0.000000D+00  0.000000D+00  0.000000D+00  0.000000D+00
      6   0.000000D+00  0.000000D+00  0.000000D+00  0.000000D+00  0.000000D+00
      7   0.000000D+00  0.000000D+00  0.000000D+00  0.000000D+00  0.000000D+00
      8   0.000000D+00  0.000000D+00  0.000000D+00  0.000000D+00  0.000000D+00
      9   0.000000D+00  0.000000D+00  0.000000D+00  0.000000D+00  0.000000D+00
     10   0.000000D+00  0.000000D+00  0.000000D+00  0.000000D+00  0.000000D+00
                 6             7             8             9            10 
      1   0.000000D+00  0.000000D+00  0.000000D+00  0.000000D+00  0.000000D+00
      2   0.000000D+00  0.000000D+00  0.000000D+00  0.000000D+00  0.000000D+00
      3   0.000000D+00  0.000000D+00  0.000000D+00  0.000000D+00  0.000000D+00
      4   0.000000D+00  0.000000D+00  0.000000D+00  0.000000D+00  0.000000D+00
      5   0.000000D+00  0.000000D+00  0.000000D+00  0.000000D+00  0.000000D+00
      6   0.000000D+00  0.000000D+00  0.000000D+00  0.000000D+00  0.000000D+00
      7   0.000000D+00  0.000000D+00  0.000000D+00  0.000000D+00  0.000000D+00
      8   0.000000D+00  0.000000D+00  0.000000D+00  0.000000D+00  0.000000D+00
      9   0.000000D+00  0.000000D+00  0.000000D+00  0.000000D+00  0.000000D+00
     10   0.000000D+00  0.000000D+00  0.000000D+00  0.000000D+00  0.000000D+00
                11            12            13            14            15 
      1   0.000000D+00  0.000000D+00  0.000000D+00  0.000000D+00  0.000000D+00
      2   0.000000D+00  0.000000D+00  0.000000D+00  0.000000D+00  0.000000D+00
      3   0.000000D+00  0.000000D+00  0.000000D+00  0.000000D+00  0.000000D+00
      4   0.000000D+00  0.000000D+00  0.000000D+00  0.000000D+00  0.000000D+00
      5   0.000000D+00  0.000000D+00  0.000000D+00  0.000000D+00  0.000000D+00
      6   0.000000D+00  0.000000D+00  0.000000D+00  0.000000D+00  0.000000D+00
      7   0.000000D+00  0.000000D+00  0.000000D+00  0.000000D+00  0.000000D+00
      8   0.000000D+00  0.000000D+00  0.000000D+00  0.000000D+00  0.000000D+00
      9   0.000000D+00  0.000000D+00  0.000000D+00  0.000000D+00  0.000000D+00
     10   0.000000D+00  0.000000D+00  0.000000D+00  0.000000D+00  0.000000D+00
                16            17            18            19            20 
      1   0.000000D+00  0.000000D+00  0.000000D+00  0.000000D+00  0.000000D+00
      2   0.000000D+00  0.000000D+00  0.000000D+00  0.000000D+00  0.000000D+00
      3   0.000000D+00  0.000000D+00  0.000000D+00  0.000000D+00  0.000000D+00
      4   0.000000D+00  0.000000D+00  0.000000D+00  0.000000D+00  0.000000D+00
      5   0.000000D+00  0.000000D+00  0.000000D+00  0.000000D+00  0.000000D+00
      6   0.000000D+00  0.000000D+00  0.000000D+00  0.000000D+00  0.000000D+00
      7   0.000000D+00  0.000000D+00  0.000000D+00  0.000000D+00  0.000000D+00
      8   0.000000D+00  0.000000D+00  0.000000D+00  0.000000D+00  0.000000D+00
      9   0.000000D+00  0.000000D+00  0.000000D+00  0.000000D+00  0.000000D+00
     10   0.000000D+00  0.000000D+00  0.000000D+00  0.000000D+00  0.000000D+00
 afr conversion (beta, real):
                 1             2             3             4             5 
      1   0.116277D+00  0.292062D-01  0.243315D+00 -0.928683D-02  0.307328D+00
      2   0.555723D-01  0.139586D-01  0.159853D+00 -0.610125D-02  0.336904D+00
      3   0.208048D+00  0.522571D-01  0.210040D+00 -0.801680D-02 -0.157591D+00
      4   0.193090D+00  0.484999D-01  0.294636D+00 -0.112456D-01  0.122595D+00
      5   0.196883D+00  0.494529D-01 -0.852763D-01  0.325482D-02 -0.291227D+00
      6   0.196883D+00  0.494529D-01  0.852763D-01 -0.325482D-02 -0.291227D+00
      7   0.193090D+00  0.484999D-01 -0.294636D+00  0.112456D-01  0.122595D+00
      8   0.208048D+00  0.522571D-01 -0.210040D+00  0.801680D-02 -0.157591D+00
      9   0.555723D-01  0.139586D-01 -0.159853D+00  0.610125D-02  0.336904D+00
     10   0.116277D+00  0.292062D-01 -0.243315D+00  0.928683D-02  0.307328D+00
                 6             7             8             9            10 
      1  -0.141206D+00  0.200241D+00 -0.350055D-01 -0.915077D-01  0.288021D+00
      2  -0.154794D+00 -0.215136D+00  0.376094D-01 -0.161064D+00  0.506951D+00
      3   0.724072D-01  0.556673D+00 -0.973159D-01  0.118510D+00 -0.373011D+00
      4  -0.563278D-01 -0.297494D+00  0.520070D-01  0.103562D+00 -0.325963D+00
      5   0.133808D+00  0.435770D+00 -0.761800D-01 -0.127179D+00  0.400296D+00
      6   0.133808D+00 -0.435770D+00  0.761800D-01  0.127179D+00 -0.400296D+00
      7  -0.563278D-01  0.297494D+00 -0.520070D-01 -0.103562D+00  0.325963D+00
      8   0.724072D-01 -0.556673D+00  0.973159D-01 -0.118510D+00  0.373011D+00
      9  -0.154794D+00  0.215136D+00 -0.376094D-01  0.161064D+00 -0.506951D+00
     10  -0.141206D+00 -0.200241D+00  0.350055D-01  0.915077D-01 -0.288021D+00
                11            12            13            14            15 
      1   0.468126D+00 -0.401500D+00  0.676412D-01  0.290469D-01  0.597943D+00
      2  -0.275937D+00  0.236664D+00 -0.648059D+00 -0.278294D+00 -0.334885D+00
      3   0.314713D+00 -0.269921D+00 -0.818338D-01 -0.351416D-01 -0.304167D+00
      4  -0.343692D+00  0.294775D+00  0.864556D+00  0.371263D+00 -0.173828D+00
      5  -0.184969D+00  0.158643D+00 -0.387262D+00 -0.166301D+00 -0.307174D+00
      6  -0.184969D+00  0.158643D+00 -0.387262D+00 -0.166301D+00  0.307174D+00
      7  -0.343692D+00  0.294775D+00  0.864556D+00  0.371263D+00  0.173828D+00
      8   0.314713D+00 -0.269921D+00 -0.818338D-01 -0.351416D-01  0.304167D+00
      9  -0.275937D+00  0.236664D+00 -0.648059D+00 -0.278294D+00  0.334885D+00
     10   0.468126D+00 -0.401500D+00  0.676412D-01  0.290469D-01 -0.597943D+00
                16            17            18            19            20 
      1   0.652454D+00  0.122544D+00 -0.719499D+00  0.172943D+00  0.399545D-03
      2  -0.365415D+00 -0.523370D-01  0.307287D+00 -0.527002D+00 -0.121751D-02
      3  -0.331896D+00 -0.187844D+00  0.110289D+01 -0.609450D+00 -0.140799D-02
      4  -0.189674D+00 -0.150131D-01  0.881469D-01  0.983490D+00  0.227212D-02
      5  -0.335178D+00  0.134658D+00 -0.790622D+00  0.100763D+01  0.232788D-02
      6   0.335178D+00  0.134658D+00 -0.790622D+00 -0.100763D+01 -0.232788D-02
      7   0.189674D+00 -0.150131D-01  0.881469D-01 -0.983490D+00 -0.227212D-02
      8   0.331896D+00 -0.187844D+00  0.110289D+01  0.609450D+00  0.140799D-02
      9   0.365415D+00 -0.523370D-01  0.307287D+00  0.527002D+00  0.121751D-02
     10  -0.652454D+00  0.122544D+00 -0.719499D+00 -0.172943D+00 -0.399545D-03
 afr conversion (beta, imaginary):
                 1             2             3             4             5 
      1   0.000000D+00  0.000000D+00  0.000000D+00  0.000000D+00  0.000000D+00
      2   0.000000D+00  0.000000D+00  0.000000D+00  0.000000D+00  0.000000D+00
      3   0.000000D+00  0.000000D+00  0.000000D+00  0.000000D+00  0.000000D+00
      4   0.000000D+00  0.000000D+00  0.000000D+00  0.000000D+00  0.000000D+00
      5   0.000000D+00  0.000000D+00  0.000000D+00  0.000000D+00  0.000000D+00
      6   0.000000D+00  0.000000D+00  0.000000D+00  0.000000D+00  0.000000D+00
      7   0.000000D+00  0.000000D+00  0.000000D+00  0.000000D+00  0.000000D+00
      8   0.000000D+00  0.000000D+00  0.000000D+00  0.000000D+00  0.000000D+00
      9   0.000000D+00  0.000000D+00  0.000000D+00  0.000000D+00  0.000000D+00
     10   0.000000D+00  0.000000D+00  0.000000D+00  0.000000D+00  0.000000D+00
                 6             7             8             9            10 
      1   0.000000D+00  0.000000D+00  0.000000D+00  0.000000D+00  0.000000D+00
      2   0.000000D+00  0.000000D+00  0.000000D+00  0.000000D+00  0.000000D+00
      3   0.000000D+00  0.000000D+00  0.000000D+00  0.000000D+00  0.000000D+00
      4   0.000000D+00  0.000000D+00  0.000000D+00  0.000000D+00  0.000000D+00
      5   0.000000D+00  0.000000D+00  0.000000D+00  0.000000D+00  0.000000D+00
      6   0.000000D+00  0.000000D+00  0.000000D+00  0.000000D+00  0.000000D+00
      7   0.000000D+00  0.000000D+00  0.000000D+00  0.000000D+00  0.000000D+00
      8   0.000000D+00  0.000000D+00  0.000000D+00  0.000000D+00  0.000000D+00
      9   0.000000D+00  0.000000D+00  0.000000D+00  0.000000D+00  0.000000D+00
     10   0.000000D+00  0.000000D+00  0.000000D+00  0.000000D+00  0.000000D+00
                11            12            13            14            15 
      1   0.000000D+00  0.000000D+00  0.000000D+00  0.000000D+00  0.000000D+00
      2   0.000000D+00  0.000000D+00  0.000000D+00  0.000000D+00  0.000000D+00
      3   0.000000D+00  0.000000D+00  0.000000D+00  0.000000D+00  0.000000D+00
      4   0.000000D+00  0.000000D+00  0.000000D+00  0.000000D+00  0.000000D+00
      5   0.000000D+00  0.000000D+00  0.000000D+00  0.000000D+00  0.000000D+00
      6   0.000000D+00  0.000000D+00  0.000000D+00  0.000000D+00  0.000000D+00
      7   0.000000D+00  0.000000D+00  0.000000D+00  0.000000D+00  0.000000D+00
      8   0.000000D+00  0.000000D+00  0.000000D+00  0.000000D+00  0.000000D+00
      9   0.000000D+00  0.000000D+00  0.000000D+00  0.000000D+00  0.000000D+00
     10   0.000000D+00  0.000000D+00  0.000000D+00  0.000000D+00  0.000000D+00
                16            17            18            19            20 
      1   0.000000D+00  0.000000D+00  0.000000D+00  0.000000D+00  0.000000D+00
      2   0.000000D+00  0.000000D+00  0.000000D+00  0.000000D+00  0.000000D+00
      3   0.000000D+00  0.000000D+00  0.000000D+00  0.000000D+00  0.000000D+00
      4   0.000000D+00  0.000000D+00  0.000000D+00  0.000000D+00  0.000000D+00
      5   0.000000D+00  0.000000D+00  0.000000D+00  0.000000D+00  0.000000D+00
      6   0.000000D+00  0.000000D+00  0.000000D+00  0.000000D+00  0.000000D+00
      7   0.000000D+00  0.000000D+00  0.000000D+00  0.000000D+00  0.000000D+00
      8   0.000000D+00  0.000000D+00  0.000000D+00  0.000000D+00  0.000000D+00
      9   0.000000D+00  0.000000D+00  0.000000D+00  0.000000D+00  0.000000D+00
     10   0.000000D+00  0.000000D+00  0.000000D+00  0.000000D+00  0.000000D+00
 jaja in hckghf.F, ISPECT =                     548
Spin block MO for GHF transformation
NOA =   10   NOB =   10
NVA =   10   NVB =   10
 NOAvA in Hack                     100
 jaja in tranN3.F, ISPECT =                     548
 in l802/tranN3.F, LSPECT =                      800
 NMat, NBtSiz,MDV                    8372                   16000
                133954722
 TranN3:  NGot= 134217728 NBasic=    263006 NTTT=       550 NMat=      8372.
 Defined bucket =                      51                   10000
 Defined bucket =                      52                   10000
 Defined bucket =                      53                   10000
 Defined bucket =                      55                   10000
 Defined bucket =                      57                   10000
 Defined bucket =                      58                   10000
 Defined bucket =                      60                   10000
 Defined bucket =                      72                   10000
 Defined bucket =                      73                   10000
 Defined bucket =                      74                   10000
 Defined bucket =                      75                   10000
 Defined bucket =                      76                   10000
 (IK/LS) integrals will be saved in memory.
 TrCghf made   2 passes through the AO integrals.
 jaja DoHack is true or false? F
 jaja in hckghf.F, NBasis=                      10
 jaja in hckGHF/FixOG, LC =                      800
 jaja in hckGHF/FixOG, IRwC=                      548
 bfr conversion (alpha, real):
                 1             2             3             4             5 
      1  -0.292062D-01  0.116277D+00  0.928683D-02  0.243315D+00  0.141206D+00
      2  -0.139586D-01  0.555723D-01  0.610125D-02  0.159853D+00  0.154794D+00
      3  -0.522571D-01  0.208048D+00  0.801680D-02  0.210040D+00 -0.724072D-01
      4  -0.484999D-01  0.193090D+00  0.112456D-01  0.294636D+00  0.563278D-01
      5  -0.494529D-01  0.196883D+00 -0.325482D-02 -0.852763D-01 -0.133808D+00
      6  -0.494529D-01  0.196883D+00  0.325482D-02  0.852763D-01 -0.133808D+00
      7  -0.484999D-01  0.193090D+00 -0.112456D-01 -0.294636D+00  0.563278D-01
      8  -0.522571D-01  0.208048D+00 -0.801680D-02 -0.210040D+00 -0.724072D-01
      9  -0.139586D-01  0.555723D-01 -0.610125D-02 -0.159853D+00  0.154794D+00
     10  -0.292062D-01  0.116277D+00 -0.928683D-02 -0.243315D+00  0.141206D+00
                 6             7             8             9            10 
      1   0.307328D+00  0.350055D-01  0.200241D+00  0.288021D+00  0.915077D-01
      2   0.336904D+00 -0.376094D-01 -0.215136D+00  0.506951D+00  0.161064D+00
      3  -0.157591D+00  0.973159D-01  0.556673D+00 -0.373011D+00 -0.118510D+00
      4   0.122595D+00 -0.520070D-01 -0.297494D+00 -0.325963D+00 -0.103562D+00
      5  -0.291227D+00  0.761800D-01  0.435770D+00  0.400296D+00  0.127179D+00
      6  -0.291227D+00 -0.761800D-01 -0.435770D+00 -0.400296D+00 -0.127179D+00
      7   0.122595D+00  0.520070D-01  0.297494D+00  0.325963D+00  0.103562D+00
      8  -0.157591D+00 -0.973159D-01 -0.556673D+00  0.373011D+00  0.118510D+00
      9   0.336904D+00  0.376094D-01  0.215136D+00 -0.506951D+00 -0.161064D+00
     10   0.307328D+00 -0.350055D-01 -0.200241D+00 -0.288021D+00 -0.915077D-01
                11            12            13            14            15 
      1   0.401500D+00  0.468126D+00 -0.290469D-01  0.676412D-01  0.652454D+00
      2  -0.236664D+00 -0.275937D+00  0.278294D+00 -0.648059D+00 -0.365415D+00
      3   0.269921D+00  0.314713D+00  0.351416D-01 -0.818338D-01 -0.331896D+00
      4  -0.294775D+00 -0.343692D+00 -0.371263D+00  0.864556D+00 -0.189674D+00
      5  -0.158643D+00 -0.184969D+00  0.166301D+00 -0.387262D+00 -0.335178D+00
      6  -0.158643D+00 -0.184969D+00  0.166301D+00 -0.387262D+00  0.335178D+00
      7  -0.294775D+00 -0.343692D+00 -0.371263D+00  0.864556D+00  0.189674D+00
      8   0.269921D+00  0.314713D+00  0.351416D-01 -0.818338D-01  0.331896D+00
      9  -0.236664D+00 -0.275937D+00  0.278294D+00 -0.648059D+00  0.365415D+00
     10   0.401500D+00  0.468126D+00 -0.290469D-01  0.676412D-01 -0.652454D+00
                16            17            18            19            20 
      1  -0.597943D+00 -0.719499D+00 -0.122544D+00 -0.399545D-03  0.172943D+00
      2   0.334885D+00  0.307287D+00  0.523370D-01  0.121751D-02 -0.527002D+00
      3   0.304167D+00  0.110289D+01  0.187844D+00  0.140799D-02 -0.609450D+00
      4   0.173828D+00  0.881469D-01  0.150131D-01 -0.227212D-02  0.983490D+00
      5   0.307174D+00 -0.790622D+00 -0.134658D+00 -0.232788D-02  0.100763D+01
      6  -0.307174D+00 -0.790622D+00 -0.134658D+00  0.232788D-02 -0.100763D+01
      7  -0.173828D+00  0.881469D-01  0.150131D-01  0.227212D-02 -0.983490D+00
      8  -0.304167D+00  0.110289D+01  0.187844D+00 -0.140799D-02  0.609450D+00
      9  -0.334885D+00  0.307287D+00  0.523370D-01 -0.121751D-02  0.527002D+00
     10   0.597943D+00 -0.719499D+00 -0.122544D+00  0.399545D-03 -0.172943D+00
 bfr conversion (alpha, imaginary):
                 1             2             3             4             5 
      1   0.000000D+00  0.000000D+00  0.000000D+00  0.000000D+00  0.000000D+00
      2   0.000000D+00  0.000000D+00  0.000000D+00  0.000000D+00  0.000000D+00
      3   0.000000D+00  0.000000D+00  0.000000D+00  0.000000D+00  0.000000D+00
      4   0.000000D+00  0.000000D+00  0.000000D+00  0.000000D+00  0.000000D+00
      5   0.000000D+00  0.000000D+00  0.000000D+00  0.000000D+00  0.000000D+00
      6   0.000000D+00  0.000000D+00  0.000000D+00  0.000000D+00  0.000000D+00
      7   0.000000D+00  0.000000D+00  0.000000D+00  0.000000D+00  0.000000D+00
      8   0.000000D+00  0.000000D+00  0.000000D+00  0.000000D+00  0.000000D+00
      9   0.000000D+00  0.000000D+00  0.000000D+00  0.000000D+00  0.000000D+00
     10   0.000000D+00  0.000000D+00  0.000000D+00  0.000000D+00  0.000000D+00
                 6             7             8             9            10 
[...]
      6b 0.716838D+00 -0.534711D+00  0.520857D+00 -0.356628D+00 -0.397308D+00
      7a 0.642514D+00 -0.471074D+00  0.545459D+00 -0.142818D+00 -0.535733D+00
      7b-0.207586D+00  0.570607D-01 -0.130010D+00  0.147427D+00  0.467676D-01
      8a-0.253874D+00 -0.484950D-01 -0.324934D-01  0.831253D-01 -0.239333D+00
      8b-0.198978D+00  0.952112D-02 -0.194564D+00 -0.116316D+00  0.130914D+00
      9a 0.105501D+01 -0.507848D+00  0.780883D+00 -0.467517D+00 -0.659003D+00
      9b-0.551391D+00  0.354063D+00 -0.416307D+00  0.279436D+00  0.350514D+00
     10a 0.860064D+00 -0.508554D+00  0.728598D+00 -0.299399D+00 -0.710390D+00
     10b-0.430746D+00  0.305401D+00 -0.342942D+00  0.616813D-01  0.198170D+00
                3b            4a            4b            5a            5b
      3b 0.722029D+00
      4a 0.293829D+00  0.111788D+01
      4b 0.162588D+00 -0.473239D+00  0.576625D+00
      5a-0.593270D+00 -0.948601D+00  0.404765D+00  0.165445D+01
      5b 0.261873D+00  0.211513D+00 -0.215589D+00 -0.553219D+00  0.705042D+00
      6a-0.333602D+00  0.270538D+00 -0.188656D+00  0.672101D+00 -0.468150D+00
      6b 0.406050D+00 -0.121898D+00  0.205192D+00 -0.253718D+00  0.321005D+00
      7a 0.586115D-01 -0.303684D+00  0.688863D-01 -0.167207D+00  0.239508D+00
      7b-0.291907D+00 -0.216733D+00 -0.720768D-01  0.306266D+00  0.169619D+00
      8a-0.256937D+00 -0.793535D+00  0.333810D+00  0.830168D+00 -0.191137D+00
      8b-0.271571D-01  0.321966D+00 -0.257582D+00 -0.254843D+00  0.304458D+00
      9a 0.628204D+00  0.103085D+01 -0.556103D+00 -0.190020D+01  0.667136D+00
      9b-0.329695D+00 -0.543295D+00  0.334375D+00  0.934993D+00 -0.554216D+00
     10a 0.348653D+00  0.314495D+00 -0.182482D+00 -0.100248D+01  0.363548D+00
     10b-0.146039D+00  0.810052D-01 -0.469648D-01 -0.110933D-01 -0.302956D+00
                6a            6b            7a            7b            8a
      6a 0.167959D+01
      6b-0.588210D+00  0.682136D+00
      7a-0.767416D+00  0.234167D+00  0.617038D+00
      7b 0.409142D-01 -0.184979D+00  0.541829D-01  0.625989D+00
      8a-0.582377D-01  0.127509D+00  0.273319D+00  0.986827D-01  0.111522D+01
      8b 0.276474D+00  0.970384D-01 -0.177457D+00  0.165492D+00 -0.395782D+00
      9a-0.777474D+00  0.187719D+00  0.515355D+00 -0.349110D+00 -0.117166D+01
      9b 0.360674D+00 -0.249689D+00 -0.236580D+00  0.304502D+00  0.561963D+00
     10a-0.760474D+00  0.247208D+00  0.528751D+00 -0.156793D+00 -0.237082D+00
     10b 0.318179D+00 -0.266249D+00 -0.126315D+00  0.267212D+00 -0.150669D+00
                8b            9a            9b           10a           10b
      8b 0.575293D+00
      9a 0.373038D+00  0.300819D+01
      9b-0.319284D+00 -0.148389D+01  0.106089D+01
     10a 0.810222D-02  0.148162D+01 -0.643667D+00  0.977167D+00
     10b 0.990012D-01  0.653255D-01  0.406136D+00  0.636207D-01  0.782531D+00
 jaja lower-tri density matrix (imaginary):
                1a            1b            2a            2b            3a
      1a 0.000000D+00
      1b 0.000000D+00  0.000000D+00
      2a 0.000000D+00  0.000000D+00  0.000000D+00
      2b 0.000000D+00  0.000000D+00  0.000000D+00  0.000000D+00
      3a 0.000000D+00  0.000000D+00  0.000000D+00  0.000000D+00  0.000000D+00
      3b 0.000000D+00  0.000000D+00  0.000000D+00  0.000000D+00  0.000000D+00
      4a 0.000000D+00  0.000000D+00  0.000000D+00  0.000000D+00  0.000000D+00
      4b 0.000000D+00  0.000000D+00  0.000000D+00  0.000000D+00  0.000000D+00
      5a 0.000000D+00  0.000000D+00  0.000000D+00  0.000000D+00  0.000000D+00
      5b 0.000000D+00  0.000000D+00  0.000000D+00  0.000000D+00  0.000000D+00
      6a 0.000000D+00  0.000000D+00  0.000000D+00  0.000000D+00  0.000000D+00
      6b 0.000000D+00  0.000000D+00  0.000000D+00  0.000000D+00  0.000000D+00
      7a 0.000000D+00  0.000000D+00  0.000000D+00  0.000000D+00  0.000000D+00
      7b 0.000000D+00  0.000000D+00  0.000000D+00  0.000000D+00  0.000000D+00
      8a 0.000000D+00  0.000000D+00  0.000000D+00  0.000000D+00  0.000000D+00
      8b 0.000000D+00  0.000000D+00  0.000000D+00  0.000000D+00  0.000000D+00
      9a 0.000000D+00  0.000000D+00  0.000000D+00  0.000000D+00  0.000000D+00
      9b 0.000000D+00  0.000000D+00  0.000000D+00  0.000000D+00  0.000000D+00
     10a 0.000000D+00  0.000000D+00  0.000000D+00  0.000000D+00  0.000000D+00
     10b 0.000000D+00  0.000000D+00  0.000000D+00  0.000000D+00  0.000000D+00
                3b            4a            4b            5a            5b
      3b 0.000000D+00
      4a 0.000000D+00  0.000000D+00
      4b 0.000000D+00  0.000000D+00  0.000000D+00
      5a 0.000000D+00  0.000000D+00  0.000000D+00  0.000000D+00
      5b 0.000000D+00  0.000000D+00  0.000000D+00  0.000000D+00  0.000000D+00
      6a 0.000000D+00  0.000000D+00  0.000000D+00  0.000000D+00  0.000000D+00
      6b 0.000000D+00  0.000000D+00  0.000000D+00  0.000000D+00  0.000000D+00
      7a 0.000000D+00  0.000000D+00  0.000000D+00  0.000000D+00  0.000000D+00
      7b 0.000000D+00  0.000000D+00  0.000000D+00  0.000000D+00  0.000000D+00
      8a 0.000000D+00  0.000000D+00  0.000000D+00  0.000000D+00  0.000000D+00
      8b 0.000000D+00  0.000000D+00  0.000000D+00  0.000000D+00  0.000000D+00
      9a 0.000000D+00  0.000000D+00  0.000000D+00  0.000000D+00  0.000000D+00
      9b 0.000000D+00  0.000000D+00  0.000000D+00  0.000000D+00  0.000000D+00
     10a 0.000000D+00  0.000000D+00  0.000000D+00  0.000000D+00  0.000000D+00
     10b 0.000000D+00  0.000000D+00  0.000000D+00  0.000000D+00  0.000000D+00
                6a            6b            7a            7b            8a
      6a 0.000000D+00
      6b 0.000000D+00  0.000000D+00
      7a 0.000000D+00  0.000000D+00  0.000000D+00
      7b 0.000000D+00  0.000000D+00  0.000000D+00  0.000000D+00
      8a 0.000000D+00  0.000000D+00  0.000000D+00  0.000000D+00  0.000000D+00
      8b 0.000000D+00  0.000000D+00  0.000000D+00  0.000000D+00  0.000000D+00
      9a 0.000000D+00  0.000000D+00  0.000000D+00  0.000000D+00  0.000000D+00
      9b 0.000000D+00  0.000000D+00  0.000000D+00  0.000000D+00  0.000000D+00
     10a 0.000000D+00  0.000000D+00  0.000000D+00  0.000000D+00  0.000000D+00
     10b 0.000000D+00  0.000000D+00  0.000000D+00  0.000000D+00  0.000000D+00
                8b            9a            9b           10a           10b
      8b 0.000000D+00
      9a 0.000000D+00  0.000000D+00
      9b 0.000000D+00  0.000000D+00  0.000000D+00
     10a 0.000000D+00  0.000000D+00  0.000000D+00  0.000000D+00
     10b 0.000000D+00  0.000000D+00  0.000000D+00  0.000000D+00  0.000000D+00
 jaja non-ortho density matrix               [Gau-style] (real):
                 1             2             3             4             5 
      1a  0.266489D+01 -0.148855D+01  0.195687D+01 -0.355563D+00 -0.103171D+01
      1b -0.148855D+01  0.115627D+01 -0.106456D+01  0.550227D+00  0.710264D+00
      2a  0.195687D+01 -0.106456D+01  0.155390D+01 -0.138952D+00 -0.976969D+00
      2b -0.355563D+00  0.550227D+00 -0.138952D+00  0.756718D+00  0.206995D+00
      3a -0.103171D+01  0.710264D+00 -0.976969D+00  0.206995D+00  0.101103D+01
      3b  0.551493D+00 -0.145697D+00  0.395920D+00 -0.244949D+00 -0.229184D+00
      4a  0.383474D+00 -0.387314D-01  0.235477D+00 -0.798744D-01  0.792881D-01
      4b -0.825362D-02  0.197742D+00  0.326555D-01  0.270922D+00  0.176895D-01
      5a -0.113135D+01  0.540297D+00 -0.917547D+00  0.329130D+00  0.721897D+00
      5b  0.611268D+00 -0.463528D+00  0.502084D+00 -0.250509D+00 -0.444305D+00
      6a -0.181724D+01  0.109148D+01 -0.140959D+01  0.253001D+00  0.101279D+01
      6b  0.716838D+00 -0.534711D+00  0.520857D+00 -0.356628D+00 -0.397308D+00
      7a  0.642514D+00 -0.471074D+00  0.545459D+00 -0.142818D+00 -0.535733D+00
      7b -0.207586D+00  0.570607D-01 -0.130010D+00  0.147427D+00  0.467676D-01
      8a -0.253874D+00 -0.484950D-01 -0.324934D-01  0.831253D-01 -0.239333D+00
      8b -0.198978D+00  0.952112D-02 -0.194564D+00 -0.116316D+00  0.130914D+00
      9a  0.105501D+01 -0.507848D+00  0.780883D+00 -0.467517D+00 -0.659003D+00
      9b -0.551391D+00  0.354063D+00 -0.416307D+00  0.279436D+00  0.350514D+00
     10a  0.860064D+00 -0.508554D+00  0.728598D+00 -0.299399D+00 -0.710390D+00
     10b -0.430746D+00  0.305401D+00 -0.342942D+00  0.616813D-01  0.198170D+00
                 6             7             8             9            10 
      1a  0.551493D+00  0.383474D+00 -0.825362D-02 -0.113135D+01  0.611268D+00
      1b -0.145697D+00 -0.387314D-01  0.197742D+00  0.540297D+00 -0.463528D+00
      2a  0.395920D+00  0.235477D+00  0.326555D-01 -0.917547D+00  0.502084D+00
      2b -0.244949D+00 -0.798744D-01  0.270922D+00  0.329130D+00 -0.250509D+00
      3a -0.229184D+00  0.792881D-01  0.176895D-01  0.721897D+00 -0.444305D+00
      3b  0.722029D+00  0.293829D+00  0.162588D+00 -0.593270D+00  0.261873D+00
      4a  0.293829D+00  0.111788D+01 -0.473239D+00 -0.948601D+00  0.211513D+00
      4b  0.162588D+00 -0.473239D+00  0.576625D+00  0.404765D+00 -0.215589D+00
      5a -0.593270D+00 -0.948601D+00  0.404765D+00  0.165445D+01 -0.553219D+00
      5b  0.261873D+00  0.211513D+00 -0.215589D+00 -0.553219D+00  0.705042D+00
      6a -0.333602D+00  0.270538D+00 -0.188656D+00  0.672101D+00 -0.468150D+00
      6b  0.406050D+00 -0.121898D+00  0.205192D+00 -0.253718D+00  0.321005D+00
      7a  0.586115D-01 -0.303684D+00  0.688863D-01 -0.167207D+00  0.239508D+00
      7b -0.291907D+00 -0.216733D+00 -0.720768D-01  0.306266D+00  0.169619D+00
      8a -0.256937D+00 -0.793535D+00  0.333810D+00  0.830168D+00 -0.191137D+00
      8b -0.271571D-01  0.321966D+00 -0.257582D+00 -0.254843D+00  0.304458D+00
      9a  0.628204D+00  0.103085D+01 -0.556103D+00 -0.190020D+01  0.667136D+00
      9b -0.329695D+00 -0.543295D+00  0.334375D+00  0.934993D+00 -0.554216D+00
     10a  0.348653D+00  0.314495D+00 -0.182482D+00 -0.100248D+01  0.363548D+00
     10b -0.146039D+00  0.810052D-01 -0.469648D-01 -0.110933D-01 -0.302956D+00
                11            12            13            14            15 
      1a -0.181724D+01  0.716838D+00  0.642514D+00 -0.207586D+00 -0.253874D+00
      1b  0.109148D+01 -0.534711D+00 -0.471074D+00  0.570607D-01 -0.484950D-01
      2a -0.140959D+01  0.520857D+00  0.545459D+00 -0.130010D+00 -0.324934D-01
      2b  0.253001D+00 -0.356628D+00 -0.142818D+00  0.147427D+00  0.831253D-01
      3a  0.101279D+01 -0.397308D+00 -0.535733D+00  0.467676D-01 -0.239333D+00
      3b -0.333602D+00  0.406050D+00  0.586115D-01 -0.291907D+00 -0.256937D+00
      4a  0.270538D+00 -0.121898D+00 -0.303684D+00 -0.216733D+00 -0.793535D+00
      4b -0.188656D+00  0.205192D+00  0.688863D-01 -0.720768D-01  0.333810D+00
      5a  0.672101D+00 -0.253718D+00 -0.167207D+00  0.306266D+00  0.830168D+00
      5b -0.468150D+00  0.321005D+00  0.239508D+00  0.169619D+00 -0.191137D+00
      6a  0.167959D+01 -0.588210D+00 -0.767416D+00  0.409142D-01 -0.582377D-01
      6b -0.588210D+00  0.682136D+00  0.234167D+00 -0.184979D+00  0.127509D+00
      7a -0.767416D+00  0.234167D+00  0.617038D+00  0.541829D-01  0.273319D+00
      7b  0.409142D-01 -0.184979D+00  0.541829D-01  0.625989D+00  0.986827D-01
      8a -0.582377D-01  0.127509D+00  0.273319D+00  0.986827D-01  0.111522D+01
      8b  0.276474D+00  0.970384D-01 -0.177457D+00  0.165492D+00 -0.395782D+00
      9a -0.777474D+00  0.187719D+00  0.515355D+00 -0.349110D+00 -0.117166D+01
      9b  0.360674D+00 -0.249689D+00 -0.236580D+00  0.304502D+00  0.561963D+00
     10a -0.760474D+00  0.247208D+00  0.528751D+00 -0.156793D+00 -0.237082D+00
     10b  0.318179D+00 -0.266249D+00 -0.126315D+00  0.267212D+00 -0.150669D+00
                16            17            18            19            20 
      1a -0.198978D+00  0.105501D+01 -0.551391D+00  0.860064D+00 -0.430746D+00
      1b  0.952112D-02 -0.507848D+00  0.354063D+00 -0.508554D+00  0.305401D+00
      2a -0.194564D+00  0.780883D+00 -0.416307D+00  0.728598D+00 -0.342942D+00
      2b -0.116316D+00 -0.467517D+00  0.279436D+00 -0.299399D+00  0.616813D-01
      3a  0.130914D+00 -0.659003D+00  0.350514D+00 -0.710390D+00  0.198170D+00
      3b -0.271571D-01  0.628204D+00 -0.329695D+00  0.348653D+00 -0.146039D+00
      4a  0.321966D+00  0.103085D+01 -0.543295D+00  0.314495D+00  0.810052D-01
      4b -0.257582D+00 -0.556103D+00  0.334375D+00 -0.182482D+00 -0.469648D-01
      5a -0.254843D+00 -0.190020D+01  0.934993D+00 -0.100248D+01 -0.110933D-01
      5b  0.304458D+00  0.667136D+00 -0.554216D+00  0.363548D+00 -0.302956D+00
      6a  0.276474D+00 -0.777474D+00  0.360674D+00 -0.760474D+00  0.318179D+00
      6b  0.970384D-01  0.187719D+00 -0.249689D+00  0.247208D+00 -0.266249D+00
      7a -0.177457D+00  0.515355D+00 -0.236580D+00  0.528751D+00 -0.126315D+00
      7b  0.165492D+00 -0.349110D+00  0.304502D+00 -0.156793D+00  0.267212D+00
      8a -0.395782D+00 -0.117166D+01  0.561963D+00 -0.237082D+00 -0.150669D+00
      8b  0.575293D+00  0.373038D+00 -0.319284D+00  0.810222D-02  0.990012D-01
      9a  0.373038D+00  0.300819D+01 -0.148389D+01  0.148162D+01  0.653255D-01
      9b -0.319284D+00 -0.148389D+01  0.106089D+01 -0.643667D+00  0.406136D+00
     10a  0.810222D-02  0.148162D+01 -0.643667D+00  0.977167D+00  0.636207D-01
     10b  0.990012D-01  0.653255D-01  0.406136D+00  0.636207D-01  0.782531D+00
 jaja non-ortho density matrix               [Gau-style] (imaginary):
                 1             2             3             4             5 
      1a  0.000000D+00  0.000000D+00  0.000000D+00  0.000000D+00  0.000000D+00
      1b  0.000000D+00  0.000000D+00  0.000000D+00  0.000000D+00  0.000000D+00
      2a  0.000000D+00  0.000000D+00  0.000000D+00  0.000000D+00  0.000000D+00
      2b  0.000000D+00  0.000000D+00  0.000000D+00  0.000000D+00  0.000000D+00
      3a  0.000000D+00  0.000000D+00  0.000000D+00  0.000000D+00  0.000000D+00
      3b  0.000000D+00  0.000000D+00  0.000000D+00  0.000000D+00  0.000000D+00
      4a  0.000000D+00  0.000000D+00  0.000000D+00  0.000000D+00  0.000000D+00
      4b  0.000000D+00  0.000000D+00  0.000000D+00  0.000000D+00  0.000000D+00
      5a  0.000000D+00  0.000000D+00  0.000000D+00  0.000000D+00  0.000000D+00
      5b  0.000000D+00  0.000000D+00  0.000000D+00  0.000000D+00  0.000000D+00
      6a  0.000000D+00  0.000000D+00  0.000000D+00  0.000000D+00  0.000000D+00
      6b  0.000000D+00  0.000000D+00  0.000000D+00  0.000000D+00  0.000000D+00
      7a  0.000000D+00  0.000000D+00  0.000000D+00  0.000000D+00  0.000000D+00
      7b  0.000000D+00  0.000000D+00  0.000000D+00  0.000000D+00  0.000000D+00
      8a  0.000000D+00  0.000000D+00  0.000000D+00  0.000000D+00  0.000000D+00
      8b  0.000000D+00  0.000000D+00  0.000000D+00  0.000000D+00  0.000000D+00
      9a  0.000000D+00  0.000000D+00  0.000000D+00  0.000000D+00  0.000000D+00
      9b  0.000000D+00  0.000000D+00  0.000000D+00  0.000000D+00  0.000000D+00
     10a  0.000000D+00  0.000000D+00  0.000000D+00  0.000000D+00  0.000000D+00
     10b  0.000000D+00  0.000000D+00  0.000000D+00  0.000000D+00  0.000000D+00
                 6             7             8             9            10 
      1a  0.000000D+00  0.000000D+00  0.000000D+00  0.000000D+00  0.000000D+00
      1b  0.000000D+00  0.000000D+00  0.000000D+00  0.000000D+00  0.000000D+00
      2a  0.000000D+00  0.000000D+00  0.000000D+00  0.000000D+00  0.000000D+00
      2b  0.000000D+00  0.000000D+00  0.000000D+00  0.000000D+00  0.000000D+00
      3a  0.000000D+00  0.000000D+00  0.000000D+00  0.000000D+00  0.000000D+00
      3b  0.000000D+00  0.000000D+00  0.000000D+00  0.000000D+00  0.000000D+00
      4a  0.000000D+00  0.000000D+00  0.000000D+00  0.000000D+00  0.000000D+00
      4b  0.000000D+00  0.000000D+00  0.000000D+00  0.000000D+00  0.000000D+00
      5a  0.000000D+00  0.000000D+00  0.000000D+00  0.000000D+00  0.000000D+00
      5b  0.000000D+00  0.000000D+00  0.000000D+00  0.000000D+00  0.000000D+00
      6a  0.000000D+00  0.000000D+00  0.000000D+00  0.000000D+00  0.000000D+00
      6b  0.000000D+00  0.000000D+00  0.000000D+00  0.000000D+00  0.000000D+00
      7a  0.000000D+00  0.000000D+00  0.000000D+00  0.000000D+00  0.000000D+00
      7b  0.000000D+00  0.000000D+00  0.000000D+00  0.000000D+00  0.000000D+00
      8a  0.000000D+00  0.000000D+00  0.000000D+00  0.000000D+00  0.000000D+00
      8b  0.000000D+00  0.000000D+00  0.000000D+00  0.000000D+00  0.000000D+00
      9a  0.000000D+00  0.000000D+00  0.000000D+00  0.000000D+00  0.000000D+00
      9b  0.000000D+00  0.000000D+00  0.000000D+00  0.000000D+00  0.000000D+00
     10a  0.000000D+00  0.000000D+00  0.000000D+00  0.000000D+00  0.000000D+00
     10b  0.000000D+00  0.000000D+00  0.000000D+00  0.000000D+00  0.000000D+00
                11            12            13            14            15 
      1a  0.000000D+00  0.000000D+00  0.000000D+00  0.000000D+00  0.000000D+00
      1b  0.000000D+00  0.000000D+00  0.000000D+00  0.000000D+00  0.000000D+00
      2a  0.000000D+00  0.000000D+00  0.000000D+00  0.000000D+00  0.000000D+00
      2b  0.000000D+00  0.000000D+00  0.000000D+00  0.000000D+00  0.000000D+00
      3a  0.000000D+00  0.000000D+00  0.000000D+00  0.000000D+00  0.000000D+00
      3b  0.000000D+00  0.000000D+00  0.000000D+00  0.000000D+00  0.000000D+00
      4a  0.000000D+00  0.000000D+00  0.000000D+00  0.000000D+00  0.000000D+00
      4b  0.000000D+00  0.000000D+00  0.000000D+00  0.000000D+00  0.000000D+00
      5a  0.000000D+00  0.000000D+00  0.000000D+00  0.000000D+00  0.000000D+00
      5b  0.000000D+00  0.000000D+00  0.000000D+00  0.000000D+00  0.000000D+00
      6a  0.000000D+00  0.000000D+00  0.000000D+00  0.000000D+00  0.000000D+00
      6b  0.000000D+00  0.000000D+00  0.000000D+00  0.000000D+00  0.000000D+00
      7a  0.000000D+00  0.000000D+00  0.000000D+00  0.000000D+00  0.000000D+00
      7b  0.000000D+00  0.000000D+00  0.000000D+00  0.000000D+00  0.000000D+00
      8a  0.000000D+00  0.000000D+00  0.000000D+00  0.000000D+00  0.000000D+00
      8b  0.000000D+00  0.000000D+00  0.000000D+00  0.000000D+00  0.000000D+00
      9a  0.000000D+00  0.000000D+00  0.000000D+00  0.000000D+00  0.000000D+00
      9b  0.000000D+00  0.000000D+00  0.000000D+00  0.000000D+00  0.000000D+00
     10a  0.000000D+00  0.000000D+00  0.000000D+00  0.000000D+00  0.000000D+00
     10b  0.000000D+00  0.000000D+00  0.000000D+00  0.000000D+00  0.000000D+00
                16            17            18            19            20 
      1a  0.000000D+00  0.000000D+00  0.000000D+00  0.000000D+00  0.000000D+00
      1b  0.000000D+00  0.000000D+00  0.000000D+00  0.000000D+00  0.000000D+00
      2a  0.000000D+00  0.000000D+00  0.000000D+00  0.000000D+00  0.000000D+00
      2b  0.000000D+00  0.000000D+00  0.000000D+00  0.000000D+00  0.000000D+00
      3a  0.000000D+00  0.000000D+00  0.000000D+00  0.000000D+00  0.000000D+00
      3b  0.000000D+00  0.000000D+00  0.000000D+00  0.000000D+00  0.000000D+00
      4a  0.000000D+00  0.000000D+00  0.000000D+00  0.000000D+00  0.000000D+00
      4b  0.000000D+00  0.000000D+00  0.000000D+00  0.000000D+00  0.000000D+00
      5a  0.000000D+00  0.000000D+00  0.000000D+00  0.000000D+00  0.000000D+00
      5b  0.000000D+00  0.000000D+00  0.000000D+00  0.000000D+00  0.000000D+00
      6a  0.000000D+00  0.000000D+00  0.000000D+00  0.000000D+00  0.000000D+00
      6b  0.000000D+00  0.000000D+00  0.000000D+00  0.000000D+00  0.000000D+00
      7a  0.000000D+00  0.000000D+00  0.000000D+00  0.000000D+00  0.000000D+00
      7b  0.000000D+00  0.000000D+00  0.000000D+00  0.000000D+00  0.000000D+00
      8a  0.000000D+00  0.000000D+00  0.000000D+00  0.000000D+00  0.000000D+00
      8b  0.000000D+00  0.000000D+00  0.000000D+00  0.000000D+00  0.000000D+00
      9a  0.000000D+00  0.000000D+00  0.000000D+00  0.000000D+00  0.000000D+00
      9b  0.000000D+00  0.000000D+00  0.000000D+00  0.000000D+00  0.000000D+00
     10a  0.000000D+00  0.000000D+00  0.000000D+00  0.000000D+00  0.000000D+00
     10b  0.000000D+00  0.000000D+00  0.000000D+00  0.000000D+00  0.000000D+00
FORTRAN STOP
