 Entering Gaussian System, Link 0=gdv
 AtFile(1): H.gbs
            H     0
            S   10   1.00
               1000.000000000000            0.000068713567
                316.227766000000            0.000169141320
                100.000000000000            0.000823394812
                 31.622776600000            0.003425569236
                 10.000000000000            0.013951996000
                  3.162277660000            0.056909313560
                  1.000000000000            0.198286399900
                  0.316227766000            0.496922426700
                  0.100000000000            0.369846276400
                  0.031622776600            0.003752720039
            ****
 Initial command:
 /users/lcj1/GHF_hess/exe-dir/l1.exe "/users/lcj1/GHF_hess/h10_2rows/follow25/follow45/bck/Gau-10270.inp" -scrdir="/users/lcj1/GHF_hess/h10_2rows/follow25/follow45/bck/"
 Entering Link 1 = /users/lcj1/GHF_hess/exe-dir/l1.exe PID=     10271.
  
 Copyright (c) 1988,1990,1992,1993,1995,1998,2003,2009,2012,
            Gaussian, Inc.  All Rights Reserved.
  
 This is the private, development version of
 the Gaussian(R) DV system of programs. It is based on
 the Gaussian(R) 09 system (copyright 2009, Gaussian, Inc.),
 the Gaussian(R) 03 system (copyright 2003, Gaussian, Inc.),
 the Gaussian(R) 98 system (copyright 1998, Gaussian, Inc.),
 the Gaussian(R) 94 system (copyright 1995, Gaussian, Inc.),
 the Gaussian 92(TM) system (copyright 1992, Gaussian, Inc.),
 the Gaussian 90(TM) system (copyright 1990, Gaussian, Inc.),
 the Gaussian 88(TM) system (copyright 1988, Gaussian, Inc.),
 the Gaussian 86(TM) system (copyright 1986, Carnegie Mellon
 University), and the Gaussian 82(TM) system (copyright 1983,
 Carnegie Mellon University). Gaussian is a federally registered
 trademark of Gaussian, Inc.
  
 This software contains proprietary and confidential information,
 including trade secrets, belonging to Gaussian, Inc.
  
 This software is provided under written license and may be
 used, copied, transmitted, or stored only in accord with that
 written license.
  
 The following legend is applicable only to US Government
 contracts under FAR:
  
                    RESTRICTED RIGHTS LEGEND
  
 Use, reproduction and disclosure by the US Government is
 subject to restrictions as set forth in subparagraphs (a)
 and (c) of the Commercial Computer Software - Restricted
 Rights clause in FAR 52.227-19.
  
 Gaussian, Inc.
 340 Quinnipiac St., Bldg. 40, Wallingford CT 06492
  
  
 ---------------------------------------------------------------
 Warning -- This program may not be used in any manner that
 competes with the business of Gaussian, Inc. or will provide
 assistance to any competitor of Gaussian, Inc.  The licensee
 of this program is prohibited from giving any competitor of
 Gaussian, Inc. access to this program.  By using this program,
 the user acknowledges that Gaussian, Inc. is engaged in the
 business of creating and licensing software in the field of
 computational chemistry and represents and warrants to the
 licensee that it is not a competitor of Gaussian, Inc. and that
 it will not use this program in any manner prohibited above.
 ---------------------------------------------------------------
  

 Cite this work as:
 Gaussian Development Version, Revision H.21,
 M. J. Frisch, G. W. Trucks, H. B. Schlegel, G. E. Scuseria, 
 M. A. Robb, J. R. Cheeseman, G. Scalmani, V. Barone, B. Mennucci, 
 G. A. Petersson, H. Nakatsuji, M. Caricato, X. Li, H. P. Hratchian, 
 A. F. Izmaylov, J. Bloino, G. Zheng, J. L. Sonnenberg, W. Liang, 
 M. Hada, M. Ehara, K. Toyota, R. Fukuda, J. Hasegawa, M. Ishida, 
 T. Nakajima, Y. Honda, O. Kitao, H. Nakai, T. Vreven, 
 J. A. Montgomery, Jr., J. E. Peralta, F. Ogliaro, M. Bearpark, 
 J. J. Heyd, E. Brothers, K. N. Kudin, V. N. Staroverov, T. Keith, 
 R. Kobayashi, J. Normand, K. Raghavachari, A. Rendell, J. C. Burant, 
 S. S. Iyengar, J. Tomasi, M. Cossi, N. Rega, J. M. Millam, M. Klene, 
 J. E. Knox, J. B. Cross, V. Bakken, C. Adamo, J. Jaramillo, 
 R. Gomperts, R. E. Stratmann, O. Yazyev, A. J. Austin, R. Cammi, 
 C. Pomelli, J. W. Ochterski, R. L. Martin, K. Morokuma, 
 V. G. Zakrzewski, G. A. Voth, P. Salvador, J. J. Dannenberg, 
 S. Dapprich, P. V. Parandekar, N. J. Mayhall, A. D. Daniels, 
 O. Farkas, J. B. Foresman, J. V. Ortiz, J. Cioslowski, 
 and D. J. Fox, Gaussian, Inc., Wallingford CT, 2010.
 
 ******************************************
 Gaussian DV:  EM64L-GDVRevH.21 13-May-2012
                28-Feb-2017 
 ******************************************
 %chk=h10.chk
 ----------------------------------------------------------------------
 #ghf/gen scf(tight,novaracc,noincfock,fulldiag) stable guess=read geom
 =nocrowd use=l802 use=l902 test
 ----------------------------------------------------------------------
 ********************************************
   THE COMPLEX ERI TRANSFORMATION WITH L802  
        COMPLEX STABILITY WITH L902          
 ********************************************
 1/38=1/1;
 2/12=1,17=6,18=5,40=1/2;
 3/5=7,16=1,25=20,28=1,116=7/1,2,3,20;
 4/5=1/1;
 5/5=100001,16=1,32=2,38=6/2;
 8/6=1,10=90,11=11/1,2;
 9/8=4,13=1/1,2;
 6/7=2,8=2,9=2,10=2,28=1/1;
 99/5=1,9=1/99;
 ----------------------------------------------------------------------
 hf stability analysis of h10 triangular lattice, y= 0.5365223526570523
 9 alpha= 26.500000000000000
 ----------------------------------------------------------------------
 Symbolic Z-Matrix:
 Charge =  0 Multiplicity = 1
 H
 H                    1     1.20243 
 H                    1     1.20243  2     127. 
 H                    2     1.20243  1     53.      3     0.       0
 H                    3     1.20243  1     180.     2     0.       0
 H                    4     1.20243  2     180.     1     0.       0
 H                    5     1.20243  3     180.     2     0.       0
 H                    6     1.20243  4     180.     1     0.       0
 H                    7     1.20243  5     180.     2     0.       0
 H                    8     1.20243  6     180.     1     0.       0
 
                          Input orientation:                          
 ---------------------------------------------------------------------
 Center     Atomic      Atomic             Coordinates (Angstroms)
 Number     Number       Type             X           Y           Z
 ---------------------------------------------------------------------
      1          1           0        0.000000    0.000000    0.000000
      2          1           0        0.000000    0.000000    1.202432
      3          1           0        0.960305    0.000000   -0.723641
      4          1           0        0.960305    0.000000    0.478790
      5          1           0        1.920609    0.000000   -1.447283
      6          1           0        1.920609    0.000000   -0.244851
      7          1           0        2.880914    0.000000   -2.170924
      8          1           0        2.880914    0.000000   -0.968493
      9          1           0        3.841218    0.000000   -2.894566
     10          1           0        3.841218    0.000000   -1.692134
 ---------------------------------------------------------------------
                    Distance matrix (angstroms):
                    1          2          3          4          5
     1  H    0.000000
     2  H    1.202432   0.000000
     3  H    1.202432   2.152195   0.000000
     4  H    1.073045   1.202432   1.202432   0.000000
     5  H    2.404863   3.272572   1.202432   2.152195   0.000000
     6  H    1.936154   2.404863   1.073045   1.202432   1.202432
     7  H    3.607295   4.436124   2.404863   3.272572   1.202432
     8  H    3.039349   3.607295   1.936154   2.404863   1.073045
     9  H    4.809726   5.616079   3.607295   4.436124   2.404863
    10  H    4.197413   4.809726   3.039349   3.607295   1.936154
                    6          7          8          9         10
     6  H    0.000000
     7  H    2.152195   0.000000
     8  H    1.202432   1.202432   0.000000
     9  H    3.272572   1.202432   2.152195   0.000000
    10  H    2.404863   1.073045   1.202432   1.202432   0.000000
 Stoichiometry    H10
 Framework group  C2H[SGH(H10)]
 Deg. of freedom     9
 Full point group                 C2H     NOp   4
 Largest Abelian subgroup         C2H     NOp   4
 Largest concise Abelian subgroup C2      NOp   2
                         Standard orientation:                         
 ---------------------------------------------------------------------
 Center     Atomic      Atomic             Coordinates (Angstroms)
 Number     Number       Type             X           Y           Z
 ---------------------------------------------------------------------
      1          1           0        1.920609   -0.846067    0.000000
      2          1           0        1.920609   -2.048499    0.000000
      3          1           0        0.960305   -0.122426    0.000000
      4          1           0        0.960305   -1.324857    0.000000
      5          1           0        0.000000    0.601216    0.000000
      6          1           0        0.000000   -0.601216    0.000000
      7          1           0       -0.960305    1.324857    0.000000
      8          1           0       -0.960305    0.122426    0.000000
      9          1           0       -1.920609    2.048499    0.000000
     10          1           0       -1.920609    0.846067    0.000000
 ---------------------------------------------------------------------
 Rotational constants (GHZ):    228.1645352     16.5313092     15.4144770
 General basis read from cards:  (5D, 7F)
 There are     5 symmetry adapted cartesian basis functions of AG  symmetry.
 There are     0 symmetry adapted cartesian basis functions of BG  symmetry.
 There are     0 symmetry adapted cartesian basis functions of AU  symmetry.
 There are     5 symmetry adapted cartesian basis functions of BU  symmetry.
 There are     5 symmetry adapted basis functions of AG  symmetry.
 There are     0 symmetry adapted basis functions of BG  symmetry.
 There are     0 symmetry adapted basis functions of AU  symmetry.
 There are     5 symmetry adapted basis functions of BU  symmetry.
    10 basis functions,   100 primitive gaussians,    10 cartesian basis functions
     5 alpha electrons        5 beta electrons
       nuclear repulsion energy        12.9165241627 Hartrees.
 NAtoms=   10 NActive=   10 NUniq=    5 SFac= 4.00D+00 NAtFMM=   60 NAOKFM=F Big=F
 Integral buffers will be    131072 words long.
 Regular integral format.
 Two-electron integral symmetry is turned off.
 One-electron integrals computed using PRISM.
 NBasis=    10 RedAO= T EigKep=  1.94D-01  NBF=     5     0     0     5
 NBsUse=    10 1.00D-06 EigRej= -1.00D+00 NBFU=     5     0     0     5
 IOp(28)                       1
                        1                       0
                        2                       1
                        3                       1
                        4                      20
                        5                       0
                        6                       0
                        7                      10
                        8                       1
                        9                       4
                       10                       0
                       11              1073741824
                       12                      20
                       13                       2
                       14                  131070
                       15                       1
                       16                       1
                       17                  131073
                       18                       0
                       19                       0
                       20                       0
                       21                       2
                       22                  131070
                       23                       0
                       24                       0
                       25                       0
                       26                       0
                       27                   65535
                       28                       2
                       29                  131072
                       30                       0
 IHMeth                       1
 ib3: ISMode =                        0                       4
 Enter DskPsm, NBasis=  10 NBas6D=  10 NShell=  10 IDoSP=4.
 Out2e will use a cutoff of  1.00D-10
 FoFCou: FMM=F IPFlag=           0 FMFlag=           0 FMFlg1=           0
         NFxFlg=           0 DoJE=F BraDBF=F KetDBF=F FulRan=T
         wScrn=  0.000000 ICntrl=     600 IOpCl=  9 I1Cent=           0 NGrid=           0
         NMat0=    0 NMatS0=      0 NMatT0=    0 NMatD0=    0 NMtDS0=    0 NMtDT0=    0
 Symmetry not used in FoFCou.
 Entering PrmDigJobTyp =                      20
 LenSav and NKeep                       0                       0
 Entered Stor2E with KNTT1,2                       2                  131070
 Leave Stor2X
 Entering PrmDigJobTyp =                      20
 LenSav and NKeep                       0                       0
 Entered Stor2E with KNTT1,2                       2                  131056
 Leave Stor2X
 Entering PrmDigJobTyp =                      20
 LenSav and NKeep                       0                       0
 Entered Stor2E with KNTT1,2                       2                  131042
 Leave Stor2X
 Entering PrmDigJobTyp =                      20
 LenSav and NKeep                       0                       0
 Entered Stor2E with KNTT1,2                       2                  131028
 Leave Stor2X
 Entering PrmDigJobTyp =                      20
 LenSav and NKeep                       0                       0
 Entered Stor2E with KNTT1,2                       2                  131014
 Leave Stor2X
 Entering PrmDigJobTyp =                      20
 LenSav and NKeep                       0                       0
 Entered Stor2E with KNTT1,2                       2                  131000
 Leave Stor2X
 Entering PrmDigJobTyp =                      20
 LenSav and NKeep                       0                       0
 Entered Stor2E with KNTT1,2                       2                  130986
 Leave Stor2X
 Entering PrmDigJobTyp =                      20
 LenSav and NKeep                       0                       0
 Entered Stor2E with KNTT1,2                       2                  130972
 Leave Stor2X
 Entering PrmDigJobTyp =                      20
 LenSav and NKeep                       0                       0
 Entered Stor2E with KNTT1,2                       2                  130960
 Leave Stor2X
 Entering PrmDigJobTyp =                      20
 LenSav and NKeep                       0                       0
 Entered Stor2E with KNTT1,2                       2                  130946
 Leave Stor2X
 Entering PrmDigJobTyp =                      20
 LenSav and NKeep                       0                       0
 Entered Stor2E with KNTT1,2                       2                  130932
 Leave Stor2X
 Entering PrmDigJobTyp =                      20
 LenSav and NKeep                       0                       0
 Entered Stor2E with KNTT1,2                       2                  130918
 Leave Stor2X
 Entering PrmDigJobTyp =                      20
 LenSav and NKeep                       0                       0
 Entered Stor2E with KNTT1,2                       2                  130904
 Leave Stor2X
 Entering PrmDigJobTyp =                      20
 LenSav and NKeep                       0                       0
 Entered Stor2E with KNTT1,2                       2                  130890
 Leave Stor2X
 Entering PrmDigJobTyp =                      20
 LenSav and NKeep                       0                       0
 Entered Stor2E with KNTT1,2                       2                  130876
 Leave Stor2X
 Entering PrmDigJobTyp =                      20
 LenSav and NKeep                       0                       0
 Entered Stor2E with KNTT1,2                       2                  130862
 Leave Stor2X
 Entering PrmDigJobTyp =                      20
 LenSav and NKeep                       0                       0
 Entered Stor2E with KNTT1,2                       2                  130848
 Leave Stor2X
 Entering PrmDigJobTyp =                      20
 LenSav and NKeep                       0                       0
 Entered Stor2E with KNTT1,2                       2                  130834
 Leave Stor2X
 Entering PrmDigJobTyp =                      20
 LenSav and NKeep                       0                       0
 Entered Stor2E with KNTT1,2                       2                  130820
 Leave Stor2X
 Entering PrmDigJobTyp =                      20
 LenSav and NKeep                       0                       0
 Entered Stor2E with KNTT1,2                       2                  130806
 Leave Stor2X
 Entering PrmDigJobTyp =                      20
 LenSav and NKeep                       0                       0
 Entered Stor2E with KNTT1,2                       2                  130792
 Leave Stor2X
 Entering PrmDigJobTyp =                      20
 LenSav and NKeep                       0                       0
 Entered Stor2E with KNTT1,2                       2                  130778
 Leave Stor2X
 Entering PrmDigJobTyp =                      20
 LenSav and NKeep                       0                       0
 Entered Stor2E with KNTT1,2                       2                  130764
 Leave Stor2X
 Entering PrmDigJobTyp =                      20
 LenSav and NKeep                       0                       0
 Entered Stor2E with KNTT1,2                       2                  130750
 Leave Stor2X
 Entering PrmDigJobTyp =                      20
 LenSav and NKeep                       0                       0
 Entered Stor2E with KNTT1,2                       2                  130736
 Leave Stor2X
 Entering PrmDigJobTyp =                      20
 LenSav and NKeep                       0                       0
 Entered Stor2E with KNTT1,2                       2                  130722
 Leave Stor2X
 Entering PrmDigJobTyp =                      20
 LenSav and NKeep                       0                       0
 Entered Stor2E with KNTT1,2                       2                  130708
 Leave Stor2X
 Entering PrmDigJobTyp =                      20
 LenSav and NKeep                       0                       0
 Entered Stor2E with KNTT1,2                       2                  130700
 Leave Stor2X
 Entering PrmDigJobTyp =                      20
 LenSav and NKeep                       0                       0
 Entered Stor2E with KNTT1,2                       6                  130684
 Leave Stor2X
 Entering PrmDigJobTyp =                      20
 LenSav and NKeep                       0                       0
 Entered Stor2E with KNTT1,2                      16                  130674
 Leave Stor2X
 Entering PrmDigJobTyp =                      20
 LenSav and NKeep                       0                       0
 Entered Stor2E with KNTT1,2                      28                  130666
 Leave Stor2X
 Entering PrmDigJobTyp =                      20
 LenSav and NKeep                       0                       0
 Entered Stor2E with KNTT1,2                      42                  130660
 Leave Stor2X
 Entering PrmDigJobTyp =                      20
 LenSav and NKeep                       0                       0
 Entered Stor2E with KNTT1,2                      56                  130654
 Leave Stor2X
 Entering PrmDigJobTyp =                      20
 LenSav and NKeep                       0                       0
 Entered Stor2E with KNTT1,2                      70                  130648
 Leave Stor2X
 Entering PrmDigJobTyp =                      20
 LenSav and NKeep                       0                       0
 Entered Stor2E with KNTT1,2                      84                  130642
 Leave Stor2X
 Entering PrmDigJobTyp =                      20
 LenSav and NKeep                       0                       0
 Entered Stor2E with KNTT1,2                      98                  130636
 Leave Stor2X
 Entering PrmDigJobTyp =                      20
 LenSav and NKeep                       0                       0
 Entered Stor2E with KNTT1,2                     114                  130632
 Leave Stor2X
 Entering PrmDigJobTyp =                      20
 LenSav and NKeep                       0                       0
 Entered Stor2E with KNTT1,2                     114                  130630
 Leave Stor2X
 Entering PrmDigJobTyp =                      20
 LenSav and NKeep                       0                       0
 Entered Stor2E with KNTT1,2                     114                  130612
 Leave Stor2X
 Entering PrmDigJobTyp =                      20
 LenSav and NKeep                       0                       0
 Entered Stor2E with KNTT1,2                     114                  130594
 Leave Stor2X
 Entering PrmDigJobTyp =                      20
 LenSav and NKeep                       0                       0
 Entered Stor2E with KNTT1,2                     114                  130576
 Leave Stor2X
 Entering PrmDigJobTyp =                      20
 LenSav and NKeep                       0                       0
 Entered Stor2E with KNTT1,2                     114                  130558
 Leave Stor2X
 Entering PrmDigJobTyp =                      20
 LenSav and NKeep                       0                       0
 Entered Stor2E with KNTT1,2                     114                  130550
 Leave Stor2X
 Entering PrmDigJobTyp =                      20
 LenSav and NKeep                       0                       0
 Entered Stor2E with KNTT1,2                     128                  130540
 Leave Stor2X
 Entering PrmDigJobTyp =                      20
 LenSav and NKeep                       0                       0
 Entered Stor2E with KNTT1,2                     140                  130528
 Leave Stor2X
 Entering PrmDigJobTyp =                      20
 LenSav and NKeep                       0                       0
 Entered Stor2E with KNTT1,2                     154                  130518
 Leave Stor2X
 Entering PrmDigJobTyp =                      20
 LenSav and NKeep                       0                       0
 Entered Stor2E with KNTT1,2                     174                  130514
 Leave Stor2X
 Entering PrmDigJobTyp =                      20
 LenSav and NKeep                       0                       0
 Entered Stor2E with KNTT1,2                     174                  130506
 Leave Stor2X
 Entering PrmDigJobTyp =                      20
 LenSav and NKeep                       0                       0
 Entered Stor2E with KNTT1,2                     186                  130498
 Leave Stor2X
 Entering PrmDigJobTyp =                      20
 LenSav and NKeep                       0                       0
 Entered Stor2E with KNTT1,2                     186                  130484
 Leave Stor2X
 Entering PrmDigJobTyp =                      20
 LenSav and NKeep                       0                       0
 Entered Stor2E with KNTT1,2                     186                  130470
 Leave Stor2X
 Entering PrmDigJobTyp =                      20
 LenSav and NKeep                       0                       0
 Entered Stor2E with KNTT1,2                     186                  130456
 Leave Stor2X
 Entering PrmDigJobTyp =                      20
 LenSav and NKeep                       0                       0
 Entered Stor2E with KNTT1,2                     186                  130442
 Leave Stor2X
 Entering PrmDigJobTyp =                      20
 LenSav and NKeep                       0                       0
 Entered Stor2E with KNTT1,2                     186                  130428
 Leave Stor2X
 Entering PrmDigJobTyp =                      20
 LenSav and NKeep                       0                       0
 Entered Stor2E with KNTT1,2                     186                  130418
 Leave Stor2X
 Entering PrmDigJobTyp =                      20
 LenSav and NKeep                       0                       0
 Entered Stor2E with KNTT1,2                     196                  130408
 Leave Stor2X
 Entering PrmDigJobTyp =                      20
 LenSav and NKeep                       0                       0
 Entered Stor2E with KNTT1,2                     206                  130398
 Leave Stor2X
 Entering PrmDigJobTyp =                      20
 LenSav and NKeep                       0                       0
 Entered Stor2E with KNTT1,2                     224                  130396
 Leave Stor2X
 Entering PrmDigJobTyp =                      20
 LenSav and NKeep                       0                       0
 Entered Stor2E with KNTT1,2                     232                  130384
 Leave Stor2X
 Entering PrmDigJobTyp =                      20
 LenSav and NKeep                       0                       0
 Entered Stor2E with KNTT1,2                     246                  130378
 Leave Stor2X
 Entering PrmDigJobTyp =                      20
 LenSav and NKeep                       0                       0
 Entered Stor2E with KNTT1,2                     246                  130374
 Leave Stor2X
 Entering PrmDigJobTyp =                      20
 LenSav and NKeep                       0                       0
 Entered Stor2E with KNTT1,2                     260                  130366
 Leave Stor2X
 Entering PrmDigJobTyp =                      20
 LenSav and NKeep                       0                       0
 Entered Stor2E with KNTT1,2                     266                  130362
 Leave Stor2X
 Entering PrmDigJobTyp =                      20
 LenSav and NKeep                       0                       0
 Entered Stor2E with KNTT1,2                     278                  130354
 Leave Stor2X
 Entering PrmDigJobTyp =                      20
 LenSav and NKeep                       0                       0
 Entered Stor2E with KNTT1,2                     278                  130336
 Leave Stor2X
 Entering PrmDigJobTyp =                      20
 LenSav and NKeep                       0                       0
 Entered Stor2E with KNTT1,2                     278                  130318
 Leave Stor2X
 Entering PrmDigJobTyp =                      20
 LenSav and NKeep                       0                       0
 Entered Stor2E with KNTT1,2                     278                  130300
 Leave Stor2X
 Entering PrmDigJobTyp =                      20
 LenSav and NKeep                       0                       0
 Entered Stor2E with KNTT1,2                     278                  130282
 Leave Stor2X
 Entering PrmDigJobTyp =                      20
 LenSav and NKeep                       0                       0
 Entered Stor2E with KNTT1,2                     278                  130264
 Leave Stor2X
 Entering PrmDigJobTyp =                      20
 LenSav and NKeep                       0                       0
 Entered Stor2E with KNTT1,2                     278                  130246
 Leave Stor2X
 Entering PrmDigJobTyp =                      20
 LenSav and NKeep                       0                       0
 Entered Stor2E with KNTT1,2                     278                  130234
 Leave Stor2X
 Entering PrmDigJobTyp =                      20
 LenSav and NKeep                       0                       0
 Entered Stor2E with KNTT1,2                     292                  130224
 Leave Stor2X
 Entering PrmDigJobTyp =                      20
 LenSav and NKeep                       0                       0
 Entered Stor2E with KNTT1,2                     306                  130214
 Leave Stor2X
 Entering PrmDigJobTyp =                      20
 LenSav and NKeep                       0                       0
 Entered Stor2E with KNTT1,2                     320                  130204
 Leave Stor2X
 Entering PrmDigJobTyp =                      20
 LenSav and NKeep                       0                       0
 Entered Stor2E with KNTT1,2                     334                  130194
 Leave Stor2X
 Entering PrmDigJobTyp =                      20
 LenSav and NKeep                       0                       0
 Entered Stor2E with KNTT1,2                     348                  130184
 Leave Stor2X
 Entering PrmDigJobTyp =                      20
 LenSav and NKeep                       0                       0
 Entered Stor2E with KNTT1,2                     364                  130176
 Leave Stor2X
 Entering PrmDigJobTyp =                      20
 LenSav and NKeep                       0                       0
 Entered Stor2E with KNTT1,2                     370                  130170
 Leave Stor2X
 Entering PrmDigJobTyp =                      20
 LenSav and NKeep                       0                       0
 Entered Stor2E with KNTT1,2                     388                  130158
 Leave Stor2X
 Entering PrmDigJobTyp =                      20
 LenSav and NKeep                       0                       0
 Entered Stor2E with KNTT1,2                     398                  130150
 Leave Stor2X
 Entering PrmDigJobTyp =                      20
 LenSav and NKeep                       0                       0
 Entered Stor2E with KNTT1,2                     412                  130140
 Leave Stor2X
 Entering PrmDigJobTyp =                      20
 LenSav and NKeep                       0                       0
 Entered Stor2E with KNTT1,2                     426                  130130
 Leave Stor2X
 Entering PrmDigJobTyp =                      20
 LenSav and NKeep                       0                       0
 Entered Stor2E with KNTT1,2                     446                  130118
 Leave Stor2X
 Entering PrmDigJobTyp =                      20
 LenSav and NKeep                       0                       0
 Entered Stor2E with KNTT1,2                     452                  130114
 Leave Stor2X
 Entering PrmDigJobTyp =                      20
 LenSav and NKeep                       0                       0
 Entered Stor2E with KNTT1,2                     452                  130092
 Leave Stor2X
 Entering PrmDigJobTyp =                      20
 LenSav and NKeep                       0                       0
 Entered Stor2E with KNTT1,2                     452                  130070
 Leave Stor2X
 Entering PrmDigJobTyp =                      20
 LenSav and NKeep                       0                       0
 Entered Stor2E with KNTT1,2                     452                  130048
 Leave Stor2X
 Entering PrmDigJobTyp =                      20
 LenSav and NKeep                       0                       0
 Entered Stor2E with KNTT1,2                     452                  130026
 Leave Stor2X
 Entering PrmDigJobTyp =                      20
 LenSav and NKeep                       0                       0
 Entered Stor2E with KNTT1,2                     452                  130004
 Leave Stor2X
 Entering PrmDigJobTyp =                      20
 LenSav and NKeep                       0                       0
 Entered Stor2E with KNTT1,2                     452                  129982
 Leave Stor2X
 Entering PrmDigJobTyp =                      20
 LenSav and NKeep                       0                       0
 Entered Stor2E with KNTT1,2                     452                  129974
 Leave Stor2X
 Entering PrmDigJobTyp =                      20
 LenSav and NKeep                       0                       0
 Entered Stor2E with KNTT1,2                     468                  129962
 Leave Stor2X
 Entering PrmDigJobTyp =                      20
 LenSav and NKeep                       0                       0
 Entered Stor2E with KNTT1,2                     488                  129954
 Leave Stor2X
 Entering PrmDigJobTyp =                      20
 LenSav and NKeep                       0                       0
 Entered Stor2E with KNTT1,2                     500                  129938
 Leave Stor2X
 Entering PrmDigJobTyp =                      20
 LenSav and NKeep                       0                       0
 Entered Stor2E with KNTT1,2                     518                  129928
 Leave Stor2X
 Entering PrmDigJobTyp =                      20
 LenSav and NKeep                       0                       0
 Entered Stor2E with KNTT1,2                     540                  129922
 Leave Stor2X
 Entering PrmDigJobTyp =                      20
 LenSav and NKeep                       0                       0
 Entered Stor2E with KNTT1,2                     552                  129906
 Leave Stor2X
 Entering PrmDigJobTyp =                      20
 LenSav and NKeep                       0                       0
 Entered Stor2E with KNTT1,2                     562                  129902
 Leave Stor2X
 Entering PrmDigJobTyp =                      20
 LenSav and NKeep                       0                       0
 Entered Stor2E with KNTT1,2                     580                  129886
 Leave Stor2X
 Entering PrmDigJobTyp =                      20
 LenSav and NKeep                       0                       0
 Entered Stor2E with KNTT1,2                     594                  129878
 Leave Stor2X
 Entering PrmDigJobTyp =                      20
 LenSav and NKeep                       0                       0
 Entered Stor2E with KNTT1,2                     612                  129868
 Leave Stor2X
 Entering PrmDigJobTyp =                      20
 LenSav and NKeep                       0                       0
 Entered Stor2E with KNTT1,2                     630                  129858
 Leave Stor2X
 Entering PrmDigJobTyp =                      20
 LenSav and NKeep                       0                       0
 Entered Stor2E with KNTT1,2                     652                  129844
 Leave Stor2X
 Entering PrmDigJobTyp =                      20
 LenSav and NKeep                       0                       0
 Entered Stor2E with KNTT1,2                     674                  129830
 Leave Stor2X
 Entering PrmDigJobTyp =                      20
 LenSav and NKeep                       0                       0
 Entered Stor2E with KNTT1,2                     682                  129826
 Leave Stor2X
 Entering PrmDigJobTyp =                      20
 LenSav and NKeep                       0                       0
 Entered Stor2E with KNTT1,2                     706                  129808
 Leave Stor2X
 Entering PrmDigJobTyp =                      20
 LenSav and NKeep                       0                       0
 Entered Stor2E with KNTT1,2                     716                  129804
 Leave Stor2X
 Entering PrmDigJobTyp =                      20
 LenSav and NKeep                       0                       0
 Entered Stor2E with KNTT1,2                     716                  129788
 Leave Stor2X
 Entering PrmDigJobTyp =                      20
 LenSav and NKeep                       0                       0
 Entered Stor2E with KNTT1,2                     716                  129772
 Leave Stor2X
 Entering PrmDigJobTyp =                      20
 LenSav and NKeep                       0                       0
 Entered Stor2E with KNTT1,2                     716                  129756
 Leave Stor2X
 Entering PrmDigJobTyp =                      20
 LenSav and NKeep                       0                       0
 Entered Stor2E with KNTT1,2                     716                  129744
 Leave Stor2X
 Entering PrmDigJobTyp =                      20
 LenSav and NKeep                       0                       0
 Entered Stor2E with KNTT1,2                     728                  129734
 Leave Stor2X
 Entering PrmDigJobTyp =                      20
 LenSav and NKeep                       0                       0
 Entered Stor2E with KNTT1,2                     742                  129726
 Leave Stor2X
 Entering PrmDigJobTyp =                      20
 LenSav and NKeep                       0                       0
 Entered Stor2E with KNTT1,2                     756                  129718
 Leave Stor2X
 Entering PrmDigJobTyp =                      20
 LenSav and NKeep                       0                       0
 Entered Stor2E with KNTT1,2                     762                  129712
 Leave Stor2X
 Entering PrmDigJobTyp =                      20
 LenSav and NKeep                       0                       0
 Entered Stor2E with KNTT1,2                     778                  129704
 Leave Stor2X
 Entering PrmDigJobTyp =                      20
 LenSav and NKeep                       0                       0
 Entered Stor2E with KNTT1,2                     790                  129694
 Leave Stor2X
 Entering PrmDigJobTyp =                      20
 LenSav and NKeep                       0                       0
 Entered Stor2E with KNTT1,2                     790                  129692
 Leave Stor2X
 Entering PrmDigJobTyp =                      20
 LenSav and NKeep                       0                       0
 Entered Stor2E with KNTT1,2                     806                  129680
 Leave Stor2X
 Entering PrmDigJobTyp =                      20
 LenSav and NKeep                       0                       0
 Entered Stor2E with KNTT1,2                     810                  129676
 Leave Stor2X
 Entering PrmDigJobTyp =                      20
 LenSav and NKeep                       0                       0
 Entered Stor2E with KNTT1,2                     834                  129666
 Leave Stor2X
 Entering PrmDigJobTyp =                      20
 LenSav and NKeep                       0                       0
 Entered Stor2E with KNTT1,2                     840                  129664
 Leave Stor2X
 Entering PrmDigJobTyp =                      20
 LenSav and NKeep                       0                       0
 Entered Stor2E with KNTT1,2                     846                  129658
 Leave Stor2X
 Entering PrmDigJobTyp =                      20
 LenSav and NKeep                       0                       0
 Entered Stor2E with KNTT1,2                     846                  129634
 Leave Stor2X
 Entering PrmDigJobTyp =                      20
 LenSav and NKeep                       0                       0
 Entered Stor2E with KNTT1,2                     846                  129618
 Leave Stor2X
 Entering PrmDigJobTyp =                      20
 LenSav and NKeep                       0                       0
 Entered Stor2E with KNTT1,2                     866                  129604
 Leave Stor2X
 Entering PrmDigJobTyp =                      20
 LenSav and NKeep                       0                       0
 Entered Stor2E with KNTT1,2                     878                  129598
 Leave Stor2X
 Entering PrmDigJobTyp =                      20
 LenSav and NKeep                       0                       0
 Entered Stor2E with KNTT1,2                     886                  129590
 Leave Stor2X
 Entering PrmDigJobTyp =                      20
 LenSav and NKeep                       0                       0
 Entered Stor2E with KNTT1,2                     898                  129586
 Leave Stor2X
 Entering PrmDigJobTyp =                      20
 LenSav and NKeep                       0                       0
 Entered Stor2E with KNTT1,2                     914                  129578
 Leave Stor2X
 Entering PrmDigJobTyp =                      20
 LenSav and NKeep                       0                       0
 Entered Stor2E with KNTT1,2                     926                  129562
 Leave Stor2X
 Entering PrmDigJobTyp =                      20
 LenSav and NKeep                       0                       0
 Entered Stor2E with KNTT1,2                     938                  129562
 Leave Stor2X
 Entering PrmDigJobTyp =                      20
 LenSav and NKeep                       0                       0
 Entered Stor2E with KNTT1,2                     940                  129558
 Leave Stor2X
 Entering PrmDigJobTyp =                      20
 LenSav and NKeep                       0                       0
 Entered Stor2E with KNTT1,2                     940                  129538
 Leave Stor2X
 Entering PrmDigJobTyp =                      20
 LenSav and NKeep                       0                       0
 Entered Stor2E with KNTT1,2                     940                  129518
 Leave Stor2X
 Entering PrmDigJobTyp =                      20
 LenSav and NKeep                       0                       0
 Entered Stor2E with KNTT1,2                     958                  129508
 Leave Stor2X
 Entering PrmDigJobTyp =                      20
 LenSav and NKeep                       0                       0
 Entered Stor2E with KNTT1,2                     972                  129498
 Leave Stor2X
 Entering PrmDigJobTyp =                      20
 LenSav and NKeep                       0                       0
 Entered Stor2E with KNTT1,2                     984                  129494
 Leave Stor2X
 Entering PrmDigJobTyp =                      20
 LenSav and NKeep                       0                       0
 Entered Stor2E with KNTT1,2                     992                  129486
 Leave Stor2X
 Entering PrmDigJobTyp =                      20
 LenSav and NKeep                       0                       0
 Entered Stor2E with KNTT1,2                    1008                  129478
 Leave Stor2X
 Entering PrmDigJobTyp =                      20
 LenSav and NKeep                       0                       0
 Entered Stor2E with KNTT1,2                    1028                  129470
 Leave Stor2X
 Entering PrmDigJobTyp =                      20
 LenSav and NKeep                       0                       0
 Entered Stor2E with KNTT1,2                    1032                  129462
 Leave Stor2X
 Entering PrmDigJobTyp =                      20
 LenSav and NKeep                       0                       0
 Entered Stor2E with KNTT1,2                    1040                  129462
 Leave Stor2X
 Entering PrmDigJobTyp =                      20
 LenSav and NKeep                       0                       0
 Entered Stor2E with KNTT1,2                    1042                  129458
 Leave Stor2X
 Entering PrmDigJobTyp =                      20
 LenSav and NKeep                       0                       0
 Entered Stor2E with KNTT1,2                    1042                  129430
 Leave Stor2X
 Entering PrmDigJobTyp =                      20
 LenSav and NKeep                       0                       0
 Entered Stor2E with KNTT1,2                    1042                  129418
 Leave Stor2X
 Entering PrmDigJobTyp =                      20
 LenSav and NKeep                       0                       0
 Entered Stor2E with KNTT1,2                    1066                  129406
 Leave Stor2X
 Entering PrmDigJobTyp =                      20
 LenSav and NKeep                       0                       0
 Entered Stor2E with KNTT1,2                    1078                  129402
 Leave Stor2X
 Entering PrmDigJobTyp =                      20
 LenSav and NKeep                       0                       0
 Entered Stor2E with KNTT1,2                    1090                  129398
 Leave Stor2X
 Entering PrmDigJobTyp =                      20
 LenSav and NKeep                       0                       0
 Entered Stor2E with KNTT1,2                    1102                  129394
 Leave Stor2X
 Entering PrmDigJobTyp =                      20
 LenSav and NKeep                       0                       0
 Entered Stor2E with KNTT1,2                    1118                  129386
 Leave Stor2X
 Entering PrmDigJobTyp =                      20
 LenSav and NKeep                       0                       0
 Entered Stor2E with KNTT1,2                    1134                  129374
 Leave Stor2X
 Entering PrmDigJobTyp =                      20
 LenSav and NKeep                       0                       0
 Entered Stor2E with KNTT1,2                    1142                  129370
 Leave Stor2X
 Entering PrmDigJobTyp =                      20
 LenSav and NKeep                       0                       0
 Entered Stor2E with KNTT1,2                    1146                  129366
 Leave Stor2X
 Entering PrmDigJobTyp =                      20
 LenSav and NKeep                       0                       0
 Entered Stor2E with KNTT1,2                    1150                  129362
 Leave Stor2X
 Entering PrmDigJobTyp =                      20
 LenSav and NKeep                       0                       0
 Entered Stor2E with KNTT1,2                    1152                  129358
 Leave Stor2X
 Entering PrmDigJobTyp =                      20
 LenSav and NKeep                       0                       0
 Entered Stor2E with KNTT1,2                    1152                  129338
 Leave Stor2X
 Entering PrmDigJobTyp =                      20
 LenSav and NKeep                       0                       0
 Entered Stor2E with KNTT1,2                    1170                  129330
 Leave Stor2X
 Entering PrmDigJobTyp =                      20
 LenSav and NKeep                       0                       0
 Entered Stor2E with KNTT1,2                    1174                  129326
 Leave Stor2X
 Entering PrmDigJobTyp =                      20
 LenSav and NKeep                       0                       0
 Entered Stor2E with KNTT1,2                    1182                  129326
 Leave Stor2X
 Entering PrmDigJobTyp =                      20
 LenSav and NKeep                       0                       0
 Entered Stor2E with KNTT1,2                    1190                  129322
 Leave Stor2X
 Entering PrmDigJobTyp =                      20
 LenSav and NKeep                       0                       0
 Entered Stor2E with KNTT1,2                    1196                  129314
 Leave Stor2X
 Entering PrmDigJobTyp =                      20
 LenSav and NKeep                       0                       0
 Entered Stor2E with KNTT1,2                    1202                  129314
 Leave Stor2X
 Entering PrmDigJobTyp =                      20
 LenSav and NKeep                       0                       0
 Entered Stor2E with KNTT1,2                    1202                  129310
 Leave Stor2X
 Entering PrmDigJobTyp =                      20
 LenSav and NKeep                       0                       0
 Entered Stor2E with KNTT1,2                    1206                  129310
 Leave Stor2X
 Entering PrmDigJobTyp =                      20
 LenSav and NKeep                       0                       0
 Entered Stor2E with KNTT1,2                    1206                  129306
 Leave Stor2X
 Entering PrmDigJobTyp =                      20
 LenSav and NKeep                       0                       0
 Entered Stor2E with KNTT1,2                    1206                  129304
 Leave Stor2X
 Entering PrmDigJobTyp =                      20
 LenSav and NKeep                       0                       0
 Entered Stor2E with KNTT1,2                    1206                  129284
 Leave Stor2X
 Entering PrmDigJobTyp =                      20
 LenSav and NKeep                       0                       0
 Entered Stor2E with KNTT1,2                    1224                  129276
 Leave Stor2X
 Entering PrmDigJobTyp =                      20
 LenSav and NKeep                       0                       0
 Entered Stor2E with KNTT1,2                    1232                  129276
 Leave Stor2X
 Entering PrmDigJobTyp =                      20
 LenSav and NKeep                       0                       0
 Entered Stor2E with KNTT1,2                    1236                  129272
 Leave Stor2X
 Entering PrmDigJobTyp =                      20
 LenSav and NKeep                       0                       0
 Entered Stor2E with KNTT1,2                    1244                  129268
 Leave Stor2X
 Entering PrmDigJobTyp =                      20
 LenSav and NKeep                       0                       0
 Entered Stor2E with KNTT1,2                    1254                  129264
 Leave Stor2X
 Entering PrmDigJobTyp =                      20
 LenSav and NKeep                       0                       0
 Entered Stor2E with KNTT1,2                    1256                  129260
 Leave Stor2X
 Entering PrmDigJobTyp =                      20
 LenSav and NKeep                       0                       0
 Entered Stor2E with KNTT1,2                    1260                  129260
 Leave Stor2X
 Entering PrmDigJobTyp =                      20
 LenSav and NKeep                       0                       0
 Entered Stor2E with KNTT1,2                    1260                  129256
 Leave Stor2X
 Entering PrmDigJobTyp =                      20
 LenSav and NKeep                       0                       0
 Entered Stor2E with KNTT1,2                    1260                  129252
 Leave Stor2X
 Entering PrmDigJobTyp =                      20
 LenSav and NKeep                       0                       0
 Entered Stor2E with KNTT1,2                    1262                  129252
 Leave Stor2X
 In PrSumR
 Called IWRITE
         1540 integrals produced for a total of         1540.
 Initial guess from the checkpoint file:  "h10.chk"
 B after Tr=     0.000000    0.000000    0.000000
         Rot=    0.759152    0.000000    0.000000    0.650913 Ang=  81.22 deg.
 Initial guess <Sx>= 0.0000 <Sy>= 0.0000 <Sz>= 0.0000 <S**2>= 0.0000 S= 0.0000
 Two-electron integrals will be kept in memory, NGetB=      152788.
 Requested convergence on RMS density matrix=1.00D-08 within 128 cycles.
 Requested convergence on MAX density matrix=1.00D-06.
 Requested convergence on             energy=1.00D-06.
 No special actions if energy rises.
 Density File Not Found. Continue as usual
 SCF Done:  E(GHF) =  -4.85356530406     A.U. after   12 cycles
            NFock= 12  Conv=0.36D-08     -V/T= 1.9693
 <Sx>= 0.0000 <Sy>= 0.0000 <Sz>= 0.0000 <S**2>= 0.0000 S= 0.0000
 <L.S>= 0.000000000000E+00
 Range of M.O.s used for correlation:     1    10
 NBasis=    10 NAE=    10 NBE=     0 NFC=     0 NFV=     0
 NROrb=     20 NOA=    10 NOB=     0 NVA=    10 NVB=     0
 jaja DoHack is true or false? T
 jaja in hckghf.F, NBasis=                      10
 jaja in hckGHF/FixOG, LC =                      800
 jaja in hckGHF/FixOG, IRwC=                      548
 bfr conversion (real):
                 1             2             3             4             5 
      1a  0.139634D+00  0.123246D-02 -0.308171D-01  0.252221D+00 -0.823036D-01
      1b -0.123246D-02  0.139634D+00  0.252221D+00  0.308171D-01  0.307709D+00
      2a  0.606624D-01  0.535429D-03 -0.184323D-01  0.150858D+00 -0.908235D-01
      2b -0.535429D-03  0.606624D-01  0.150858D+00  0.184323D-01  0.339562D+00
      3a  0.211389D+00  0.186580D-02 -0.229841D-01  0.188113D+00  0.523142D-01
      3b -0.186580D-02  0.211389D+00  0.188113D+00  0.229841D-01 -0.195587D+00
      4a  0.203197D+00  0.179350D-02 -0.361799D-01  0.296113D+00 -0.434306D-01
      4b -0.179350D-02  0.203197D+00  0.296113D+00  0.361799D-01  0.162374D+00
      5a  0.195340D+00  0.172415D-02  0.117648D-01 -0.962887D-01  0.799279D-01
      5b -0.172415D-02  0.195340D+00 -0.962887D-01 -0.117648D-01 -0.298827D+00
      6a  0.195340D+00  0.172415D-02 -0.117648D-01  0.962887D-01  0.799279D-01
      6b -0.172415D-02  0.195340D+00  0.962887D-01  0.117648D-01 -0.298827D+00
      7a  0.203197D+00  0.179350D-02  0.361799D-01 -0.296113D+00 -0.434306D-01
      7b -0.179350D-02  0.203197D+00 -0.296113D+00 -0.361799D-01  0.162374D+00
      8a  0.211389D+00  0.186580D-02  0.229841D-01 -0.188113D+00  0.523142D-01
      8b -0.186580D-02  0.211389D+00 -0.188113D+00 -0.229841D-01 -0.195587D+00
      9a  0.606624D-01  0.535429D-03  0.184323D-01 -0.150858D+00 -0.908235D-01
      9b -0.535429D-03  0.606624D-01 -0.150858D+00 -0.184323D-01  0.339562D+00
     10a  0.139634D+00  0.123246D-02  0.308171D-01 -0.252221D+00 -0.823036D-01
     10b -0.123246D-02  0.139634D+00 -0.252221D+00 -0.308171D-01  0.307709D+00
                 6             7             8             9            10 
      1a  0.307709D+00 -0.934344D-01 -0.293357D-01  0.362198D+00 -0.386343D-01
      1b  0.823036D-01  0.293357D-01 -0.934344D-01  0.386343D-01  0.362198D+00
      2a  0.339562D+00 -0.532064D+00 -0.167053D+00  0.819140D-01 -0.873745D-02
      2b  0.908235D-01  0.167053D+00 -0.532064D+00  0.873745D-02  0.819140D-01
      3a -0.195587D+00  0.579234D+00  0.181863D+00  0.307263D+00 -0.327746D-01
      3b -0.523142D-01 -0.181863D+00  0.579234D+00  0.327746D-01  0.307263D+00
      4a  0.162374D+00  0.653349D-01  0.205133D-01 -0.417785D+00  0.445636D-01
      4b  0.434306D-01 -0.205133D-01  0.653349D-01 -0.445636D-01 -0.417785D+00
      5a -0.298827D+00 -0.161958D+00 -0.508502D-01  0.619878D+00 -0.661200D-01
      5b -0.799279D-01  0.508502D-01 -0.161958D+00  0.661200D-01  0.619878D+00
      6a -0.298827D+00  0.161958D+00  0.508502D-01 -0.619878D+00  0.661200D-01
      6b -0.799279D-01 -0.508502D-01  0.161958D+00 -0.661200D-01 -0.619878D+00
      7a  0.162374D+00 -0.653349D-01 -0.205133D-01  0.417785D+00 -0.445636D-01
      7b  0.434306D-01  0.205133D-01 -0.653349D-01  0.445636D-01  0.417785D+00
      8a -0.195587D+00 -0.579234D+00 -0.181863D+00 -0.307263D+00  0.327746D-01
      8b -0.523142D-01  0.181863D+00 -0.579234D+00 -0.327746D-01 -0.307263D+00
      9a  0.339562D+00  0.532064D+00  0.167053D+00 -0.819140D-01  0.873745D-02
      9b  0.908235D-01 -0.167053D+00  0.532064D+00 -0.873745D-02 -0.819140D-01
     10a  0.307709D+00  0.934344D-01  0.293357D-01 -0.362198D+00  0.386343D-01
     10b  0.823036D-01 -0.293357D-01  0.934344D-01 -0.386343D-01 -0.362198D+00
                11            12            13            14            15 
      1a -0.409230D+00  0.535347D+00 -0.665904D-02  0.346771D-02 -0.589454D-01
      1b  0.535347D+00  0.409230D+00 -0.346771D-02 -0.665904D-02  0.887957D+00
      2a  0.261024D+00 -0.341466D+00 -0.587514D+00  0.305950D+00  0.345688D-01
      2b -0.341466D+00 -0.261024D+00 -0.305950D+00 -0.587514D+00 -0.520746D+00
      3a -0.216626D+00  0.283385D+00 -0.196869D+00  0.102520D+00  0.392801D-01
      3b  0.283385D+00  0.216626D+00 -0.102520D+00 -0.196869D+00 -0.591718D+00
      4a  0.221442D+00 -0.289686D+00  0.822210D+00 -0.428169D+00  0.104693D-01
      4b -0.289686D+00 -0.221442D+00  0.428169D+00  0.822210D+00 -0.157710D+00
      5a  0.185364D+00 -0.242489D+00 -0.228279D+00  0.118877D+00  0.188896D-01
      5b -0.242489D+00 -0.185364D+00 -0.118877D+00 -0.228279D+00 -0.284554D+00
      6a  0.185364D+00 -0.242489D+00 -0.228279D+00  0.118877D+00 -0.188896D-01
      6b -0.242489D+00 -0.185364D+00 -0.118877D+00 -0.228279D+00  0.284554D+00
      7a  0.221442D+00 -0.289686D+00  0.822210D+00 -0.428169D+00 -0.104693D-01
      7b -0.289686D+00 -0.221442D+00  0.428169D+00  0.822210D+00  0.157710D+00
      8a -0.216626D+00  0.283385D+00 -0.196869D+00  0.102520D+00 -0.392801D-01
      8b  0.283385D+00  0.216626D+00 -0.102520D+00 -0.196869D+00  0.591718D+00
      9a  0.261024D+00 -0.341466D+00 -0.587514D+00  0.305950D+00 -0.345688D-01
      9b -0.341466D+00 -0.261024D+00 -0.305950D+00 -0.587514D+00  0.520746D+00
     10a -0.409230D+00  0.535347D+00 -0.665904D-02  0.346771D-02  0.589454D-01
     10b  0.535347D+00  0.409230D+00 -0.346771D-02 -0.665904D-02 -0.887957D+00
                16            17            18            19            20 
      1a  0.887957D+00  0.268864D-03 -0.658687D-01  0.000000D+00 -0.683076D+00
      1b  0.589454D-01 -0.658687D-01 -0.268864D-03 -0.683076D+00  0.000000D+00
      2a -0.520746D+00  0.179478D-02 -0.439702D+00  0.000000D+00  0.218725D+00
      2b -0.345688D-01 -0.439702D+00 -0.179478D-02  0.218725D+00  0.000000D+00
      3a -0.591718D+00  0.157905D-02 -0.386850D+00  0.000000D+00  0.110780D+01
      3b -0.392801D-01 -0.386850D+00 -0.157905D-02  0.110780D+01  0.000000D+00
      4a -0.157710D+00 -0.398380D-02  0.975987D+00  0.000000D+00  0.225587D+00
      4b -0.104693D-01  0.975987D+00  0.398380D-02  0.225587D+00  0.000000D+00
      5a -0.284554D+00 -0.392293D-02  0.961075D+00  0.000000D+00 -0.883480D+00
      5b -0.188896D-01  0.961075D+00  0.392293D-02 -0.883480D+00  0.000000D+00
      6a  0.284554D+00  0.392293D-02 -0.961075D+00  0.000000D+00 -0.883480D+00
      6b  0.188896D-01 -0.961075D+00 -0.392293D-02 -0.883480D+00  0.000000D+00
      7a  0.157710D+00  0.398380D-02 -0.975987D+00  0.000000D+00  0.225587D+00
      7b  0.104693D-01 -0.975987D+00 -0.398380D-02  0.225587D+00  0.000000D+00
      8a  0.591718D+00 -0.157905D-02  0.386850D+00  0.000000D+00  0.110780D+01
      8b  0.392801D-01  0.386850D+00  0.157905D-02  0.110780D+01  0.000000D+00
      9a  0.520746D+00 -0.179478D-02  0.439702D+00  0.000000D+00  0.218725D+00
      9b  0.345688D-01  0.439702D+00  0.179478D-02  0.218725D+00  0.000000D+00
     10a -0.887957D+00 -0.268864D-03  0.658687D-01  0.000000D+00 -0.683076D+00
     10b -0.589454D-01  0.658687D-01  0.268864D-03 -0.683076D+00  0.000000D+00
 bfr conversion (imaginary):
                 1             2             3             4             5 
      1a  0.000000D+00  0.000000D+00  0.000000D+00  0.000000D+00  0.000000D+00
      1b  0.000000D+00  0.000000D+00  0.000000D+00  0.000000D+00  0.000000D+00
      2a  0.000000D+00  0.000000D+00  0.000000D+00  0.000000D+00  0.000000D+00
      2b  0.000000D+00  0.000000D+00  0.000000D+00  0.000000D+00  0.000000D+00
      3a  0.000000D+00  0.000000D+00  0.000000D+00  0.000000D+00  0.000000D+00
      3b  0.000000D+00  0.000000D+00  0.000000D+00  0.000000D+00  0.000000D+00
      4a  0.000000D+00  0.000000D+00  0.000000D+00  0.000000D+00  0.000000D+00
      4b  0.000000D+00  0.000000D+00  0.000000D+00  0.000000D+00  0.000000D+00
      5a  0.000000D+00  0.000000D+00  0.000000D+00  0.000000D+00  0.000000D+00
      5b  0.000000D+00  0.000000D+00  0.000000D+00  0.000000D+00  0.000000D+00
      6a  0.000000D+00  0.000000D+00  0.000000D+00  0.000000D+00  0.000000D+00
      6b  0.000000D+00  0.000000D+00  0.000000D+00  0.000000D+00  0.000000D+00
      7a  0.000000D+00  0.000000D+00  0.000000D+00  0.000000D+00  0.000000D+00
      7b  0.000000D+00  0.000000D+00  0.000000D+00  0.000000D+00  0.000000D+00
      8a  0.000000D+00  0.000000D+00  0.000000D+00  0.000000D+00  0.000000D+00
      8b  0.000000D+00  0.000000D+00  0.000000D+00  0.000000D+00  0.000000D+00
      9a  0.000000D+00  0.000000D+00  0.000000D+00  0.000000D+00  0.000000D+00
      9b  0.000000D+00  0.000000D+00  0.000000D+00  0.000000D+00  0.000000D+00
     10a  0.000000D+00  0.000000D+00  0.000000D+00  0.000000D+00  0.000000D+00
     10b  0.000000D+00  0.000000D+00  0.000000D+00  0.000000D+00  0.000000D+00
                 6             7             8             9            10 
      1a  0.000000D+00  0.000000D+00  0.000000D+00  0.000000D+00  0.000000D+00
      1b  0.000000D+00  0.000000D+00  0.000000D+00  0.000000D+00  0.000000D+00
      2a  0.000000D+00  0.000000D+00  0.000000D+00  0.000000D+00  0.000000D+00
      2b  0.000000D+00  0.000000D+00  0.000000D+00  0.000000D+00  0.000000D+00
      3a  0.000000D+00  0.000000D+00  0.000000D+00  0.000000D+00  0.000000D+00
      3b  0.000000D+00  0.000000D+00  0.000000D+00  0.000000D+00  0.000000D+00
      4a  0.000000D+00  0.000000D+00  0.000000D+00  0.000000D+00  0.000000D+00
      4b  0.000000D+00  0.000000D+00  0.000000D+00  0.000000D+00  0.000000D+00
      5a  0.000000D+00  0.000000D+00  0.000000D+00  0.000000D+00  0.000000D+00
      5b  0.000000D+00  0.000000D+00  0.000000D+00  0.000000D+00  0.000000D+00
      6a  0.000000D+00  0.000000D+00  0.000000D+00  0.000000D+00  0.000000D+00
      6b  0.000000D+00  0.000000D+00  0.000000D+00  0.000000D+00  0.000000D+00
      7a  0.000000D+00  0.000000D+00  0.000000D+00  0.000000D+00  0.000000D+00
      7b  0.000000D+00  0.000000D+00  0.000000D+00  0.000000D+00  0.000000D+00
      8a  0.000000D+00  0.000000D+00  0.000000D+00  0.000000D+00  0.000000D+00
      8b  0.000000D+00  0.000000D+00  0.000000D+00  0.000000D+00  0.000000D+00
      9a  0.000000D+00  0.000000D+00  0.000000D+00  0.000000D+00  0.000000D+00
      9b  0.000000D+00  0.000000D+00  0.000000D+00  0.000000D+00  0.000000D+00
     10a  0.000000D+00  0.000000D+00  0.000000D+00  0.000000D+00  0.000000D+00
     10b  0.000000D+00  0.000000D+00  0.000000D+00  0.000000D+00  0.000000D+00
                11            12            13            14            15 
      1a  0.000000D+00  0.000000D+00  0.000000D+00  0.000000D+00  0.000000D+00
      1b  0.000000D+00  0.000000D+00  0.000000D+00  0.000000D+00  0.000000D+00
      2a  0.000000D+00  0.000000D+00  0.000000D+00  0.000000D+00  0.000000D+00
      2b  0.000000D+00  0.000000D+00  0.000000D+00  0.000000D+00  0.000000D+00
      3a  0.000000D+00  0.000000D+00  0.000000D+00  0.000000D+00  0.000000D+00
      3b  0.000000D+00  0.000000D+00  0.000000D+00  0.000000D+00  0.000000D+00
      4a  0.000000D+00  0.000000D+00  0.000000D+00  0.000000D+00  0.000000D+00
      4b  0.000000D+00  0.000000D+00  0.000000D+00  0.000000D+00  0.000000D+00
      5a  0.000000D+00  0.000000D+00  0.000000D+00  0.000000D+00  0.000000D+00
      5b  0.000000D+00  0.000000D+00  0.000000D+00  0.000000D+00  0.000000D+00
      6a  0.000000D+00  0.000000D+00  0.000000D+00  0.000000D+00  0.000000D+00
      6b  0.000000D+00  0.000000D+00  0.000000D+00  0.000000D+00  0.000000D+00
      7a  0.000000D+00  0.000000D+00  0.000000D+00  0.000000D+00  0.000000D+00
      7b  0.000000D+00  0.000000D+00  0.000000D+00  0.000000D+00  0.000000D+00
      8a  0.000000D+00  0.000000D+00  0.000000D+00  0.000000D+00  0.000000D+00
      8b  0.000000D+00  0.000000D+00  0.000000D+00  0.000000D+00  0.000000D+00
      9a  0.000000D+00  0.000000D+00  0.000000D+00  0.000000D+00  0.000000D+00
      9b  0.000000D+00  0.000000D+00  0.000000D+00  0.000000D+00  0.000000D+00
     10a  0.000000D+00  0.000000D+00  0.000000D+00  0.000000D+00  0.000000D+00
     10b  0.000000D+00  0.000000D+00  0.000000D+00  0.000000D+00  0.000000D+00
                16            17            18            19            20 
      1a  0.000000D+00  0.000000D+00  0.000000D+00  0.000000D+00  0.000000D+00
      1b  0.000000D+00  0.000000D+00  0.000000D+00  0.000000D+00  0.000000D+00
      2a  0.000000D+00  0.000000D+00  0.000000D+00  0.000000D+00  0.000000D+00
      2b  0.000000D+00  0.000000D+00  0.000000D+00  0.000000D+00  0.000000D+00
      3a  0.000000D+00  0.000000D+00  0.000000D+00  0.000000D+00  0.000000D+00
      3b  0.000000D+00  0.000000D+00  0.000000D+00  0.000000D+00  0.000000D+00
      4a  0.000000D+00  0.000000D+00  0.000000D+00  0.000000D+00  0.000000D+00
      4b  0.000000D+00  0.000000D+00  0.000000D+00  0.000000D+00  0.000000D+00
      5a  0.000000D+00  0.000000D+00  0.000000D+00  0.000000D+00  0.000000D+00
      5b  0.000000D+00  0.000000D+00  0.000000D+00  0.000000D+00  0.000000D+00
      6a  0.000000D+00  0.000000D+00  0.000000D+00  0.000000D+00  0.000000D+00
      6b  0.000000D+00  0.000000D+00  0.000000D+00  0.000000D+00  0.000000D+00
      7a  0.000000D+00  0.000000D+00  0.000000D+00  0.000000D+00  0.000000D+00
      7b  0.000000D+00  0.000000D+00  0.000000D+00  0.000000D+00  0.000000D+00
      8a  0.000000D+00  0.000000D+00  0.000000D+00  0.000000D+00  0.000000D+00
      8b  0.000000D+00  0.000000D+00  0.000000D+00  0.000000D+00  0.000000D+00
      9a  0.000000D+00  0.000000D+00  0.000000D+00  0.000000D+00  0.000000D+00
      9b  0.000000D+00  0.000000D+00  0.000000D+00  0.000000D+00  0.000000D+00
     10a  0.000000D+00  0.000000D+00  0.000000D+00  0.000000D+00  0.000000D+00
     10b  0.000000D+00  0.000000D+00  0.000000D+00  0.000000D+00  0.000000D+00
 afr conversion (alpha, real):
                 1             2             3             4             5 
      1   0.139634D+00  0.123246D-02 -0.308171D-01  0.252221D+00 -0.823036D-01
      2   0.606624D-01  0.535429D-03 -0.184323D-01  0.150858D+00 -0.908235D-01
      3   0.211389D+00  0.186580D-02 -0.229841D-01  0.188113D+00  0.523142D-01
      4   0.203197D+00  0.179350D-02 -0.361799D-01  0.296113D+00 -0.434306D-01
      5   0.195340D+00  0.172415D-02  0.117648D-01 -0.962887D-01  0.799279D-01
      6   0.195340D+00  0.172415D-02 -0.117648D-01  0.962887D-01  0.799279D-01
      7   0.203197D+00  0.179350D-02  0.361799D-01 -0.296113D+00 -0.434306D-01
      8   0.211389D+00  0.186580D-02  0.229841D-01 -0.188113D+00  0.523142D-01
      9   0.606624D-01  0.535429D-03  0.184323D-01 -0.150858D+00 -0.908235D-01
     10   0.139634D+00  0.123246D-02  0.308171D-01 -0.252221D+00 -0.823036D-01
                 6             7             8             9            10 
      1   0.307709D+00 -0.934344D-01 -0.293357D-01  0.362198D+00 -0.386343D-01
      2   0.339562D+00 -0.532064D+00 -0.167053D+00  0.819140D-01 -0.873745D-02
      3  -0.195587D+00  0.579234D+00  0.181863D+00  0.307263D+00 -0.327746D-01
      4   0.162374D+00  0.653349D-01  0.205133D-01 -0.417785D+00  0.445636D-01
      5  -0.298827D+00 -0.161958D+00 -0.508502D-01  0.619878D+00 -0.661200D-01
      6  -0.298827D+00  0.161958D+00  0.508502D-01 -0.619878D+00  0.661200D-01
      7   0.162374D+00 -0.653349D-01 -0.205133D-01  0.417785D+00 -0.445636D-01
      8  -0.195587D+00 -0.579234D+00 -0.181863D+00 -0.307263D+00  0.327746D-01
      9   0.339562D+00  0.532064D+00  0.167053D+00 -0.819140D-01  0.873745D-02
     10   0.307709D+00  0.934344D-01  0.293357D-01 -0.362198D+00  0.386343D-01
                11            12            13            14            15 
      1  -0.409230D+00  0.535347D+00 -0.665904D-02  0.346771D-02 -0.589454D-01
      2   0.261024D+00 -0.341466D+00 -0.587514D+00  0.305950D+00  0.345688D-01
      3  -0.216626D+00  0.283385D+00 -0.196869D+00  0.102520D+00  0.392801D-01
      4   0.221442D+00 -0.289686D+00  0.822210D+00 -0.428169D+00  0.104693D-01
      5   0.185364D+00 -0.242489D+00 -0.228279D+00  0.118877D+00  0.188896D-01
      6   0.185364D+00 -0.242489D+00 -0.228279D+00  0.118877D+00 -0.188896D-01
      7   0.221442D+00 -0.289686D+00  0.822210D+00 -0.428169D+00 -0.104693D-01
      8  -0.216626D+00  0.283385D+00 -0.196869D+00  0.102520D+00 -0.392801D-01
      9   0.261024D+00 -0.341466D+00 -0.587514D+00  0.305950D+00 -0.345688D-01
     10  -0.409230D+00  0.535347D+00 -0.665904D-02  0.346771D-02  0.589454D-01
                16            17            18            19            20 
      1   0.887957D+00  0.268864D-03 -0.658687D-01  0.000000D+00 -0.683076D+00
      2  -0.520746D+00  0.179478D-02 -0.439702D+00  0.000000D+00  0.218725D+00
      3  -0.591718D+00  0.157905D-02 -0.386850D+00  0.000000D+00  0.110780D+01
      4  -0.157710D+00 -0.398380D-02  0.975987D+00  0.000000D+00  0.225587D+00
      5  -0.284554D+00 -0.392293D-02  0.961075D+00  0.000000D+00 -0.883480D+00
      6   0.284554D+00  0.392293D-02 -0.961075D+00  0.000000D+00 -0.883480D+00
      7   0.157710D+00  0.398380D-02 -0.975987D+00  0.000000D+00  0.225587D+00
      8   0.591718D+00 -0.157905D-02  0.386850D+00  0.000000D+00  0.110780D+01
      9   0.520746D+00 -0.179478D-02  0.439702D+00  0.000000D+00  0.218725D+00
     10  -0.887957D+00 -0.268864D-03  0.658687D-01  0.000000D+00 -0.683076D+00
 afr conversion (alpha, imaginary):
                 1             2             3             4             5 
      1   0.000000D+00  0.000000D+00  0.000000D+00  0.000000D+00  0.000000D+00
      2   0.000000D+00  0.000000D+00  0.000000D+00  0.000000D+00  0.000000D+00
      3   0.000000D+00  0.000000D+00  0.000000D+00  0.000000D+00  0.000000D+00
      4   0.000000D+00  0.000000D+00  0.000000D+00  0.000000D+00  0.000000D+00
      5   0.000000D+00  0.000000D+00  0.000000D+00  0.000000D+00  0.000000D+00
      6   0.000000D+00  0.000000D+00  0.000000D+00  0.000000D+00  0.000000D+00
      7   0.000000D+00  0.000000D+00  0.000000D+00  0.000000D+00  0.000000D+00
      8   0.000000D+00  0.000000D+00  0.000000D+00  0.000000D+00  0.000000D+00
      9   0.000000D+00  0.000000D+00  0.000000D+00  0.000000D+00  0.000000D+00
     10   0.000000D+00  0.000000D+00  0.000000D+00  0.000000D+00  0.000000D+00
                 6             7             8             9            10 
      1   0.000000D+00  0.000000D+00  0.000000D+00  0.000000D+00  0.000000D+00
      2   0.000000D+00  0.000000D+00  0.000000D+00  0.000000D+00  0.000000D+00
      3   0.000000D+00  0.000000D+00  0.000000D+00  0.000000D+00  0.000000D+00
      4   0.000000D+00  0.000000D+00  0.000000D+00  0.000000D+00  0.000000D+00
      5   0.000000D+00  0.000000D+00  0.000000D+00  0.000000D+00  0.000000D+00
      6   0.000000D+00  0.000000D+00  0.000000D+00  0.000000D+00  0.000000D+00
      7   0.000000D+00  0.000000D+00  0.000000D+00  0.000000D+00  0.000000D+00
      8   0.000000D+00  0.000000D+00  0.000000D+00  0.000000D+00  0.000000D+00
      9   0.000000D+00  0.000000D+00  0.000000D+00  0.000000D+00  0.000000D+00
     10   0.000000D+00  0.000000D+00  0.000000D+00  0.000000D+00  0.000000D+00
                11            12            13            14            15 
      1   0.000000D+00  0.000000D+00  0.000000D+00  0.000000D+00  0.000000D+00
      2   0.000000D+00  0.000000D+00  0.000000D+00  0.000000D+00  0.000000D+00
      3   0.000000D+00  0.000000D+00  0.000000D+00  0.000000D+00  0.000000D+00
      4   0.000000D+00  0.000000D+00  0.000000D+00  0.000000D+00  0.000000D+00
      5   0.000000D+00  0.000000D+00  0.000000D+00  0.000000D+00  0.000000D+00
      6   0.000000D+00  0.000000D+00  0.000000D+00  0.000000D+00  0.000000D+00
      7   0.000000D+00  0.000000D+00  0.000000D+00  0.000000D+00  0.000000D+00
      8   0.000000D+00  0.000000D+00  0.000000D+00  0.000000D+00  0.000000D+00
      9   0.000000D+00  0.000000D+00  0.000000D+00  0.000000D+00  0.000000D+00
     10   0.000000D+00  0.000000D+00  0.000000D+00  0.000000D+00  0.000000D+00
                16            17            18            19            20 
      1   0.000000D+00  0.000000D+00  0.000000D+00  0.000000D+00  0.000000D+00
      2   0.000000D+00  0.000000D+00  0.000000D+00  0.000000D+00  0.000000D+00
      3   0.000000D+00  0.000000D+00  0.000000D+00  0.000000D+00  0.000000D+00
      4   0.000000D+00  0.000000D+00  0.000000D+00  0.000000D+00  0.000000D+00
      5   0.000000D+00  0.000000D+00  0.000000D+00  0.000000D+00  0.000000D+00
      6   0.000000D+00  0.000000D+00  0.000000D+00  0.000000D+00  0.000000D+00
      7   0.000000D+00  0.000000D+00  0.000000D+00  0.000000D+00  0.000000D+00
      8   0.000000D+00  0.000000D+00  0.000000D+00  0.000000D+00  0.000000D+00
      9   0.000000D+00  0.000000D+00  0.000000D+00  0.000000D+00  0.000000D+00
     10   0.000000D+00  0.000000D+00  0.000000D+00  0.000000D+00  0.000000D+00
 afr conversion (beta, real):
                 1             2             3             4             5 
      1  -0.123246D-02  0.139634D+00  0.252221D+00  0.308171D-01  0.307709D+00
      2  -0.535429D-03  0.606624D-01  0.150858D+00  0.184323D-01  0.339562D+00
      3  -0.186580D-02  0.211389D+00  0.188113D+00  0.229841D-01 -0.195587D+00
      4  -0.179350D-02  0.203197D+00  0.296113D+00  0.361799D-01  0.162374D+00
      5  -0.172415D-02  0.195340D+00 -0.962887D-01 -0.117648D-01 -0.298827D+00
      6  -0.172415D-02  0.195340D+00  0.962887D-01  0.117648D-01 -0.298827D+00
      7  -0.179350D-02  0.203197D+00 -0.296113D+00 -0.361799D-01  0.162374D+00
      8  -0.186580D-02  0.211389D+00 -0.188113D+00 -0.229841D-01 -0.195587D+00
      9  -0.535429D-03  0.606624D-01 -0.150858D+00 -0.184323D-01  0.339562D+00
     10  -0.123246D-02  0.139634D+00 -0.252221D+00 -0.308171D-01  0.307709D+00
                 6             7             8             9            10 
      1   0.823036D-01  0.293357D-01 -0.934344D-01  0.386343D-01  0.362198D+00
      2   0.908235D-01  0.167053D+00 -0.532064D+00  0.873745D-02  0.819140D-01
      3  -0.523142D-01 -0.181863D+00  0.579234D+00  0.327746D-01  0.307263D+00
      4   0.434306D-01 -0.205133D-01  0.653349D-01 -0.445636D-01 -0.417785D+00
      5  -0.799279D-01  0.508502D-01 -0.161958D+00  0.661200D-01  0.619878D+00
      6  -0.799279D-01 -0.508502D-01  0.161958D+00 -0.661200D-01 -0.619878D+00
      7   0.434306D-01  0.205133D-01 -0.653349D-01  0.445636D-01  0.417785D+00
      8  -0.523142D-01  0.181863D+00 -0.579234D+00 -0.327746D-01 -0.307263D+00
      9   0.908235D-01 -0.167053D+00  0.532064D+00 -0.873745D-02 -0.819140D-01
     10   0.823036D-01 -0.293357D-01  0.934344D-01 -0.386343D-01 -0.362198D+00
                11            12            13            14            15 
      1   0.535347D+00  0.409230D+00 -0.346771D-02 -0.665904D-02  0.887957D+00
      2  -0.341466D+00 -0.261024D+00 -0.305950D+00 -0.587514D+00 -0.520746D+00
      3   0.283385D+00  0.216626D+00 -0.102520D+00 -0.196869D+00 -0.591718D+00
      4  -0.289686D+00 -0.221442D+00  0.428169D+00  0.822210D+00 -0.157710D+00
      5  -0.242489D+00 -0.185364D+00 -0.118877D+00 -0.228279D+00 -0.284554D+00
      6  -0.242489D+00 -0.185364D+00 -0.118877D+00 -0.228279D+00  0.284554D+00
      7  -0.289686D+00 -0.221442D+00  0.428169D+00  0.822210D+00  0.157710D+00
      8   0.283385D+00  0.216626D+00 -0.102520D+00 -0.196869D+00  0.591718D+00
      9  -0.341466D+00 -0.261024D+00 -0.305950D+00 -0.587514D+00  0.520746D+00
     10   0.535347D+00  0.409230D+00 -0.346771D-02 -0.665904D-02 -0.887957D+00
                16            17            18            19            20 
      1   0.589454D-01 -0.658687D-01 -0.268864D-03 -0.683076D+00  0.000000D+00
      2  -0.345688D-01 -0.439702D+00 -0.179478D-02  0.218725D+00  0.000000D+00
      3  -0.392801D-01 -0.386850D+00 -0.157905D-02  0.110780D+01  0.000000D+00
      4  -0.104693D-01  0.975987D+00  0.398380D-02  0.225587D+00  0.000000D+00
      5  -0.188896D-01  0.961075D+00  0.392293D-02 -0.883480D+00  0.000000D+00
      6   0.188896D-01 -0.961075D+00 -0.392293D-02 -0.883480D+00  0.000000D+00
      7   0.104693D-01 -0.975987D+00 -0.398380D-02  0.225587D+00  0.000000D+00
      8   0.392801D-01  0.386850D+00  0.157905D-02  0.110780D+01  0.000000D+00
      9   0.345688D-01  0.439702D+00  0.179478D-02  0.218725D+00  0.000000D+00
     10  -0.589454D-01  0.658687D-01  0.268864D-03 -0.683076D+00  0.000000D+00
 afr conversion (beta, imaginary):
                 1             2             3             4             5 
      1   0.000000D+00  0.000000D+00  0.000000D+00  0.000000D+00  0.000000D+00
      2   0.000000D+00  0.000000D+00  0.000000D+00  0.000000D+00  0.000000D+00
      3   0.000000D+00  0.000000D+00  0.000000D+00  0.000000D+00  0.000000D+00
      4   0.000000D+00  0.000000D+00  0.000000D+00  0.000000D+00  0.000000D+00
      5   0.000000D+00  0.000000D+00  0.000000D+00  0.000000D+00  0.000000D+00
      6   0.000000D+00  0.000000D+00  0.000000D+00  0.000000D+00  0.000000D+00
      7   0.000000D+00  0.000000D+00  0.000000D+00  0.000000D+00  0.000000D+00
      8   0.000000D+00  0.000000D+00  0.000000D+00  0.000000D+00  0.000000D+00
      9   0.000000D+00  0.000000D+00  0.000000D+00  0.000000D+00  0.000000D+00
     10   0.000000D+00  0.000000D+00  0.000000D+00  0.000000D+00  0.000000D+00
                 6             7             8             9            10 
      1   0.000000D+00  0.000000D+00  0.000000D+00  0.000000D+00  0.000000D+00
      2   0.000000D+00  0.000000D+00  0.000000D+00  0.000000D+00  0.000000D+00
      3   0.000000D+00  0.000000D+00  0.000000D+00  0.000000D+00  0.000000D+00
      4   0.000000D+00  0.000000D+00  0.000000D+00  0.000000D+00  0.000000D+00
      5   0.000000D+00  0.000000D+00  0.000000D+00  0.000000D+00  0.000000D+00
      6   0.000000D+00  0.000000D+00  0.000000D+00  0.000000D+00  0.000000D+00
      7   0.000000D+00  0.000000D+00  0.000000D+00  0.000000D+00  0.000000D+00
      8   0.000000D+00  0.000000D+00  0.000000D+00  0.000000D+00  0.000000D+00
      9   0.000000D+00  0.000000D+00  0.000000D+00  0.000000D+00  0.000000D+00
     10   0.000000D+00  0.000000D+00  0.000000D+00  0.000000D+00  0.000000D+00
                11            12            13            14            15 
      1   0.000000D+00  0.000000D+00  0.000000D+00  0.000000D+00  0.000000D+00
      2   0.000000D+00  0.000000D+00  0.000000D+00  0.000000D+00  0.000000D+00
      3   0.000000D+00  0.000000D+00  0.000000D+00  0.000000D+00  0.000000D+00
      4   0.000000D+00  0.000000D+00  0.000000D+00  0.000000D+00  0.000000D+00
      5   0.000000D+00  0.000000D+00  0.000000D+00  0.000000D+00  0.000000D+00
      6   0.000000D+00  0.000000D+00  0.000000D+00  0.000000D+00  0.000000D+00
      7   0.000000D+00  0.000000D+00  0.000000D+00  0.000000D+00  0.000000D+00
      8   0.000000D+00  0.000000D+00  0.000000D+00  0.000000D+00  0.000000D+00
      9   0.000000D+00  0.000000D+00  0.000000D+00  0.000000D+00  0.000000D+00
     10   0.000000D+00  0.000000D+00  0.000000D+00  0.000000D+00  0.000000D+00
                16            17            18            19            20 
      1   0.000000D+00  0.000000D+00  0.000000D+00  0.000000D+00  0.000000D+00
      2   0.000000D+00  0.000000D+00  0.000000D+00  0.000000D+00  0.000000D+00
      3   0.000000D+00  0.000000D+00  0.000000D+00  0.000000D+00  0.000000D+00
      4   0.000000D+00  0.000000D+00  0.000000D+00  0.000000D+00  0.000000D+00
      5   0.000000D+00  0.000000D+00  0.000000D+00  0.000000D+00  0.000000D+00
      6   0.000000D+00  0.000000D+00  0.000000D+00  0.000000D+00  0.000000D+00
      7   0.000000D+00  0.000000D+00  0.000000D+00  0.000000D+00  0.000000D+00
      8   0.000000D+00  0.000000D+00  0.000000D+00  0.000000D+00  0.000000D+00
      9   0.000000D+00  0.000000D+00  0.000000D+00  0.000000D+00  0.000000D+00
     10   0.000000D+00  0.000000D+00  0.000000D+00  0.000000D+00  0.000000D+00
 jaja in hckghf.F, ISPECT =                     548
Spin block MO for GHF transformation
NOA =   10   NOB =   10
NVA =   10   NVB =   10
 NOAvA in Hack                     100
 jaja in tranN3.F, ISPECT =                     548
 in l802/tranN3.F, LSPECT =                      800
 NMat, NBtSiz,MDV                    8372                   16000
                133954722
 TranN3:  NGot= 134217728 NBasic=    263006 NTTT=       550 NMat=      8372.
 Defined bucket =                      51                   10000
 Defined bucket =                      52                   10000
 Defined bucket =                      53                   10000
 Defined bucket =                      55                   10000
 Defined bucket =                      57                   10000
 Defined bucket =                      58                   10000
 Defined bucket =                      60                   10000
 Defined bucket =                      72                   10000
 Defined bucket =                      73                   10000
 Defined bucket =                      74                   10000
 Defined bucket =                      75                   10000
 Defined bucket =                      76                   10000
 (IK/LS) integrals will be saved in memory.
 TrCghf made   2 passes through the AO integrals.
 jaja DoHack is true or false? F
 jaja in hckghf.F, NBasis=                      10
 jaja in hckGHF/FixOG, LC =                      800
 jaja in hckGHF/FixOG, IRwC=                      548
 bfr conversion (alpha, real):
                 1             2             3             4             5 
      1   0.139634D+00  0.123246D-02 -0.308171D-01  0.252221D+00 -0.823036D-01
      2   0.606624D-01  0.535429D-03 -0.184323D-01  0.150858D+00 -0.908235D-01
      3   0.211389D+00  0.186580D-02 -0.229841D-01  0.188113D+00  0.523142D-01
[...]
      6b-0.666630D-01 -0.447159D+00  0.215686D+00 -0.513006D+00 -0.618314D-01
      7a-0.465816D-01 -0.107851D+00  0.101453D+00 -0.633654D-01 -0.193045D+00
      7b 0.149337D-01  0.318747D-01 -0.611041D-01  0.144897D+00  0.431172D-01
      8a-0.966033D-01  0.170392D+00  0.305313D+00  0.605240D-02 -0.531278D+00
      8b-0.832858D-01 -0.471615D+00  0.191569D-01 -0.236274D+00  0.942323D-01
      9a 0.229966D-01 -0.463406D-01 -0.282707D+00  0.654119D-01  0.284507D+00
      9b 0.876672D-02  0.364711D+00 -0.193269D-01  0.325063D+00 -0.139025D+00
     10a 0.671101D-01 -0.646760D-01  0.775376D-01 -0.127882D+00 -0.109015D+00
     10b-0.472820D-01  0.205165D+00 -0.727750D-01  0.341846D+00 -0.803759D-01
                3b            4a            4b            5a            5b
      3b 0.691369D+00
      4a-0.110102D+00  0.456977D+00
      4b 0.867280D-01  0.472158D-01  0.646207D+00
      5a-0.876693D-01 -0.184855D+00  0.793030D-01  0.484380D+00
      5b 0.293921D+00 -0.614030D-01 -0.417083D+00 -0.155419D+00  0.674931D+00
      6a-0.112116D+00  0.148781D+00  0.283630D-01  0.108950D+00 -0.511498D-01
      6b 0.439681D+00  0.438037D-01  0.130937D-01 -0.620633D-01  0.342118D+00
      7a 0.127885D-01 -0.123633D+00  0.374355D-01  0.118121D+00  0.201260D-01
      7b-0.330238D+00 -0.302232D-01 -0.231962D+00  0.355667D-01  0.110477D-01
      8a 0.130873D+00 -0.280599D+00  0.470771D-01  0.352224D+00 -0.117974D+00
      8b-0.132256D+00  0.774058D-01 -0.320152D+00 -0.676894D-01  0.437950D+00
      9a-0.152129D+00  0.136264D+00 -0.341569D-01 -0.307006D+00  0.176165D-01
      9b-0.279705D+00 -0.318955D-01  0.152691D+00  0.160637D+00 -0.528542D+00
     10a 0.173302D+00 -0.415701D-01 -0.890180D-01 -0.271881D+00  0.211172D+00
     10b-0.470723D+00  0.337665D-01  0.370271D-01  0.141958D+00 -0.389160D+00
                6a            6b            7a            7b            8a
      6a 0.445713D+00
      6b-0.119415D-01  0.714745D+00
      7a-0.197537D+00  0.170297D+00  0.492921D+00
      7b 0.295907D-01 -0.391919D+00 -0.112239D+00  0.602010D+00
      8a-0.285897D-02 -0.158134D+00  0.513564D-01  0.810156D-01  0.104099D+01
      8b 0.625188D-01  0.274567D+00  0.966690D-01  0.140310D+00 -0.282657D+00
      9a-0.622418D-01 -0.109749D-01  0.238624D+00  0.487618D-01 -0.629399D+00
      9b 0.182386D-01 -0.514783D+00 -0.132235D+00  0.458895D+00  0.300115D+00
     10a-0.189972D+00  0.957628D-01  0.303134D+00 -0.107584D+00 -0.277935D-01
     10b 0.734375D-01 -0.458806D+00 -0.805527D-01  0.552814D+00  0.123400D+00
                8b            9a            9b           10a           10b
      8b 0.623525D+00
      9a 0.143595D+00  0.797017D+00
      9b-0.383284D+00 -0.618777D-01  0.925854D+00
     10a 0.407121D-01  0.410660D+00 -0.253022D+00  0.611398D+00
     10b-0.656512D-01  0.425071D-01  0.760172D+00 -0.259635D+00  0.787748D+00
 jaja lower-tri density matrix (imaginary):
                1a            1b            2a            2b            3a
      1a 0.000000D+00
      1b 0.000000D+00  0.000000D+00
      2a 0.000000D+00  0.000000D+00  0.000000D+00
      2b 0.000000D+00  0.000000D+00  0.000000D+00  0.000000D+00
      3a 0.000000D+00  0.000000D+00  0.000000D+00  0.000000D+00  0.000000D+00
      3b 0.000000D+00  0.000000D+00  0.000000D+00  0.000000D+00  0.000000D+00
      4a 0.000000D+00  0.000000D+00  0.000000D+00  0.000000D+00  0.000000D+00
      4b 0.000000D+00  0.000000D+00  0.000000D+00  0.000000D+00  0.000000D+00
      5a 0.000000D+00  0.000000D+00  0.000000D+00  0.000000D+00  0.000000D+00
      5b 0.000000D+00  0.000000D+00  0.000000D+00  0.000000D+00  0.000000D+00
      6a 0.000000D+00  0.000000D+00  0.000000D+00  0.000000D+00  0.000000D+00
      6b 0.000000D+00  0.000000D+00  0.000000D+00  0.000000D+00  0.000000D+00
      7a 0.000000D+00  0.000000D+00  0.000000D+00  0.000000D+00  0.000000D+00
      7b 0.000000D+00  0.000000D+00  0.000000D+00  0.000000D+00  0.000000D+00
      8a 0.000000D+00  0.000000D+00  0.000000D+00  0.000000D+00  0.000000D+00
      8b 0.000000D+00  0.000000D+00  0.000000D+00  0.000000D+00  0.000000D+00
      9a 0.000000D+00  0.000000D+00  0.000000D+00  0.000000D+00  0.000000D+00
      9b 0.000000D+00  0.000000D+00  0.000000D+00  0.000000D+00  0.000000D+00
     10a 0.000000D+00  0.000000D+00  0.000000D+00  0.000000D+00  0.000000D+00
     10b 0.000000D+00  0.000000D+00  0.000000D+00  0.000000D+00  0.000000D+00
                3b            4a            4b            5a            5b
      3b 0.000000D+00
      4a 0.000000D+00  0.000000D+00
      4b 0.000000D+00  0.000000D+00  0.000000D+00
      5a 0.000000D+00  0.000000D+00  0.000000D+00  0.000000D+00
      5b 0.000000D+00  0.000000D+00  0.000000D+00  0.000000D+00  0.000000D+00
      6a 0.000000D+00  0.000000D+00  0.000000D+00  0.000000D+00  0.000000D+00
      6b 0.000000D+00  0.000000D+00  0.000000D+00  0.000000D+00  0.000000D+00
      7a 0.000000D+00  0.000000D+00  0.000000D+00  0.000000D+00  0.000000D+00
      7b 0.000000D+00  0.000000D+00  0.000000D+00  0.000000D+00  0.000000D+00
      8a 0.000000D+00  0.000000D+00  0.000000D+00  0.000000D+00  0.000000D+00
      8b 0.000000D+00  0.000000D+00  0.000000D+00  0.000000D+00  0.000000D+00
      9a 0.000000D+00  0.000000D+00  0.000000D+00  0.000000D+00  0.000000D+00
      9b 0.000000D+00  0.000000D+00  0.000000D+00  0.000000D+00  0.000000D+00
     10a 0.000000D+00  0.000000D+00  0.000000D+00  0.000000D+00  0.000000D+00
     10b 0.000000D+00  0.000000D+00  0.000000D+00  0.000000D+00  0.000000D+00
                6a            6b            7a            7b            8a
      6a 0.000000D+00
      6b 0.000000D+00  0.000000D+00
      7a 0.000000D+00  0.000000D+00  0.000000D+00
      7b 0.000000D+00  0.000000D+00  0.000000D+00  0.000000D+00
      8a 0.000000D+00  0.000000D+00  0.000000D+00  0.000000D+00  0.000000D+00
      8b 0.000000D+00  0.000000D+00  0.000000D+00  0.000000D+00  0.000000D+00
      9a 0.000000D+00  0.000000D+00  0.000000D+00  0.000000D+00  0.000000D+00
      9b 0.000000D+00  0.000000D+00  0.000000D+00  0.000000D+00  0.000000D+00
     10a 0.000000D+00  0.000000D+00  0.000000D+00  0.000000D+00  0.000000D+00
     10b 0.000000D+00  0.000000D+00  0.000000D+00  0.000000D+00  0.000000D+00
                8b            9a            9b           10a           10b
      8b 0.000000D+00
      9a 0.000000D+00  0.000000D+00
      9b 0.000000D+00  0.000000D+00  0.000000D+00
     10a 0.000000D+00  0.000000D+00  0.000000D+00  0.000000D+00
     10b 0.000000D+00  0.000000D+00  0.000000D+00  0.000000D+00  0.000000D+00
 jaja non-ortho density matrix               [Gau-style] (real):
                 1             2             3             4             5 
      1a  0.488783D+00  0.933751D-01  0.427031D+00  0.178803D-01  0.853413D-02
      1b  0.933751D-01  0.885906D+00 -0.277649D+00  0.753267D+00  0.582002D-02
      2a  0.427031D+00 -0.277649D+00  0.965951D+00 -0.348512D+00 -0.571329D+00
      2b  0.178803D-01  0.753267D+00 -0.348512D+00  0.845647D+00  0.412210D-01
      3a  0.853413D-02  0.582002D-02 -0.571329D+00  0.412210D-01  0.835387D+00
      3b  0.885081D-01 -0.755298D-01  0.197741D+00 -0.411914D+00 -0.418640D-01
      4a  0.254456D+00 -0.315278D-01  0.168286D+00  0.547341D-01  0.178134D+00
      4b -0.449695D-02  0.574124D+00 -0.126263D+00  0.461053D+00 -0.944485D-01
      5a -0.174221D+00  0.642408D-01 -0.118501D+00  0.852826D-01  0.549262D-02
      5b  0.419154D-01 -0.467606D+00  0.114496D+00 -0.487851D+00  0.132983D+00
      6a -0.200841D+00  0.255048D-02 -0.357538D+00  0.726660D-01  0.336060D+00
      6b -0.666630D-01 -0.447159D+00  0.215686D+00 -0.513006D+00 -0.618314D-01
      7a -0.465816D-01 -0.107851D+00  0.101453D+00 -0.633654D-01 -0.193045D+00
      7b  0.149337D-01  0.318747D-01 -0.611041D-01  0.144897D+00  0.431172D-01
      8a -0.966033D-01  0.170392D+00  0.305313D+00  0.605240D-02 -0.531278D+00
      8b -0.832858D-01 -0.471615D+00  0.191569D-01 -0.236274D+00  0.942323D-01
      9a  0.229966D-01 -0.463406D-01 -0.282707D+00  0.654119D-01  0.284507D+00
      9b  0.876672D-02  0.364711D+00 -0.193269D-01  0.325063D+00 -0.139025D+00
     10a  0.671101D-01 -0.646760D-01  0.775376D-01 -0.127882D+00 -0.109015D+00
     10b -0.472820D-01  0.205165D+00 -0.727750D-01  0.341846D+00 -0.803759D-01
                 6             7             8             9            10 
      1a  0.885081D-01  0.254456D+00 -0.449695D-02 -0.174221D+00  0.419154D-01
      1b -0.755298D-01 -0.315278D-01  0.574124D+00  0.642408D-01 -0.467606D+00
      2a  0.197741D+00  0.168286D+00 -0.126263D+00 -0.118501D+00  0.114496D+00
      2b -0.411914D+00  0.547341D-01  0.461053D+00  0.852826D-01 -0.487851D+00
      3a -0.418640D-01  0.178134D+00 -0.944485D-01  0.549262D-02  0.132983D+00
      3b  0.691369D+00 -0.110102D+00  0.867280D-01 -0.876693D-01  0.293921D+00
      4a -0.110102D+00  0.456977D+00  0.472158D-01 -0.184855D+00 -0.614030D-01
      4b  0.867280D-01  0.472158D-01  0.646207D+00  0.793030D-01 -0.417083D+00
      5a -0.876693D-01 -0.184855D+00  0.793030D-01  0.484380D+00 -0.155419D+00
      5b  0.293921D+00 -0.614030D-01 -0.417083D+00 -0.155419D+00  0.674931D+00
      6a -0.112116D+00  0.148781D+00  0.283630D-01  0.108950D+00 -0.511498D-01
      6b  0.439681D+00  0.438037D-01  0.130937D-01 -0.620633D-01  0.342118D+00
      7a  0.127885D-01 -0.123633D+00  0.374355D-01  0.118121D+00  0.201260D-01
      7b -0.330238D+00 -0.302232D-01 -0.231962D+00  0.355667D-01  0.110477D-01
      8a  0.130873D+00 -0.280599D+00  0.470771D-01  0.352224D+00 -0.117974D+00
      8b -0.132256D+00  0.774058D-01 -0.320152D+00 -0.676894D-01  0.437950D+00
      9a -0.152129D+00  0.136264D+00 -0.341569D-01 -0.307006D+00  0.176165D-01
      9b -0.279705D+00 -0.318955D-01  0.152691D+00  0.160637D+00 -0.528542D+00
     10a  0.173302D+00 -0.415701D-01 -0.890180D-01 -0.271881D+00  0.211172D+00
     10b -0.470723D+00  0.337665D-01  0.370271D-01  0.141958D+00 -0.389160D+00
                11            12            13            14            15 
      1a -0.200841D+00 -0.666630D-01 -0.465816D-01  0.149337D-01 -0.966033D-01
      1b  0.255048D-02 -0.447159D+00 -0.107851D+00  0.318747D-01  0.170392D+00
      2a -0.357538D+00  0.215686D+00  0.101453D+00 -0.611041D-01  0.305313D+00
      2b  0.726660D-01 -0.513006D+00 -0.633654D-01  0.144897D+00  0.605240D-02
      3a  0.336060D+00 -0.618314D-01 -0.193045D+00  0.431172D-01 -0.531278D+00
      3b -0.112116D+00  0.439681D+00  0.127885D-01 -0.330238D+00  0.130873D+00
      4a  0.148781D+00  0.438037D-01 -0.123633D+00 -0.302232D-01 -0.280599D+00
      4b  0.283630D-01  0.130937D-01  0.374355D-01 -0.231962D+00  0.470771D-01
      5a  0.108950D+00 -0.620633D-01  0.118121D+00  0.355667D-01  0.352224D+00
      5b -0.511498D-01  0.342118D+00  0.201260D-01  0.110477D-01 -0.117974D+00
      6a  0.445713D+00 -0.119415D-01 -0.197537D+00  0.295907D-01 -0.285897D-02
      6b -0.119415D-01  0.714745D+00  0.170297D+00 -0.391919D+00 -0.158134D+00
      7a -0.197537D+00  0.170297D+00  0.492921D+00 -0.112239D+00  0.513564D-01
      7b  0.295907D-01 -0.391919D+00 -0.112239D+00  0.602010D+00  0.810156D-01
      8a -0.285897D-02 -0.158134D+00  0.513564D-01  0.810156D-01  0.104099D+01
      8b  0.625188D-01  0.274567D+00  0.966690D-01  0.140310D+00 -0.282657D+00
      9a -0.622418D-01 -0.109749D-01  0.238624D+00  0.487618D-01 -0.629399D+00
      9b  0.182386D-01 -0.514783D+00 -0.132235D+00  0.458895D+00  0.300115D+00
     10a -0.189972D+00  0.957628D-01  0.303134D+00 -0.107584D+00 -0.277935D-01
     10b  0.734375D-01 -0.458806D+00 -0.805527D-01  0.552814D+00  0.123400D+00
                16            17            18            19            20 
      1a -0.832858D-01  0.229966D-01  0.876672D-02  0.671101D-01 -0.472820D-01
      1b -0.471615D+00 -0.463406D-01  0.364711D+00 -0.646760D-01  0.205165D+00
      2a  0.191569D-01 -0.282707D+00 -0.193269D-01  0.775376D-01 -0.727750D-01
      2b -0.236274D+00  0.654119D-01  0.325063D+00 -0.127882D+00  0.341846D+00
      3a  0.942323D-01  0.284507D+00 -0.139025D+00 -0.109015D+00 -0.803759D-01
      3b -0.132256D+00 -0.152129D+00 -0.279705D+00  0.173302D+00 -0.470723D+00
      4a  0.774058D-01  0.136264D+00 -0.318955D-01 -0.415701D-01  0.337665D-01
      4b -0.320152D+00 -0.341569D-01  0.152691D+00 -0.890180D-01  0.370271D-01
      5a -0.676894D-01 -0.307006D+00  0.160637D+00 -0.271881D+00  0.141958D+00
      5b  0.437950D+00  0.176165D-01 -0.528542D+00  0.211172D+00 -0.389160D+00
      6a  0.625188D-01 -0.622418D-01  0.182386D-01 -0.189972D+00  0.734375D-01
      6b  0.274567D+00 -0.109749D-01 -0.514783D+00  0.957628D-01 -0.458806D+00
      7a  0.966690D-01  0.238624D+00 -0.132235D+00  0.303134D+00 -0.805527D-01
      7b  0.140310D+00  0.487618D-01  0.458895D+00 -0.107584D+00  0.552814D+00
      8a -0.282657D+00 -0.629399D+00  0.300115D+00 -0.277935D-01  0.123400D+00
      8b  0.623525D+00  0.143595D+00 -0.383284D+00  0.407121D-01 -0.656512D-01
      9a  0.143595D+00  0.797017D+00 -0.618777D-01  0.410660D+00  0.425071D-01
      9b -0.383284D+00 -0.618777D-01  0.925854D+00 -0.253022D+00  0.760172D+00
     10a  0.407121D-01  0.410660D+00 -0.253022D+00  0.611398D+00 -0.259635D+00
     10b -0.656512D-01  0.425071D-01  0.760172D+00 -0.259635D+00  0.787748D+00
 jaja non-ortho density matrix               [Gau-style] (imaginary):
                 1             2             3             4             5 
      1a  0.000000D+00  0.000000D+00  0.000000D+00  0.000000D+00  0.000000D+00
      1b  0.000000D+00  0.000000D+00  0.000000D+00  0.000000D+00  0.000000D+00
      2a  0.000000D+00  0.000000D+00  0.000000D+00  0.000000D+00  0.000000D+00
      2b  0.000000D+00  0.000000D+00  0.000000D+00  0.000000D+00  0.000000D+00
      3a  0.000000D+00  0.000000D+00  0.000000D+00  0.000000D+00  0.000000D+00
      3b  0.000000D+00  0.000000D+00  0.000000D+00  0.000000D+00  0.000000D+00
      4a  0.000000D+00  0.000000D+00  0.000000D+00  0.000000D+00  0.000000D+00
      4b  0.000000D+00  0.000000D+00  0.000000D+00  0.000000D+00  0.000000D+00
      5a  0.000000D+00  0.000000D+00  0.000000D+00  0.000000D+00  0.000000D+00
      5b  0.000000D+00  0.000000D+00  0.000000D+00  0.000000D+00  0.000000D+00
      6a  0.000000D+00  0.000000D+00  0.000000D+00  0.000000D+00  0.000000D+00
      6b  0.000000D+00  0.000000D+00  0.000000D+00  0.000000D+00  0.000000D+00
      7a  0.000000D+00  0.000000D+00  0.000000D+00  0.000000D+00  0.000000D+00
      7b  0.000000D+00  0.000000D+00  0.000000D+00  0.000000D+00  0.000000D+00
      8a  0.000000D+00  0.000000D+00  0.000000D+00  0.000000D+00  0.000000D+00
      8b  0.000000D+00  0.000000D+00  0.000000D+00  0.000000D+00  0.000000D+00
      9a  0.000000D+00  0.000000D+00  0.000000D+00  0.000000D+00  0.000000D+00
      9b  0.000000D+00  0.000000D+00  0.000000D+00  0.000000D+00  0.000000D+00
     10a  0.000000D+00  0.000000D+00  0.000000D+00  0.000000D+00  0.000000D+00
     10b  0.000000D+00  0.000000D+00  0.000000D+00  0.000000D+00  0.000000D+00
                 6             7             8             9            10 
      1a  0.000000D+00  0.000000D+00  0.000000D+00  0.000000D+00  0.000000D+00
      1b  0.000000D+00  0.000000D+00  0.000000D+00  0.000000D+00  0.000000D+00
      2a  0.000000D+00  0.000000D+00  0.000000D+00  0.000000D+00  0.000000D+00
      2b  0.000000D+00  0.000000D+00  0.000000D+00  0.000000D+00  0.000000D+00
      3a  0.000000D+00  0.000000D+00  0.000000D+00  0.000000D+00  0.000000D+00
      3b  0.000000D+00  0.000000D+00  0.000000D+00  0.000000D+00  0.000000D+00
      4a  0.000000D+00  0.000000D+00  0.000000D+00  0.000000D+00  0.000000D+00
      4b  0.000000D+00  0.000000D+00  0.000000D+00  0.000000D+00  0.000000D+00
      5a  0.000000D+00  0.000000D+00  0.000000D+00  0.000000D+00  0.000000D+00
      5b  0.000000D+00  0.000000D+00  0.000000D+00  0.000000D+00  0.000000D+00
      6a  0.000000D+00  0.000000D+00  0.000000D+00  0.000000D+00  0.000000D+00
      6b  0.000000D+00  0.000000D+00  0.000000D+00  0.000000D+00  0.000000D+00
      7a  0.000000D+00  0.000000D+00  0.000000D+00  0.000000D+00  0.000000D+00
      7b  0.000000D+00  0.000000D+00  0.000000D+00  0.000000D+00  0.000000D+00
      8a  0.000000D+00  0.000000D+00  0.000000D+00  0.000000D+00  0.000000D+00
      8b  0.000000D+00  0.000000D+00  0.000000D+00  0.000000D+00  0.000000D+00
      9a  0.000000D+00  0.000000D+00  0.000000D+00  0.000000D+00  0.000000D+00
      9b  0.000000D+00  0.000000D+00  0.000000D+00  0.000000D+00  0.000000D+00
     10a  0.000000D+00  0.000000D+00  0.000000D+00  0.000000D+00  0.000000D+00
     10b  0.000000D+00  0.000000D+00  0.000000D+00  0.000000D+00  0.000000D+00
                11            12            13            14            15 
      1a  0.000000D+00  0.000000D+00  0.000000D+00  0.000000D+00  0.000000D+00
      1b  0.000000D+00  0.000000D+00  0.000000D+00  0.000000D+00  0.000000D+00
      2a  0.000000D+00  0.000000D+00  0.000000D+00  0.000000D+00  0.000000D+00
      2b  0.000000D+00  0.000000D+00  0.000000D+00  0.000000D+00  0.000000D+00
      3a  0.000000D+00  0.000000D+00  0.000000D+00  0.000000D+00  0.000000D+00
      3b  0.000000D+00  0.000000D+00  0.000000D+00  0.000000D+00  0.000000D+00
      4a  0.000000D+00  0.000000D+00  0.000000D+00  0.000000D+00  0.000000D+00
      4b  0.000000D+00  0.000000D+00  0.000000D+00  0.000000D+00  0.000000D+00
      5a  0.000000D+00  0.000000D+00  0.000000D+00  0.000000D+00  0.000000D+00
      5b  0.000000D+00  0.000000D+00  0.000000D+00  0.000000D+00  0.000000D+00
      6a  0.000000D+00  0.000000D+00  0.000000D+00  0.000000D+00  0.000000D+00
      6b  0.000000D+00  0.000000D+00  0.000000D+00  0.000000D+00  0.000000D+00
      7a  0.000000D+00  0.000000D+00  0.000000D+00  0.000000D+00  0.000000D+00
      7b  0.000000D+00  0.000000D+00  0.000000D+00  0.000000D+00  0.000000D+00
      8a  0.000000D+00  0.000000D+00  0.000000D+00  0.000000D+00  0.000000D+00
      8b  0.000000D+00  0.000000D+00  0.000000D+00  0.000000D+00  0.000000D+00
      9a  0.000000D+00  0.000000D+00  0.000000D+00  0.000000D+00  0.000000D+00
      9b  0.000000D+00  0.000000D+00  0.000000D+00  0.000000D+00  0.000000D+00
     10a  0.000000D+00  0.000000D+00  0.000000D+00  0.000000D+00  0.000000D+00
     10b  0.000000D+00  0.000000D+00  0.000000D+00  0.000000D+00  0.000000D+00
                16            17            18            19            20 
      1a  0.000000D+00  0.000000D+00  0.000000D+00  0.000000D+00  0.000000D+00
      1b  0.000000D+00  0.000000D+00  0.000000D+00  0.000000D+00  0.000000D+00
      2a  0.000000D+00  0.000000D+00  0.000000D+00  0.000000D+00  0.000000D+00
      2b  0.000000D+00  0.000000D+00  0.000000D+00  0.000000D+00  0.000000D+00
      3a  0.000000D+00  0.000000D+00  0.000000D+00  0.000000D+00  0.000000D+00
      3b  0.000000D+00  0.000000D+00  0.000000D+00  0.000000D+00  0.000000D+00
      4a  0.000000D+00  0.000000D+00  0.000000D+00  0.000000D+00  0.000000D+00
      4b  0.000000D+00  0.000000D+00  0.000000D+00  0.000000D+00  0.000000D+00
      5a  0.000000D+00  0.000000D+00  0.000000D+00  0.000000D+00  0.000000D+00
      5b  0.000000D+00  0.000000D+00  0.000000D+00  0.000000D+00  0.000000D+00
      6a  0.000000D+00  0.000000D+00  0.000000D+00  0.000000D+00  0.000000D+00
      6b  0.000000D+00  0.000000D+00  0.000000D+00  0.000000D+00  0.000000D+00
      7a  0.000000D+00  0.000000D+00  0.000000D+00  0.000000D+00  0.000000D+00
      7b  0.000000D+00  0.000000D+00  0.000000D+00  0.000000D+00  0.000000D+00
      8a  0.000000D+00  0.000000D+00  0.000000D+00  0.000000D+00  0.000000D+00
      8b  0.000000D+00  0.000000D+00  0.000000D+00  0.000000D+00  0.000000D+00
      9a  0.000000D+00  0.000000D+00  0.000000D+00  0.000000D+00  0.000000D+00
      9b  0.000000D+00  0.000000D+00  0.000000D+00  0.000000D+00  0.000000D+00
     10a  0.000000D+00  0.000000D+00  0.000000D+00  0.000000D+00  0.000000D+00
     10b  0.000000D+00  0.000000D+00  0.000000D+00  0.000000D+00  0.000000D+00
FORTRAN STOP
