 Entering Gaussian System, Link 0=gdv
 AtFile(1): H.gbs
            H     0
            S   10   1.00
               1000.000000000000            0.000068713567
                316.227766000000            0.000169141320
                100.000000000000            0.000823394812
                 31.622776600000            0.003425569236
                 10.000000000000            0.013951996000
                  3.162277660000            0.056909313560
                  1.000000000000            0.198286399900
                  0.316227766000            0.496922426700
                  0.100000000000            0.369846276400
                  0.031622776600            0.003752720039
            ****
 Initial command:
 /users/lcj1/GHF_hess/exe-dir/l1.exe "/users/lcj1/GHF_hess/h10_2rows/follow25/follow45/bck/Gau-14278.inp" -scrdir="/users/lcj1/GHF_hess/h10_2rows/follow25/follow45/bck/"
 Entering Link 1 = /users/lcj1/GHF_hess/exe-dir/l1.exe PID=     14279.
  
 Copyright (c) 1988,1990,1992,1993,1995,1998,2003,2009,2012,
            Gaussian, Inc.  All Rights Reserved.
  
 This is the private, development version of
 the Gaussian(R) DV system of programs. It is based on
 the Gaussian(R) 09 system (copyright 2009, Gaussian, Inc.),
 the Gaussian(R) 03 system (copyright 2003, Gaussian, Inc.),
 the Gaussian(R) 98 system (copyright 1998, Gaussian, Inc.),
 the Gaussian(R) 94 system (copyright 1995, Gaussian, Inc.),
 the Gaussian 92(TM) system (copyright 1992, Gaussian, Inc.),
 the Gaussian 90(TM) system (copyright 1990, Gaussian, Inc.),
 the Gaussian 88(TM) system (copyright 1988, Gaussian, Inc.),
 the Gaussian 86(TM) system (copyright 1986, Carnegie Mellon
 University), and the Gaussian 82(TM) system (copyright 1983,
 Carnegie Mellon University). Gaussian is a federally registered
 trademark of Gaussian, Inc.
  
 This software contains proprietary and confidential information,
 including trade secrets, belonging to Gaussian, Inc.
  
 This software is provided under written license and may be
 used, copied, transmitted, or stored only in accord with that
 written license.
  
 The following legend is applicable only to US Government
 contracts under FAR:
  
                    RESTRICTED RIGHTS LEGEND
  
 Use, reproduction and disclosure by the US Government is
 subject to restrictions as set forth in subparagraphs (a)
 and (c) of the Commercial Computer Software - Restricted
 Rights clause in FAR 52.227-19.
  
 Gaussian, Inc.
 340 Quinnipiac St., Bldg. 40, Wallingford CT 06492
  
  
 ---------------------------------------------------------------
 Warning -- This program may not be used in any manner that
 competes with the business of Gaussian, Inc. or will provide
 assistance to any competitor of Gaussian, Inc.  The licensee
 of this program is prohibited from giving any competitor of
 Gaussian, Inc. access to this program.  By using this program,
 the user acknowledges that Gaussian, Inc. is engaged in the
 business of creating and licensing software in the field of
 computational chemistry and represents and warrants to the
 licensee that it is not a competitor of Gaussian, Inc. and that
 it will not use this program in any manner prohibited above.
 ---------------------------------------------------------------
  

 Cite this work as:
 Gaussian Development Version, Revision H.21,
 M. J. Frisch, G. W. Trucks, H. B. Schlegel, G. E. Scuseria, 
 M. A. Robb, J. R. Cheeseman, G. Scalmani, V. Barone, B. Mennucci, 
 G. A. Petersson, H. Nakatsuji, M. Caricato, X. Li, H. P. Hratchian, 
 A. F. Izmaylov, J. Bloino, G. Zheng, J. L. Sonnenberg, W. Liang, 
 M. Hada, M. Ehara, K. Toyota, R. Fukuda, J. Hasegawa, M. Ishida, 
 T. Nakajima, Y. Honda, O. Kitao, H. Nakai, T. Vreven, 
 J. A. Montgomery, Jr., J. E. Peralta, F. Ogliaro, M. Bearpark, 
 J. J. Heyd, E. Brothers, K. N. Kudin, V. N. Staroverov, T. Keith, 
 R. Kobayashi, J. Normand, K. Raghavachari, A. Rendell, J. C. Burant, 
 S. S. Iyengar, J. Tomasi, M. Cossi, N. Rega, J. M. Millam, M. Klene, 
 J. E. Knox, J. B. Cross, V. Bakken, C. Adamo, J. Jaramillo, 
 R. Gomperts, R. E. Stratmann, O. Yazyev, A. J. Austin, R. Cammi, 
 C. Pomelli, J. W. Ochterski, R. L. Martin, K. Morokuma, 
 V. G. Zakrzewski, G. A. Voth, P. Salvador, J. J. Dannenberg, 
 S. Dapprich, P. V. Parandekar, N. J. Mayhall, A. D. Daniels, 
 O. Farkas, J. B. Foresman, J. V. Ortiz, J. Cioslowski, 
 and D. J. Fox, Gaussian, Inc., Wallingford CT, 2010.
 
 ******************************************
 Gaussian DV:  EM64L-GDVRevH.21 13-May-2012
                28-Feb-2017 
 ******************************************
 %chk=h10.chk
 ----------------------------------------------------------------------
 #ghf/gen scf(tight,novaracc,noincfock,fulldiag) stable guess=read geom
 =nocrowd use=l802 use=l902 test
 ----------------------------------------------------------------------
 ********************************************
   THE COMPLEX ERI TRANSFORMATION WITH L802  
        COMPLEX STABILITY WITH L902          
 ********************************************
 1/38=1/1;
 2/12=1,17=6,18=5,40=1/2;
 3/5=7,16=1,25=20,28=1,116=7/1,2,3,20;
 4/5=1/1;
 5/5=100001,16=1,32=2,38=6/2;
 8/6=1,10=90,11=11/1,2;
 9/8=4,13=1/1,2;
 6/7=2,8=2,9=2,10=2,28=1/1;
 99/5=1,9=1/99;
 ----------------------------------------------------------------------
 hf stability analysis of h10 triangular lattice, y= 0.3794068973118231
 4 alpha= 14.000000000000000
 ----------------------------------------------------------------------
 Symbolic Z-Matrix:
 Charge =  0 Multiplicity = 1
 H
 H                    1     1.5683 
 H                    1     1.5683   2     152. 
 H                    2     1.5683   1     28.      3     0.       0
 H                    3     1.5683   1     180.     2     0.       0
 H                    4     1.5683   2     180.     1     0.       0
 H                    5     1.5683   3     180.     2     0.       0
 H                    6     1.5683   4     180.     1     0.       0
 H                    7     1.5683   5     180.     2     0.       0
 H                    8     1.5683   6     180.     1     0.       0
 
                          Input orientation:                          
 ---------------------------------------------------------------------
 Center     Atomic      Atomic             Coordinates (Angstroms)
 Number     Number       Type             X           Y           Z
 ---------------------------------------------------------------------
      1          1           0        0.000000    0.000000    0.000000
      2          1           0        0.000000    0.000000    1.568303
      3          1           0        0.736274    0.000000   -1.384730
      4          1           0        0.736274    0.000000    0.183574
      5          1           0        1.472548    0.000000   -2.769459
      6          1           0        1.472548    0.000000   -1.201156
      7          1           0        2.208821    0.000000   -4.154189
      8          1           0        2.208821    0.000000   -2.585885
      9          1           0        2.945095    0.000000   -5.538918
     10          1           0        2.945095    0.000000   -3.970615
 ---------------------------------------------------------------------
                    Distance matrix (angstroms):
                    1          2          3          4          5
     1  H    0.000000
     2  H    1.568303   0.000000
     3  H    1.568303   3.043436   0.000000
     4  H    0.758814   1.568303   1.568303   0.000000
     5  H    3.136606   4.580893   1.568303   3.043436   0.000000
     6  H    1.900308   3.136606   0.758814   1.568303   1.568303
     7  H    4.704910   6.133988   3.136606   4.580893   1.568303
     8  H    3.400837   4.704910   1.900308   3.136606   0.758814
     9  H    6.273213   7.693256   4.704910   6.133988   3.136606
    10  H    4.943619   6.273213   3.400837   4.704910   1.900308
                    6          7          8          9         10
     6  H    0.000000
     7  H    3.043436   0.000000
     8  H    1.568303   1.568303   0.000000
     9  H    4.580893   1.568303   3.043436   0.000000
    10  H    3.136606   0.758814   1.568303   1.568303   0.000000
 Stoichiometry    H10
 Framework group  C2H[SGH(H10)]
 Deg. of freedom     9
 Full point group                 C2H     NOp   4
 Largest Abelian subgroup         C2H     NOp   4
 Largest concise Abelian subgroup C2      NOp   2
                         Standard orientation:                         
 ---------------------------------------------------------------------
 Center     Atomic      Atomic             Coordinates (Angstroms)
 Number     Number       Type             X           Y           Z
 ---------------------------------------------------------------------
      1          1           0        1.472548   -1.985307    0.000000
      2          1           0        1.472548   -3.553611    0.000000
      3          1           0        0.736274   -0.600578    0.000000
      4          1           0        0.736274   -2.168881    0.000000
      5          1           0        0.000000    0.784152    0.000000
      6          1           0        0.000000   -0.784152    0.000000
      7          1           0       -0.736274    2.168881    0.000000
      8          1           0       -0.736274    0.600578    0.000000
      9          1           0       -1.472548    3.553611    0.000000
     10          1           0       -1.472548    1.985307    0.000000
 ---------------------------------------------------------------------
 Rotational constants (GHZ):    406.9935788      9.2676119      9.0612784
 General basis read from cards:  (5D, 7F)
 There are     5 symmetry adapted cartesian basis functions of AG  symmetry.
 There are     0 symmetry adapted cartesian basis functions of BG  symmetry.
 There are     0 symmetry adapted cartesian basis functions of AU  symmetry.
 There are     5 symmetry adapted cartesian basis functions of BU  symmetry.
 There are     5 symmetry adapted basis functions of AG  symmetry.
 There are     0 symmetry adapted basis functions of BG  symmetry.
 There are     0 symmetry adapted basis functions of AU  symmetry.
 There are     5 symmetry adapted basis functions of BU  symmetry.
    10 basis functions,   100 primitive gaussians,    10 cartesian basis functions
     5 alpha electrons        5 beta electrons
       nuclear repulsion energy        11.3438570378 Hartrees.
 NAtoms=   10 NActive=   10 NUniq=    5 SFac= 4.00D+00 NAtFMM=   60 NAOKFM=F Big=F
 Integral buffers will be    131072 words long.
 Regular integral format.
 Two-electron integral symmetry is turned off.
 One-electron integrals computed using PRISM.
 NBasis=    10 RedAO= T EigKep=  1.69D-01  NBF=     5     0     0     5
 NBsUse=    10 1.00D-06 EigRej= -1.00D+00 NBFU=     5     0     0     5
 IOp(28)                       1
                        1                       0
                        2                       1
                        3                       1
                        4                      20
                        5                       0
                        6                       0
                        7                      10
                        8                       1
                        9                       4
                       10                       0
                       11              1073741824
                       12                      20
                       13                       2
                       14                  131070
                       15                       1
                       16                       1
                       17                  131073
                       18                       0
                       19                       0
                       20                       0
                       21                       2
                       22                  131070
                       23                       0
                       24                       0
                       25                       0
                       26                       0
                       27                   65535
                       28                       2
                       29                  131072
                       30                       0
 IHMeth                       1
 ib3: ISMode =                        0                       4
 Enter DskPsm, NBasis=  10 NBas6D=  10 NShell=  10 IDoSP=4.
 Out2e will use a cutoff of  1.00D-10
 FoFCou: FMM=F IPFlag=           0 FMFlag=           0 FMFlg1=           0
         NFxFlg=           0 DoJE=F BraDBF=F KetDBF=F FulRan=T
         wScrn=  0.000000 ICntrl=     600 IOpCl=  9 I1Cent=           0 NGrid=           0
         NMat0=    0 NMatS0=      0 NMatT0=    0 NMatD0=    0 NMtDS0=    0 NMtDT0=    0
 Symmetry not used in FoFCou.
 Entering PrmDigJobTyp =                      20
 LenSav and NKeep                       0                       0
 Entered Stor2E with KNTT1,2                       2                  131070
 Leave Stor2X
 Entering PrmDigJobTyp =                      20
 LenSav and NKeep                       0                       0
 Entered Stor2E with KNTT1,2                       2                  131056
 Leave Stor2X
 Entering PrmDigJobTyp =                      20
 LenSav and NKeep                       0                       0
 Entered Stor2E with KNTT1,2                       2                  131042
 Leave Stor2X
 Entering PrmDigJobTyp =                      20
 LenSav and NKeep                       0                       0
 Entered Stor2E with KNTT1,2                       2                  131028
 Leave Stor2X
 Entering PrmDigJobTyp =                      20
 LenSav and NKeep                       0                       0
 Entered Stor2E with KNTT1,2                       2                  131014
 Leave Stor2X
 Entering PrmDigJobTyp =                      20
 LenSav and NKeep                       0                       0
 Entered Stor2E with KNTT1,2                       2                  131000
 Leave Stor2X
 Entering PrmDigJobTyp =                      20
 LenSav and NKeep                       0                       0
 Entered Stor2E with KNTT1,2                       2                  130986
 Leave Stor2X
 Entering PrmDigJobTyp =                      20
 LenSav and NKeep                       0                       0
 Entered Stor2E with KNTT1,2                       2                  130972
 Leave Stor2X
 Entering PrmDigJobTyp =                      20
 LenSav and NKeep                       0                       0
 Entered Stor2E with KNTT1,2                       2                  130960
 Leave Stor2X
 Entering PrmDigJobTyp =                      20
 LenSav and NKeep                       0                       0
 Entered Stor2E with KNTT1,2                       2                  130944
 Leave Stor2X
 Entering PrmDigJobTyp =                      20
 LenSav and NKeep                       0                       0
 Entered Stor2E with KNTT1,2                       2                  130928
 Leave Stor2X
 Entering PrmDigJobTyp =                      20
 LenSav and NKeep                       0                       0
 Entered Stor2E with KNTT1,2                       2                  130912
 Leave Stor2X
 Entering PrmDigJobTyp =                      20
 LenSav and NKeep                       0                       0
 Entered Stor2E with KNTT1,2                       2                  130896
 Leave Stor2X
 Entering PrmDigJobTyp =                      20
 LenSav and NKeep                       0                       0
 Entered Stor2E with KNTT1,2                       2                  130880
 Leave Stor2X
 Entering PrmDigJobTyp =                      20
 LenSav and NKeep                       0                       0
 Entered Stor2E with KNTT1,2                       2                  130864
 Leave Stor2X
 Entering PrmDigJobTyp =                      20
 LenSav and NKeep                       0                       0
 Entered Stor2E with KNTT1,2                       2                  130848
 Leave Stor2X
 Entering PrmDigJobTyp =                      20
 LenSav and NKeep                       0                       0
 Entered Stor2E with KNTT1,2                       2                  130832
 Leave Stor2X
 Entering PrmDigJobTyp =                      20
 LenSav and NKeep                       0                       0
 Entered Stor2E with KNTT1,2                       2                  130816
 Leave Stor2X
 Entering PrmDigJobTyp =                      20
 LenSav and NKeep                       0                       0
 Entered Stor2E with KNTT1,2                       2                  130800
 Leave Stor2X
 Entering PrmDigJobTyp =                      20
 LenSav and NKeep                       0                       0
 Entered Stor2E with KNTT1,2                       2                  130784
 Leave Stor2X
 Entering PrmDigJobTyp =                      20
 LenSav and NKeep                       0                       0
 Entered Stor2E with KNTT1,2                       2                  130768
 Leave Stor2X
 Entering PrmDigJobTyp =                      20
 LenSav and NKeep                       0                       0
 Entered Stor2E with KNTT1,2                       2                  130752
 Leave Stor2X
 Entering PrmDigJobTyp =                      20
 LenSav and NKeep                       0                       0
 Entered Stor2E with KNTT1,2                       2                  130736
 Leave Stor2X
 Entering PrmDigJobTyp =                      20
 LenSav and NKeep                       0                       0
 Entered Stor2E with KNTT1,2                       2                  130720
 Leave Stor2X
 Entering PrmDigJobTyp =                      20
 LenSav and NKeep                       0                       0
 Entered Stor2E with KNTT1,2                       2                  130704
 Leave Stor2X
 Entering PrmDigJobTyp =                      20
 LenSav and NKeep                       0                       0
 Entered Stor2E with KNTT1,2                       2                  130700
 Leave Stor2X
 Entering PrmDigJobTyp =                      20
 LenSav and NKeep                       0                       0
 Entered Stor2E with KNTT1,2                       8                  130682
 Leave Stor2X
 Entering PrmDigJobTyp =                      20
 LenSav and NKeep                       0                       0
 Entered Stor2E with KNTT1,2                      22                  130672
 Leave Stor2X
 Entering PrmDigJobTyp =                      20
 LenSav and NKeep                       0                       0
 Entered Stor2E with KNTT1,2                      34                  130660
 Leave Stor2X
 Entering PrmDigJobTyp =                      20
 LenSav and NKeep                       0                       0
 Entered Stor2E with KNTT1,2                      52                  130654
 Leave Stor2X
 Entering PrmDigJobTyp =                      20
 LenSav and NKeep                       0                       0
 Entered Stor2E with KNTT1,2                      70                  130648
 Leave Stor2X
 Entering PrmDigJobTyp =                      20
 LenSav and NKeep                       0                       0
 Entered Stor2E with KNTT1,2                      88                  130642
 Leave Stor2X
 Entering PrmDigJobTyp =                      20
 LenSav and NKeep                       0                       0
 Entered Stor2E with KNTT1,2                     106                  130636
 Leave Stor2X
 Entering PrmDigJobTyp =                      20
 LenSav and NKeep                       0                       0
 Entered Stor2E with KNTT1,2                     114                  130630
 Leave Stor2X
 Entering PrmDigJobTyp =                      20
 LenSav and NKeep                       0                       0
 Entered Stor2E with KNTT1,2                     114                  130610
 Leave Stor2X
 Entering PrmDigJobTyp =                      20
 LenSav and NKeep                       0                       0
 Entered Stor2E with KNTT1,2                     114                  130590
 Leave Stor2X
 Entering PrmDigJobTyp =                      20
 LenSav and NKeep                       0                       0
 Entered Stor2E with KNTT1,2                     114                  130570
 Leave Stor2X
 Entering PrmDigJobTyp =                      20
 LenSav and NKeep                       0                       0
 Entered Stor2E with KNTT1,2                     114                  130550
 Leave Stor2X
 Entering PrmDigJobTyp =                      20
 LenSav and NKeep                       0                       0
 Entered Stor2E with KNTT1,2                     134                  130538
 Leave Stor2X
 Entering PrmDigJobTyp =                      20
 LenSav and NKeep                       0                       0
 Entered Stor2E with KNTT1,2                     154                  130526
 Leave Stor2X
 Entering PrmDigJobTyp =                      20
 LenSav and NKeep                       0                       0
 Entered Stor2E with KNTT1,2                     174                  130514
 Leave Stor2X
 Entering PrmDigJobTyp =                      20
 LenSav and NKeep                       0                       0
 Entered Stor2E with KNTT1,2                     174                  130506
 Leave Stor2X
 Entering PrmDigJobTyp =                      20
 LenSav and NKeep                       0                       0
 Entered Stor2E with KNTT1,2                     186                  130498
 Leave Stor2X
 Entering PrmDigJobTyp =                      20
 LenSav and NKeep                       0                       0
 Entered Stor2E with KNTT1,2                     186                  130484
 Leave Stor2X
 Entering PrmDigJobTyp =                      20
 LenSav and NKeep                       0                       0
 Entered Stor2E with KNTT1,2                     186                  130470
 Leave Stor2X
 Entering PrmDigJobTyp =                      20
 LenSav and NKeep                       0                       0
 Entered Stor2E with KNTT1,2                     186                  130456
 Leave Stor2X
 Entering PrmDigJobTyp =                      20
 LenSav and NKeep                       0                       0
 Entered Stor2E with KNTT1,2                     186                  130442
 Leave Stor2X
 Entering PrmDigJobTyp =                      20
 LenSav and NKeep                       0                       0
 Entered Stor2E with KNTT1,2                     186                  130428
 Leave Stor2X
 Entering PrmDigJobTyp =                      20
 LenSav and NKeep                       0                       0
 Entered Stor2E with KNTT1,2                     186                  130418
 Leave Stor2X
 Entering PrmDigJobTyp =                      20
 LenSav and NKeep                       0                       0
 Entered Stor2E with KNTT1,2                     196                  130408
 Leave Stor2X
 Entering PrmDigJobTyp =                      20
 LenSav and NKeep                       0                       0
 Entered Stor2E with KNTT1,2                     206                  130398
 Leave Stor2X
 Entering PrmDigJobTyp =                      20
 LenSav and NKeep                       0                       0
 Entered Stor2E with KNTT1,2                     224                  130396
 Leave Stor2X
 Entering PrmDigJobTyp =                      20
 LenSav and NKeep                       0                       0
 Entered Stor2E with KNTT1,2                     232                  130384
 Leave Stor2X
 Entering PrmDigJobTyp =                      20
 LenSav and NKeep                       0                       0
 Entered Stor2E with KNTT1,2                     246                  130378
 Leave Stor2X
 Entering PrmDigJobTyp =                      20
 LenSav and NKeep                       0                       0
 Entered Stor2E with KNTT1,2                     246                  130374
 Leave Stor2X
 Entering PrmDigJobTyp =                      20
 LenSav and NKeep                       0                       0
 Entered Stor2E with KNTT1,2                     262                  130364
 Leave Stor2X
 Entering PrmDigJobTyp =                      20
 LenSav and NKeep                       0                       0
 Entered Stor2E with KNTT1,2                     266                  130362
 Leave Stor2X
 Entering PrmDigJobTyp =                      20
 LenSav and NKeep                       0                       0
 Entered Stor2E with KNTT1,2                     278                  130356
 Leave Stor2X
 Entering PrmDigJobTyp =                      20
 LenSav and NKeep                       0                       0
 Entered Stor2E with KNTT1,2                     278                  130354
 Leave Stor2X
 Entering PrmDigJobTyp =                      20
 LenSav and NKeep                       0                       0
 Entered Stor2E with KNTT1,2                     278                  130332
 Leave Stor2X
 Entering PrmDigJobTyp =                      20
 LenSav and NKeep                       0                       0
 Entered Stor2E with KNTT1,2                     278                  130310
 Leave Stor2X
 Entering PrmDigJobTyp =                      20
 LenSav and NKeep                       0                       0
 Entered Stor2E with KNTT1,2                     278                  130288
 Leave Stor2X
 Entering PrmDigJobTyp =                      20
 LenSav and NKeep                       0                       0
 Entered Stor2E with KNTT1,2                     278                  130266
 Leave Stor2X
 Entering PrmDigJobTyp =                      20
 LenSav and NKeep                       0                       0
 Entered Stor2E with KNTT1,2                     278                  130244
 Leave Stor2X
 Entering PrmDigJobTyp =                      20
 LenSav and NKeep                       0                       0
 Entered Stor2E with KNTT1,2                     278                  130222
 Leave Stor2X
 Entering PrmDigJobTyp =                      20
 LenSav and NKeep                       0                       0
 Entered Stor2E with KNTT1,2                     278                  130200
 Leave Stor2X
 Entering PrmDigJobTyp =                      20
 LenSav and NKeep                       0                       0
 Entered Stor2E with KNTT1,2                     278                  130194
 Leave Stor2X
 Entering PrmDigJobTyp =                      20
 LenSav and NKeep                       0                       0
 Entered Stor2E with KNTT1,2                     296                  130180
 Leave Stor2X
 Entering PrmDigJobTyp =                      20
 LenSav and NKeep                       0                       0
 Entered Stor2E with KNTT1,2                     316                  130168
 Leave Stor2X
 Entering PrmDigJobTyp =                      20
 LenSav and NKeep                       0                       0
 Entered Stor2E with KNTT1,2                     336                  130156
 Leave Stor2X
 Entering PrmDigJobTyp =                      20
 LenSav and NKeep                       0                       0
 Entered Stor2E with KNTT1,2                     352                  130140
 Leave Stor2X
 Entering PrmDigJobTyp =                      20
 LenSav and NKeep                       0                       0
 Entered Stor2E with KNTT1,2                     372                  130128
 Leave Stor2X
 Entering PrmDigJobTyp =                      20
 LenSav and NKeep                       0                       0
 Entered Stor2E with KNTT1,2                     396                  130120
 Leave Stor2X
 Entering PrmDigJobTyp =                      20
 LenSav and NKeep                       0                       0
 Entered Stor2E with KNTT1,2                     402                  130110
 Leave Stor2X
 Entering PrmDigJobTyp =                      20
 LenSav and NKeep                       0                       0
 Entered Stor2E with KNTT1,2                     426                  130094
 Leave Stor2X
 Entering PrmDigJobTyp =                      20
 LenSav and NKeep                       0                       0
 Entered Stor2E with KNTT1,2                     442                  130086
 Leave Stor2X
 Entering PrmDigJobTyp =                      20
 LenSav and NKeep                       0                       0
 Entered Stor2E with KNTT1,2                     456                  130074
 Leave Stor2X
 Entering PrmDigJobTyp =                      20
 LenSav and NKeep                       0                       0
 Entered Stor2E with KNTT1,2                     472                  130064
 Leave Stor2X
 Entering PrmDigJobTyp =                      20
 LenSav and NKeep                       0                       0
 Entered Stor2E with KNTT1,2                     478                  130058
 Leave Stor2X
 Entering PrmDigJobTyp =                      20
 LenSav and NKeep                       0                       0
 Entered Stor2E with KNTT1,2                     502                  130040
 Leave Stor2X
 Entering PrmDigJobTyp =                      20
 LenSav and NKeep                       0                       0
 Entered Stor2E with KNTT1,2                     522                  130030
 Leave Stor2X
 Entering PrmDigJobTyp =                      20
 LenSav and NKeep                       0                       0
 Entered Stor2E with KNTT1,2                     522                  130006
 Leave Stor2X
 Entering PrmDigJobTyp =                      20
 LenSav and NKeep                       0                       0
 Entered Stor2E with KNTT1,2                     522                  129982
 Leave Stor2X
 Entering PrmDigJobTyp =                      20
 LenSav and NKeep                       0                       0
 Entered Stor2E with KNTT1,2                     522                  129970
 Leave Stor2X
 Entering PrmDigJobTyp =                      20
 LenSav and NKeep                       0                       0
 Entered Stor2E with KNTT1,2                     544                  129954
 Leave Stor2X
 Entering PrmDigJobTyp =                      20
 LenSav and NKeep                       0                       0
 Entered Stor2E with KNTT1,2                     568                  129940
 Leave Stor2X
 Entering PrmDigJobTyp =                      20
 LenSav and NKeep                       0                       0
 Entered Stor2E with KNTT1,2                     568                  129938
 Leave Stor2X
 Entering PrmDigJobTyp =                      20
 LenSav and NKeep                       0                       0
 Entered Stor2E with KNTT1,2                     580                  129926
 Leave Stor2X
 Entering PrmDigJobTyp =                      20
 LenSav and NKeep                       0                       0
 Entered Stor2E with KNTT1,2                     596                  129918
 Leave Stor2X
 Entering PrmDigJobTyp =                      20
 LenSav and NKeep                       0                       0
 Entered Stor2E with KNTT1,2                     628                  129902
 Leave Stor2X
 Entering PrmDigJobTyp =                      20
 LenSav and NKeep                       0                       0
 Entered Stor2E with KNTT1,2                     634                  129896
 Leave Stor2X
 Entering PrmDigJobTyp =                      20
 LenSav and NKeep                       0                       0
 Entered Stor2E with KNTT1,2                     634                  129880
 Leave Stor2X
 Entering PrmDigJobTyp =                      20
 LenSav and NKeep                       0                       0
 Entered Stor2E with KNTT1,2                     634                  129864
 Leave Stor2X
 Entering PrmDigJobTyp =                      20
 LenSav and NKeep                       0                       0
 Entered Stor2E with KNTT1,2                     634                  129848
 Leave Stor2X
 Entering PrmDigJobTyp =                      20
 LenSav and NKeep                       0                       0
 Entered Stor2E with KNTT1,2                     634                  129836
 Leave Stor2X
 Entering PrmDigJobTyp =                      20
 LenSav and NKeep                       0                       0
 Entered Stor2E with KNTT1,2                     650                  129826
 Leave Stor2X
 Entering PrmDigJobTyp =                      20
 LenSav and NKeep                       0                       0
 Entered Stor2E with KNTT1,2                     664                  129814
 Leave Stor2X
 Entering PrmDigJobTyp =                      20
 LenSav and NKeep                       0                       0
 Entered Stor2E with KNTT1,2                     680                  129804
 Leave Stor2X
 Entering PrmDigJobTyp =                      20
 LenSav and NKeep                       0                       0
 Entered Stor2E with KNTT1,2                     696                  129796
 Leave Stor2X
 Entering PrmDigJobTyp =                      20
 LenSav and NKeep                       0                       0
 Entered Stor2E with KNTT1,2                     708                  129786
 Leave Stor2X
 Entering PrmDigJobTyp =                      20
 LenSav and NKeep                       0                       0
 Entered Stor2E with KNTT1,2                     708                  129784
 Leave Stor2X
 Entering PrmDigJobTyp =                      20
 LenSav and NKeep                       0                       0
 Entered Stor2E with KNTT1,2                     724                  129766
 Leave Stor2X
 Entering PrmDigJobTyp =                      20
 LenSav and NKeep                       0                       0
 Entered Stor2E with KNTT1,2                     732                  129760
 Leave Stor2X
 Entering PrmDigJobTyp =                      20
 LenSav and NKeep                       0                       0
 Entered Stor2E with KNTT1,2                     746                  129756
 Leave Stor2X
 Entering PrmDigJobTyp =                      20
 LenSav and NKeep                       0                       0
 Entered Stor2E with KNTT1,2                     752                  129750
 Leave Stor2X
 Entering PrmDigJobTyp =                      20
 LenSav and NKeep                       0                       0
 Entered Stor2E with KNTT1,2                     752                  129724
 Leave Stor2X
 Entering PrmDigJobTyp =                      20
 LenSav and NKeep                       0                       0
 Entered Stor2E with KNTT1,2                     752                  129698
 Leave Stor2X
 Entering PrmDigJobTyp =                      20
 LenSav and NKeep                       0                       0
 Entered Stor2E with KNTT1,2                     752                  129672
 Leave Stor2X
 Entering PrmDigJobTyp =                      20
 LenSav and NKeep                       0                       0
 Entered Stor2E with KNTT1,2                     752                  129670
 Leave Stor2X
 Entering PrmDigJobTyp =                      20
 LenSav and NKeep                       0                       0
 Entered Stor2E with KNTT1,2                     778                  129656
 Leave Stor2X
 Entering PrmDigJobTyp =                      20
 LenSav and NKeep                       0                       0
 Entered Stor2E with KNTT1,2                     802                  129640
 Leave Stor2X
 Entering PrmDigJobTyp =                      20
 LenSav and NKeep                       0                       0
 Entered Stor2E with KNTT1,2                     816                  129630
 Leave Stor2X
 Entering PrmDigJobTyp =                      20
 LenSav and NKeep                       0                       0
 Entered Stor2E with KNTT1,2                     836                  129618
 Leave Stor2X
 Entering PrmDigJobTyp =                      20
 LenSav and NKeep                       0                       0
 Entered Stor2E with KNTT1,2                     856                  129606
 Leave Stor2X
 Entering PrmDigJobTyp =                      20
 LenSav and NKeep                       0                       0
 Entered Stor2E with KNTT1,2                     890                  129588
 Leave Stor2X
 Entering PrmDigJobTyp =                      20
 LenSav and NKeep                       0                       0
 Entered Stor2E with KNTT1,2                     896                  129582
 Leave Stor2X
 Entering PrmDigJobTyp =                      20
 LenSav and NKeep                       0                       0
 Entered Stor2E with KNTT1,2                     912                  129574
 Leave Stor2X
 Entering PrmDigJobTyp =                      20
 LenSav and NKeep                       0                       0
 Entered Stor2E with KNTT1,2                     928                  129566
 Leave Stor2X
 Entering PrmDigJobTyp =                      20
 LenSav and NKeep                       0                       0
 Entered Stor2E with KNTT1,2                     940                  129558
 Leave Stor2X
 Entering PrmDigJobTyp =                      20
 LenSav and NKeep                       0                       0
 Entered Stor2E with KNTT1,2                     940                  129528
 Leave Stor2X
 Entering PrmDigJobTyp =                      20
 LenSav and NKeep                       0                       0
 Entered Stor2E with KNTT1,2                     940                  129498
 Leave Stor2X
 Entering PrmDigJobTyp =                      20
 LenSav and NKeep                       0                       0
 Entered Stor2E with KNTT1,2                     940                  129478
 Leave Stor2X
 Entering PrmDigJobTyp =                      20
 LenSav and NKeep                       0                       0
 Entered Stor2E with KNTT1,2                     972                  129464
 Leave Stor2X
 Entering PrmDigJobTyp =                      20
 LenSav and NKeep                       0                       0
 Entered Stor2E with KNTT1,2                    1000                  129446
 Leave Stor2X
 Entering PrmDigJobTyp =                      20
 LenSav and NKeep                       0                       0
 Entered Stor2E with KNTT1,2                    1008                  129442
 Leave Stor2X
 Entering PrmDigJobTyp =                      20
 LenSav and NKeep                       0                       0
 Entered Stor2E with KNTT1,2                    1028                  129430
 Leave Stor2X
 Entering PrmDigJobTyp =                      20
 LenSav and NKeep                       0                       0
 Entered Stor2E with KNTT1,2                    1052                  129422
 Leave Stor2X
 Entering PrmDigJobTyp =                      20
 LenSav and NKeep                       0                       0
 Entered Stor2E with KNTT1,2                    1096                  129406
 Leave Stor2X
 Entering PrmDigJobTyp =                      20
 LenSav and NKeep                       0                       0
 Entered Stor2E with KNTT1,2                    1096                  129402
 Leave Stor2X
 Entering PrmDigJobTyp =                      20
 LenSav and NKeep                       0                       0
 Entered Stor2E with KNTT1,2                    1108                  129390
 Leave Stor2X
 Entering PrmDigJobTyp =                      20
 LenSav and NKeep                       0                       0
 Entered Stor2E with KNTT1,2                    1128                  129386
 Leave Stor2X
 Entering PrmDigJobTyp =                      20
 LenSav and NKeep                       0                       0
 Entered Stor2E with KNTT1,2                    1144                  129370
 Leave Stor2X
 Entering PrmDigJobTyp =                      20
 LenSav and NKeep                       0                       0
 Entered Stor2E with KNTT1,2                    1152                  129358
 Leave Stor2X
 Entering PrmDigJobTyp =                      20
 LenSav and NKeep                       0                       0
 Entered Stor2E with KNTT1,2                    1152                  129338
 Leave Stor2X
 Entering PrmDigJobTyp =                      20
 LenSav and NKeep                       0                       0
 Entered Stor2E with KNTT1,2                    1170                  129330
 Leave Stor2X
 Entering PrmDigJobTyp =                      20
 LenSav and NKeep                       0                       0
 Entered Stor2E with KNTT1,2                    1174                  129326
 Leave Stor2X
 Entering PrmDigJobTyp =                      20
 LenSav and NKeep                       0                       0
 Entered Stor2E with KNTT1,2                    1182                  129326
 Leave Stor2X
 Entering PrmDigJobTyp =                      20
 LenSav and NKeep                       0                       0
 Entered Stor2E with KNTT1,2                    1194                  129322
 Leave Stor2X
 Entering PrmDigJobTyp =                      20
 LenSav and NKeep                       0                       0
 Entered Stor2E with KNTT1,2                    1196                  129318
 Leave Stor2X
 Entering PrmDigJobTyp =                      20
 LenSav and NKeep                       0                       0
 Entered Stor2E with KNTT1,2                    1202                  129318
 Leave Stor2X
 Entering PrmDigJobTyp =                      20
 LenSav and NKeep                       0                       0
 Entered Stor2E with KNTT1,2                    1206                  129314
 Leave Stor2X
 Entering PrmDigJobTyp =                      20
 LenSav and NKeep                       0                       0
 Entered Stor2E with KNTT1,2                    1206                  129306
 Leave Stor2X
 Entering PrmDigJobTyp =                      20
 LenSav and NKeep                       0                       0
 Entered Stor2E with KNTT1,2                    1206                  129304
 Leave Stor2X
 Entering PrmDigJobTyp =                      20
 LenSav and NKeep                       0                       0
 Entered Stor2E with KNTT1,2                    1206                  129284
 Leave Stor2X
 Entering PrmDigJobTyp =                      20
 LenSav and NKeep                       0                       0
 Entered Stor2E with KNTT1,2                    1224                  129276
 Leave Stor2X
 Entering PrmDigJobTyp =                      20
 LenSav and NKeep                       0                       0
 Entered Stor2E with KNTT1,2                    1232                  129276
 Leave Stor2X
 Entering PrmDigJobTyp =                      20
 LenSav and NKeep                       0                       0
 Entered Stor2E with KNTT1,2                    1236                  129272
 Leave Stor2X
 Entering PrmDigJobTyp =                      20
 LenSav and NKeep                       0                       0
 Entered Stor2E with KNTT1,2                    1244                  129264
 Leave Stor2X
 Entering PrmDigJobTyp =                      20
 LenSav and NKeep                       0                       0
 Entered Stor2E with KNTT1,2                    1250                  129264
 Leave Stor2X
 Entering PrmDigJobTyp =                      20
 LenSav and NKeep                       0                       0
 Entered Stor2E with KNTT1,2                    1252                  129260
 Leave Stor2X
 Entering PrmDigJobTyp =                      20
 LenSav and NKeep                       0                       0
 Entered Stor2E with KNTT1,2                    1256                  129256
 Leave Stor2X
 Entering PrmDigJobTyp =                      20
 LenSav and NKeep                       0                       0
 Entered Stor2E with KNTT1,2                    1260                  129252
 Leave Stor2X
 Entering PrmDigJobTyp =                      20
 LenSav and NKeep                       0                       0
 Entered Stor2E with KNTT1,2                    1262                  129252
 Leave Stor2X
 In PrSumR
 Called IWRITE
         1540 integrals produced for a total of         1540.
 Initial guess from the checkpoint file:  "h10.chk"
 B after Tr=     0.000000    0.000000    0.000000
         Rot=    0.598806    0.000000    0.000000    0.800894 Ang= 106.43 deg.
 Initial guess <Sx>= 0.0000 <Sy>= 0.0000 <Sz>= 0.0000 <S**2>= 0.0000 S= 0.0000
 Two-electron integrals will be kept in memory, NGetB=      152788.
 Requested convergence on RMS density matrix=1.00D-08 within 128 cycles.
 Requested convergence on MAX density matrix=1.00D-06.
 Requested convergence on             energy=1.00D-06.
 No special actions if energy rises.
 Density File Not Found. Continue as usual
 SCF Done:  E(GHF) =  -4.87110085955     A.U. after   15 cycles
            NFock= 15  Conv=0.35D-09     -V/T= 1.9313
 <Sx>= 0.0000 <Sy>= 0.0000 <Sz>= 0.0000 <S**2>= 0.0000 S= 0.0000
 <L.S>= 0.000000000000E+00
 Range of M.O.s used for correlation:     1    10
 NBasis=    10 NAE=    10 NBE=     0 NFC=     0 NFV=     0
 NROrb=     20 NOA=    10 NOB=     0 NVA=    10 NVB=     0

 **** Warning!!: The smallest alpha delta epsilon is  0.63203267D-01

 jaja DoHack is true or false? T
 jaja in hckghf.F, NBasis=                      10
 jaja in hckGHF/FixOG, LC =                      800
 jaja in hckGHF/FixOG, IRwC=                      548
 bfr conversion (real):
                 1             2             3             4             5 
      1a  0.189569D-01  0.141312D+00  0.250832D-01  0.275992D+00  0.115727D-01
      1b  0.141312D+00 -0.189569D-01  0.275992D+00 -0.250832D-01  0.352427D+00
      2a  0.161495D-02  0.120384D-01  0.333024D-02  0.366429D-01  0.311374D-02
      2b  0.120384D-01 -0.161495D-02  0.366429D-01 -0.333024D-02  0.948239D-01
      3a  0.333617D-01  0.248690D+00  0.177320D-01  0.195106D+00 -0.712241D-02
      3b  0.248690D+00 -0.333617D-01  0.195106D+00 -0.177320D-01 -0.216902D+00
      4a  0.209844D-01  0.156425D+00  0.268087D-01  0.294978D+00  0.114806D-01
      4b  0.156425D+00 -0.209844D-01  0.294978D+00 -0.268087D-01  0.349624D+00
      5a  0.334771D-01  0.249551D+00 -0.159540D-01 -0.175543D+00 -0.816418D-02
      5b  0.249551D+00 -0.334771D-01 -0.175543D+00  0.159540D-01 -0.248627D+00
      6a  0.334771D-01  0.249551D+00  0.159540D-01  0.175543D+00 -0.816418D-02
      6b  0.249551D+00 -0.334771D-01  0.175543D+00 -0.159540D-01 -0.248627D+00
      7a  0.209844D-01  0.156425D+00 -0.268087D-01 -0.294978D+00  0.114806D-01
      7b  0.156425D+00 -0.209844D-01 -0.294978D+00  0.268087D-01  0.349624D+00
      8a  0.333617D-01  0.248690D+00 -0.177320D-01 -0.195106D+00 -0.712241D-02
      8b  0.248690D+00 -0.333617D-01 -0.195106D+00  0.177320D-01 -0.216902D+00
      9a  0.161495D-02  0.120384D-01 -0.333024D-02 -0.366429D-01  0.311374D-02
      9b  0.120384D-01 -0.161495D-02 -0.366429D-01  0.333024D-02  0.948239D-01
     10a  0.189569D-01  0.141312D+00 -0.250832D-01 -0.275992D+00  0.115727D-01
     10b  0.141312D+00 -0.189569D-01 -0.275992D+00  0.250832D-01  0.352427D+00
                 6             7             8             9            10 
      1a  0.352427D+00  0.146733D-02 -0.276541D+00 -0.597918D-01 -0.253424D+00
      1b -0.115727D-01 -0.276541D+00 -0.146733D-02 -0.253424D+00  0.597918D-01
      2a  0.948239D-01  0.673933D-03 -0.127014D+00  0.173788D+00  0.736593D+00
      2b -0.311374D-02 -0.127014D+00 -0.673933D-03  0.736593D+00 -0.173788D+00
      3a -0.216902D+00 -0.257367D-02  0.485050D+00  0.226946D-01  0.961900D-01
      3b  0.712241D-02  0.485050D+00  0.257367D-02  0.961900D-01 -0.226946D-01
      4a  0.349624D+00  0.126425D-02 -0.238267D+00 -0.478839D-01 -0.202954D+00
      4b -0.114806D-01 -0.238267D+00 -0.126425D-02 -0.202954D+00  0.478839D-01
      5a -0.248627D+00  0.248463D-02 -0.468269D+00 -0.364046D-01 -0.154299D+00
      5b  0.816418D-02 -0.468269D+00 -0.248463D-02 -0.154299D+00  0.364046D-01
      6a -0.248627D+00 -0.248463D-02  0.468269D+00  0.364046D-01  0.154299D+00
      6b  0.816418D-02  0.468269D+00  0.248463D-02  0.154299D+00 -0.364046D-01
      7a  0.349624D+00 -0.126425D-02  0.238267D+00  0.478839D-01  0.202954D+00
      7b -0.114806D-01  0.238267D+00  0.126425D-02  0.202954D+00 -0.478839D-01
      8a -0.216902D+00  0.257367D-02 -0.485050D+00 -0.226946D-01 -0.961900D-01
      8b  0.712241D-02 -0.485050D+00 -0.257367D-02 -0.961900D-01  0.226946D-01
      9a  0.948239D-01 -0.673933D-03  0.127014D+00 -0.173788D+00 -0.736593D+00
      9b -0.311374D-02  0.127014D+00  0.673933D-03 -0.736593D+00  0.173788D+00
     10a  0.352427D+00 -0.146733D-02  0.276541D+00  0.597918D-01  0.253424D+00
     10b -0.115727D-01  0.276541D+00  0.146733D-02  0.253424D+00 -0.597918D-01
                11            12            13            14            15 
      1a  0.226575D-01 -0.230663D+00  0.421360D+00 -0.181103D-01 -0.778337D+00
      1b -0.230663D+00 -0.226575D-01  0.181103D-01  0.421360D+00 -0.122410D-01
      2a -0.744457D-01  0.757888D+00  0.502218D-01 -0.215857D-02 -0.393642D-01
      2b  0.757888D+00  0.744457D-01  0.215857D-02  0.502218D-01 -0.619086D-03
      3a -0.226397D-02  0.230482D-01  0.712426D+00 -0.306205D-01 -0.510893D+00
      3b  0.230482D-01  0.226397D-02  0.306205D-01  0.712426D+00 -0.803487D-02
      4a  0.197794D-01 -0.201363D+00 -0.507138D+00  0.217971D-01  0.862442D+00
      4b -0.201363D+00 -0.197794D-01 -0.217971D-01 -0.507138D+00  0.135637D-01
      5a -0.920938D-02  0.937553D-01  0.702795D+00 -0.302066D-01  0.412391D+00
      5b  0.937553D-01  0.920938D-02  0.302066D-01  0.702795D+00  0.648573D-02
      6a -0.920938D-02  0.937553D-01 -0.702795D+00  0.302066D-01  0.412391D+00
      6b  0.937553D-01  0.920938D-02 -0.302066D-01 -0.702795D+00  0.648573D-02
      7a  0.197794D-01 -0.201363D+00  0.507138D+00 -0.217971D-01  0.862442D+00
      7b -0.201363D+00 -0.197794D-01  0.217971D-01  0.507138D+00  0.135637D-01
      8a -0.226397D-02  0.230482D-01 -0.712426D+00  0.306205D-01 -0.510893D+00
      8b  0.230482D-01  0.226397D-02 -0.306205D-01 -0.712426D+00 -0.803487D-02
      9a -0.744457D-01  0.757888D+00 -0.502218D-01  0.215857D-02 -0.393642D-01
      9b  0.757888D+00  0.744457D-01 -0.215857D-02 -0.502218D-01 -0.619086D-03
     10a  0.226575D-01 -0.230663D+00 -0.421360D+00  0.181103D-01 -0.778337D+00
     10b -0.230663D+00 -0.226575D-01 -0.181103D-01 -0.421360D+00 -0.122410D-01
                16            17            18            19            20 
      1a  0.122410D-01 -0.901300D+00  0.173075D-01 -0.646151D+00 -0.524103D-02
      1b -0.778337D+00 -0.173075D-01 -0.901300D+00  0.524103D-02 -0.646151D+00
      2a  0.619086D-03  0.887262D-03 -0.170380D-04  0.328962D-01  0.266826D-03
      2b -0.393642D-01  0.170380D-04  0.887262D-03 -0.266826D-03  0.328962D-01
      3a  0.803487D-02  0.514312D+00 -0.987626D-02  0.107777D+01  0.874198D-02
      3b -0.510893D+00  0.987626D-02  0.514312D+00 -0.874198D-02  0.107777D+01
      4a -0.135637D-01  0.903708D+00 -0.173538D-01  0.551383D+00  0.447236D-02
      4b  0.862442D+00  0.173538D-01  0.903708D+00 -0.447236D-02  0.551383D+00
      5a -0.648573D-02  0.669976D+00 -0.128655D-01 -0.103306D+01 -0.837936D-02
      5b  0.412391D+00  0.128655D-01  0.669976D+00  0.837936D-02 -0.103306D+01
      6a -0.648573D-02 -0.669976D+00  0.128655D-01 -0.103306D+01 -0.837936D-02
      6b  0.412391D+00 -0.128655D-01 -0.669976D+00  0.837936D-02 -0.103306D+01
      7a -0.135637D-01 -0.903708D+00  0.173538D-01  0.551383D+00  0.447236D-02
      7b  0.862442D+00 -0.173538D-01 -0.903708D+00 -0.447236D-02  0.551383D+00
      8a  0.803487D-02 -0.514312D+00  0.987626D-02  0.107777D+01  0.874198D-02
      8b -0.510893D+00 -0.987626D-02 -0.514312D+00 -0.874198D-02  0.107777D+01
      9a  0.619086D-03 -0.887262D-03  0.170380D-04  0.328962D-01  0.266826D-03
      9b -0.393642D-01 -0.170380D-04 -0.887262D-03 -0.266826D-03  0.328962D-01
     10a  0.122410D-01  0.901300D+00 -0.173075D-01 -0.646151D+00 -0.524103D-02
     10b -0.778337D+00  0.173075D-01  0.901300D+00  0.524103D-02 -0.646151D+00
 bfr conversion (imaginary):
                 1             2             3             4             5 
      1a  0.000000D+00  0.000000D+00  0.000000D+00  0.000000D+00  0.000000D+00
      1b  0.000000D+00  0.000000D+00  0.000000D+00  0.000000D+00  0.000000D+00
      2a  0.000000D+00  0.000000D+00  0.000000D+00  0.000000D+00  0.000000D+00
      2b  0.000000D+00  0.000000D+00  0.000000D+00  0.000000D+00  0.000000D+00
      3a  0.000000D+00  0.000000D+00  0.000000D+00  0.000000D+00  0.000000D+00
      3b  0.000000D+00  0.000000D+00  0.000000D+00  0.000000D+00  0.000000D+00
      4a  0.000000D+00  0.000000D+00  0.000000D+00  0.000000D+00  0.000000D+00
      4b  0.000000D+00  0.000000D+00  0.000000D+00  0.000000D+00  0.000000D+00
      5a  0.000000D+00  0.000000D+00  0.000000D+00  0.000000D+00  0.000000D+00
      5b  0.000000D+00  0.000000D+00  0.000000D+00  0.000000D+00  0.000000D+00
      6a  0.000000D+00  0.000000D+00  0.000000D+00  0.000000D+00  0.000000D+00
      6b  0.000000D+00  0.000000D+00  0.000000D+00  0.000000D+00  0.000000D+00
      7a  0.000000D+00  0.000000D+00  0.000000D+00  0.000000D+00  0.000000D+00
      7b  0.000000D+00  0.000000D+00  0.000000D+00  0.000000D+00  0.000000D+00
      8a  0.000000D+00  0.000000D+00  0.000000D+00  0.000000D+00  0.000000D+00
      8b  0.000000D+00  0.000000D+00  0.000000D+00  0.000000D+00  0.000000D+00
      9a  0.000000D+00  0.000000D+00  0.000000D+00  0.000000D+00  0.000000D+00
      9b  0.000000D+00  0.000000D+00  0.000000D+00  0.000000D+00  0.000000D+00
     10a  0.000000D+00  0.000000D+00  0.000000D+00  0.000000D+00  0.000000D+00
     10b  0.000000D+00  0.000000D+00  0.000000D+00  0.000000D+00  0.000000D+00
                 6             7             8             9            10 
      1a  0.000000D+00  0.000000D+00  0.000000D+00  0.000000D+00  0.000000D+00
      1b  0.000000D+00  0.000000D+00  0.000000D+00  0.000000D+00  0.000000D+00
      2a  0.000000D+00  0.000000D+00  0.000000D+00  0.000000D+00  0.000000D+00
      2b  0.000000D+00  0.000000D+00  0.000000D+00  0.000000D+00  0.000000D+00
      3a  0.000000D+00  0.000000D+00  0.000000D+00  0.000000D+00  0.000000D+00
      3b  0.000000D+00  0.000000D+00  0.000000D+00  0.000000D+00  0.000000D+00
      4a  0.000000D+00  0.000000D+00  0.000000D+00  0.000000D+00  0.000000D+00
      4b  0.000000D+00  0.000000D+00  0.000000D+00  0.000000D+00  0.000000D+00
      5a  0.000000D+00  0.000000D+00  0.000000D+00  0.000000D+00  0.000000D+00
      5b  0.000000D+00  0.000000D+00  0.000000D+00  0.000000D+00  0.000000D+00
      6a  0.000000D+00  0.000000D+00  0.000000D+00  0.000000D+00  0.000000D+00
      6b  0.000000D+00  0.000000D+00  0.000000D+00  0.000000D+00  0.000000D+00
      7a  0.000000D+00  0.000000D+00  0.000000D+00  0.000000D+00  0.000000D+00
      7b  0.000000D+00  0.000000D+00  0.000000D+00  0.000000D+00  0.000000D+00
      8a  0.000000D+00  0.000000D+00  0.000000D+00  0.000000D+00  0.000000D+00
      8b  0.000000D+00  0.000000D+00  0.000000D+00  0.000000D+00  0.000000D+00
      9a  0.000000D+00  0.000000D+00  0.000000D+00  0.000000D+00  0.000000D+00
      9b  0.000000D+00  0.000000D+00  0.000000D+00  0.000000D+00  0.000000D+00
     10a  0.000000D+00  0.000000D+00  0.000000D+00  0.000000D+00  0.000000D+00
     10b  0.000000D+00  0.000000D+00  0.000000D+00  0.000000D+00  0.000000D+00
                11            12            13            14            15 
      1a  0.000000D+00  0.000000D+00  0.000000D+00  0.000000D+00  0.000000D+00
      1b  0.000000D+00  0.000000D+00  0.000000D+00  0.000000D+00  0.000000D+00
      2a  0.000000D+00  0.000000D+00  0.000000D+00  0.000000D+00  0.000000D+00
      2b  0.000000D+00  0.000000D+00  0.000000D+00  0.000000D+00  0.000000D+00
      3a  0.000000D+00  0.000000D+00  0.000000D+00  0.000000D+00  0.000000D+00
      3b  0.000000D+00  0.000000D+00  0.000000D+00  0.000000D+00  0.000000D+00
      4a  0.000000D+00  0.000000D+00  0.000000D+00  0.000000D+00  0.000000D+00
      4b  0.000000D+00  0.000000D+00  0.000000D+00  0.000000D+00  0.000000D+00
      5a  0.000000D+00  0.000000D+00  0.000000D+00  0.000000D+00  0.000000D+00
      5b  0.000000D+00  0.000000D+00  0.000000D+00  0.000000D+00  0.000000D+00
      6a  0.000000D+00  0.000000D+00  0.000000D+00  0.000000D+00  0.000000D+00
      6b  0.000000D+00  0.000000D+00  0.000000D+00  0.000000D+00  0.000000D+00
      7a  0.000000D+00  0.000000D+00  0.000000D+00  0.000000D+00  0.000000D+00
      7b  0.000000D+00  0.000000D+00  0.000000D+00  0.000000D+00  0.000000D+00
      8a  0.000000D+00  0.000000D+00  0.000000D+00  0.000000D+00  0.000000D+00
      8b  0.000000D+00  0.000000D+00  0.000000D+00  0.000000D+00  0.000000D+00
      9a  0.000000D+00  0.000000D+00  0.000000D+00  0.000000D+00  0.000000D+00
      9b  0.000000D+00  0.000000D+00  0.000000D+00  0.000000D+00  0.000000D+00
     10a  0.000000D+00  0.000000D+00  0.000000D+00  0.000000D+00  0.000000D+00
     10b  0.000000D+00  0.000000D+00  0.000000D+00  0.000000D+00  0.000000D+00
                16            17            18            19            20 
      1a  0.000000D+00  0.000000D+00  0.000000D+00  0.000000D+00  0.000000D+00
      1b  0.000000D+00  0.000000D+00  0.000000D+00  0.000000D+00  0.000000D+00
      2a  0.000000D+00  0.000000D+00  0.000000D+00  0.000000D+00  0.000000D+00
      2b  0.000000D+00  0.000000D+00  0.000000D+00  0.000000D+00  0.000000D+00
      3a  0.000000D+00  0.000000D+00  0.000000D+00  0.000000D+00  0.000000D+00
      3b  0.000000D+00  0.000000D+00  0.000000D+00  0.000000D+00  0.000000D+00
      4a  0.000000D+00  0.000000D+00  0.000000D+00  0.000000D+00  0.000000D+00
      4b  0.000000D+00  0.000000D+00  0.000000D+00  0.000000D+00  0.000000D+00
      5a  0.000000D+00  0.000000D+00  0.000000D+00  0.000000D+00  0.000000D+00
      5b  0.000000D+00  0.000000D+00  0.000000D+00  0.000000D+00  0.000000D+00
      6a  0.000000D+00  0.000000D+00  0.000000D+00  0.000000D+00  0.000000D+00
      6b  0.000000D+00  0.000000D+00  0.000000D+00  0.000000D+00  0.000000D+00
      7a  0.000000D+00  0.000000D+00  0.000000D+00  0.000000D+00  0.000000D+00
      7b  0.000000D+00  0.000000D+00  0.000000D+00  0.000000D+00  0.000000D+00
      8a  0.000000D+00  0.000000D+00  0.000000D+00  0.000000D+00  0.000000D+00
      8b  0.000000D+00  0.000000D+00  0.000000D+00  0.000000D+00  0.000000D+00
      9a  0.000000D+00  0.000000D+00  0.000000D+00  0.000000D+00  0.000000D+00
      9b  0.000000D+00  0.000000D+00  0.000000D+00  0.000000D+00  0.000000D+00
     10a  0.000000D+00  0.000000D+00  0.000000D+00  0.000000D+00  0.000000D+00
     10b  0.000000D+00  0.000000D+00  0.000000D+00  0.000000D+00  0.000000D+00
 afr conversion (alpha, real):
                 1             2             3             4             5 
      1   0.189569D-01  0.141312D+00  0.250832D-01  0.275992D+00  0.115727D-01
      2   0.161495D-02  0.120384D-01  0.333024D-02  0.366429D-01  0.311374D-02
      3   0.333617D-01  0.248690D+00  0.177320D-01  0.195106D+00 -0.712241D-02
      4   0.209844D-01  0.156425D+00  0.268087D-01  0.294978D+00  0.114806D-01
      5   0.334771D-01  0.249551D+00 -0.159540D-01 -0.175543D+00 -0.816418D-02
      6   0.334771D-01  0.249551D+00  0.159540D-01  0.175543D+00 -0.816418D-02
      7   0.209844D-01  0.156425D+00 -0.268087D-01 -0.294978D+00  0.114806D-01
      8   0.333617D-01  0.248690D+00 -0.177320D-01 -0.195106D+00 -0.712241D-02
      9   0.161495D-02  0.120384D-01 -0.333024D-02 -0.366429D-01  0.311374D-02
     10   0.189569D-01  0.141312D+00 -0.250832D-01 -0.275992D+00  0.115727D-01
                 6             7             8             9            10 
      1   0.352427D+00  0.146733D-02 -0.276541D+00 -0.597918D-01 -0.253424D+00
      2   0.948239D-01  0.673933D-03 -0.127014D+00  0.173788D+00  0.736593D+00
      3  -0.216902D+00 -0.257367D-02  0.485050D+00  0.226946D-01  0.961900D-01
      4   0.349624D+00  0.126425D-02 -0.238267D+00 -0.478839D-01 -0.202954D+00
      5  -0.248627D+00  0.248463D-02 -0.468269D+00 -0.364046D-01 -0.154299D+00
      6  -0.248627D+00 -0.248463D-02  0.468269D+00  0.364046D-01  0.154299D+00
      7   0.349624D+00 -0.126425D-02  0.238267D+00  0.478839D-01  0.202954D+00
      8  -0.216902D+00  0.257367D-02 -0.485050D+00 -0.226946D-01 -0.961900D-01
      9   0.948239D-01 -0.673933D-03  0.127014D+00 -0.173788D+00 -0.736593D+00
     10   0.352427D+00 -0.146733D-02  0.276541D+00  0.597918D-01  0.253424D+00
                11            12            13            14            15 
      1   0.226575D-01 -0.230663D+00  0.421360D+00 -0.181103D-01 -0.778337D+00
      2  -0.744457D-01  0.757888D+00  0.502218D-01 -0.215857D-02 -0.393642D-01
      3  -0.226397D-02  0.230482D-01  0.712426D+00 -0.306205D-01 -0.510893D+00
      4   0.197794D-01 -0.201363D+00 -0.507138D+00  0.217971D-01  0.862442D+00
      5  -0.920938D-02  0.937553D-01  0.702795D+00 -0.302066D-01  0.412391D+00
      6  -0.920938D-02  0.937553D-01 -0.702795D+00  0.302066D-01  0.412391D+00
      7   0.197794D-01 -0.201363D+00  0.507138D+00 -0.217971D-01  0.862442D+00
      8  -0.226397D-02  0.230482D-01 -0.712426D+00  0.306205D-01 -0.510893D+00
      9  -0.744457D-01  0.757888D+00 -0.502218D-01  0.215857D-02 -0.393642D-01
     10   0.226575D-01 -0.230663D+00 -0.421360D+00  0.181103D-01 -0.778337D+00
                16            17            18            19            20 
      1   0.122410D-01 -0.901300D+00  0.173075D-01 -0.646151D+00 -0.524103D-02
      2   0.619086D-03  0.887262D-03 -0.170380D-04  0.328962D-01  0.266826D-03
      3   0.803487D-02  0.514312D+00 -0.987626D-02  0.107777D+01  0.874198D-02
      4  -0.135637D-01  0.903708D+00 -0.173538D-01  0.551383D+00  0.447236D-02
      5  -0.648573D-02  0.669976D+00 -0.128655D-01 -0.103306D+01 -0.837936D-02
      6  -0.648573D-02 -0.669976D+00  0.128655D-01 -0.103306D+01 -0.837936D-02
      7  -0.135637D-01 -0.903708D+00  0.173538D-01  0.551383D+00  0.447236D-02
      8   0.803487D-02 -0.514312D+00  0.987626D-02  0.107777D+01  0.874198D-02
      9   0.619086D-03 -0.887262D-03  0.170380D-04  0.328962D-01  0.266826D-03
     10   0.122410D-01  0.901300D+00 -0.173075D-01 -0.646151D+00 -0.524103D-02
 afr conversion (alpha, imaginary):
                 1             2             3             4             5 
      1   0.000000D+00  0.000000D+00  0.000000D+00  0.000000D+00  0.000000D+00
      2   0.000000D+00  0.000000D+00  0.000000D+00  0.000000D+00  0.000000D+00
      3   0.000000D+00  0.000000D+00  0.000000D+00  0.000000D+00  0.000000D+00
      4   0.000000D+00  0.000000D+00  0.000000D+00  0.000000D+00  0.000000D+00
      5   0.000000D+00  0.000000D+00  0.000000D+00  0.000000D+00  0.000000D+00
      6   0.000000D+00  0.000000D+00  0.000000D+00  0.000000D+00  0.000000D+00
      7   0.000000D+00  0.000000D+00  0.000000D+00  0.000000D+00  0.000000D+00
      8   0.000000D+00  0.000000D+00  0.000000D+00  0.000000D+00  0.000000D+00
      9   0.000000D+00  0.000000D+00  0.000000D+00  0.000000D+00  0.000000D+00
     10   0.000000D+00  0.000000D+00  0.000000D+00  0.000000D+00  0.000000D+00
                 6             7             8             9            10 
      1   0.000000D+00  0.000000D+00  0.000000D+00  0.000000D+00  0.000000D+00
      2   0.000000D+00  0.000000D+00  0.000000D+00  0.000000D+00  0.000000D+00
      3   0.000000D+00  0.000000D+00  0.000000D+00  0.000000D+00  0.000000D+00
      4   0.000000D+00  0.000000D+00  0.000000D+00  0.000000D+00  0.000000D+00
      5   0.000000D+00  0.000000D+00  0.000000D+00  0.000000D+00  0.000000D+00
      6   0.000000D+00  0.000000D+00  0.000000D+00  0.000000D+00  0.000000D+00
      7   0.000000D+00  0.000000D+00  0.000000D+00  0.000000D+00  0.000000D+00
      8   0.000000D+00  0.000000D+00  0.000000D+00  0.000000D+00  0.000000D+00
      9   0.000000D+00  0.000000D+00  0.000000D+00  0.000000D+00  0.000000D+00
     10   0.000000D+00  0.000000D+00  0.000000D+00  0.000000D+00  0.000000D+00
                11            12            13            14            15 
      1   0.000000D+00  0.000000D+00  0.000000D+00  0.000000D+00  0.000000D+00
      2   0.000000D+00  0.000000D+00  0.000000D+00  0.000000D+00  0.000000D+00
      3   0.000000D+00  0.000000D+00  0.000000D+00  0.000000D+00  0.000000D+00
      4   0.000000D+00  0.000000D+00  0.000000D+00  0.000000D+00  0.000000D+00
      5   0.000000D+00  0.000000D+00  0.000000D+00  0.000000D+00  0.000000D+00
      6   0.000000D+00  0.000000D+00  0.000000D+00  0.000000D+00  0.000000D+00
      7   0.000000D+00  0.000000D+00  0.000000D+00  0.000000D+00  0.000000D+00
      8   0.000000D+00  0.000000D+00  0.000000D+00  0.000000D+00  0.000000D+00
      9   0.000000D+00  0.000000D+00  0.000000D+00  0.000000D+00  0.000000D+00
     10   0.000000D+00  0.000000D+00  0.000000D+00  0.000000D+00  0.000000D+00
                16            17            18            19            20 
      1   0.000000D+00  0.000000D+00  0.000000D+00  0.000000D+00  0.000000D+00
      2   0.000000D+00  0.000000D+00  0.000000D+00  0.000000D+00  0.000000D+00
      3   0.000000D+00  0.000000D+00  0.000000D+00  0.000000D+00  0.000000D+00
      4   0.000000D+00  0.000000D+00  0.000000D+00  0.000000D+00  0.000000D+00
      5   0.000000D+00  0.000000D+00  0.000000D+00  0.000000D+00  0.000000D+00
      6   0.000000D+00  0.000000D+00  0.000000D+00  0.000000D+00  0.000000D+00
      7   0.000000D+00  0.000000D+00  0.000000D+00  0.000000D+00  0.000000D+00
      8   0.000000D+00  0.000000D+00  0.000000D+00  0.000000D+00  0.000000D+00
      9   0.000000D+00  0.000000D+00  0.000000D+00  0.000000D+00  0.000000D+00
     10   0.000000D+00  0.000000D+00  0.000000D+00  0.000000D+00  0.000000D+00
 afr conversion (beta, real):
                 1             2             3             4             5 
      1   0.141312D+00 -0.189569D-01  0.275992D+00 -0.250832D-01  0.352427D+00
      2   0.120384D-01 -0.161495D-02  0.366429D-01 -0.333024D-02  0.948239D-01
      3   0.248690D+00 -0.333617D-01  0.195106D+00 -0.177320D-01 -0.216902D+00
      4   0.156425D+00 -0.209844D-01  0.294978D+00 -0.268087D-01  0.349624D+00
      5   0.249551D+00 -0.334771D-01 -0.175543D+00  0.159540D-01 -0.248627D+00
      6   0.249551D+00 -0.334771D-01  0.175543D+00 -0.159540D-01 -0.248627D+00
      7   0.156425D+00 -0.209844D-01 -0.294978D+00  0.268087D-01  0.349624D+00
      8   0.248690D+00 -0.333617D-01 -0.195106D+00  0.177320D-01 -0.216902D+00
      9   0.120384D-01 -0.161495D-02 -0.366429D-01  0.333024D-02  0.948239D-01
     10   0.141312D+00 -0.189569D-01 -0.275992D+00  0.250832D-01  0.352427D+00
                 6             7             8             9            10 
      1  -0.115727D-01 -0.276541D+00 -0.146733D-02 -0.253424D+00  0.597918D-01
      2  -0.311374D-02 -0.127014D+00 -0.673933D-03  0.736593D+00 -0.173788D+00
      3   0.712241D-02  0.485050D+00  0.257367D-02  0.961900D-01 -0.226946D-01
      4  -0.114806D-01 -0.238267D+00 -0.126425D-02 -0.202954D+00  0.478839D-01
      5   0.816418D-02 -0.468269D+00 -0.248463D-02 -0.154299D+00  0.364046D-01
      6   0.816418D-02  0.468269D+00  0.248463D-02  0.154299D+00 -0.364046D-01
      7  -0.114806D-01  0.238267D+00  0.126425D-02  0.202954D+00 -0.478839D-01
      8   0.712241D-02 -0.485050D+00 -0.257367D-02 -0.961900D-01  0.226946D-01
      9  -0.311374D-02  0.127014D+00  0.673933D-03 -0.736593D+00  0.173788D+00
     10  -0.115727D-01  0.276541D+00  0.146733D-02  0.253424D+00 -0.597918D-01
                11            12            13            14            15 
      1  -0.230663D+00 -0.226575D-01  0.181103D-01  0.421360D+00 -0.122410D-01
      2   0.757888D+00  0.744457D-01  0.215857D-02  0.502218D-01 -0.619086D-03
      3   0.230482D-01  0.226397D-02  0.306205D-01  0.712426D+00 -0.803487D-02
      4  -0.201363D+00 -0.197794D-01 -0.217971D-01 -0.507138D+00  0.135637D-01
      5   0.937553D-01  0.920938D-02  0.302066D-01  0.702795D+00  0.648573D-02
      6   0.937553D-01  0.920938D-02 -0.302066D-01 -0.702795D+00  0.648573D-02
      7  -0.201363D+00 -0.197794D-01  0.217971D-01  0.507138D+00  0.135637D-01
      8   0.230482D-01  0.226397D-02 -0.306205D-01 -0.712426D+00 -0.803487D-02
      9   0.757888D+00  0.744457D-01 -0.215857D-02 -0.502218D-01 -0.619086D-03
     10  -0.230663D+00 -0.226575D-01 -0.181103D-01 -0.421360D+00 -0.122410D-01
                16            17            18            19            20 
      1  -0.778337D+00 -0.173075D-01 -0.901300D+00  0.524103D-02 -0.646151D+00
      2  -0.393642D-01  0.170380D-04  0.887262D-03 -0.266826D-03  0.328962D-01
      3  -0.510893D+00  0.987626D-02  0.514312D+00 -0.874198D-02  0.107777D+01
      4   0.862442D+00  0.173538D-01  0.903708D+00 -0.447236D-02  0.551383D+00
      5   0.412391D+00  0.128655D-01  0.669976D+00  0.837936D-02 -0.103306D+01
      6   0.412391D+00 -0.128655D-01 -0.669976D+00  0.837936D-02 -0.103306D+01
      7   0.862442D+00 -0.173538D-01 -0.903708D+00 -0.447236D-02  0.551383D+00
      8  -0.510893D+00 -0.987626D-02 -0.514312D+00 -0.874198D-02  0.107777D+01
      9  -0.393642D-01 -0.170380D-04 -0.887262D-03 -0.266826D-03  0.328962D-01
     10  -0.778337D+00  0.173075D-01  0.901300D+00  0.524103D-02 -0.646151D+00
 afr conversion (beta, imaginary):
                 1             2             3             4             5 
      1   0.000000D+00  0.000000D+00  0.000000D+00  0.000000D+00  0.000000D+00
      2   0.000000D+00  0.000000D+00  0.000000D+00  0.000000D+00  0.000000D+00
      3   0.000000D+00  0.000000D+00  0.000000D+00  0.000000D+00  0.000000D+00
      4   0.000000D+00  0.000000D+00  0.000000D+00  0.000000D+00  0.000000D+00
      5   0.000000D+00  0.000000D+00  0.000000D+00  0.000000D+00  0.000000D+00
      6   0.000000D+00  0.000000D+00  0.000000D+00  0.000000D+00  0.000000D+00
      7   0.000000D+00  0.000000D+00  0.000000D+00  0.000000D+00  0.000000D+00
      8   0.000000D+00  0.000000D+00  0.000000D+00  0.000000D+00  0.000000D+00
      9   0.000000D+00  0.000000D+00  0.000000D+00  0.000000D+00  0.000000D+00
     10   0.000000D+00  0.000000D+00  0.000000D+00  0.000000D+00  0.000000D+00
                 6             7             8             9            10 
      1   0.000000D+00  0.000000D+00  0.000000D+00  0.000000D+00  0.000000D+00
      2   0.000000D+00  0.000000D+00  0.000000D+00  0.000000D+00  0.000000D+00
      3   0.000000D+00  0.000000D+00  0.000000D+00  0.000000D+00  0.000000D+00
      4   0.000000D+00  0.000000D+00  0.000000D+00  0.000000D+00  0.000000D+00
      5   0.000000D+00  0.000000D+00  0.000000D+00  0.000000D+00  0.000000D+00
      6   0.000000D+00  0.000000D+00  0.000000D+00  0.000000D+00  0.000000D+00
      7   0.000000D+00  0.000000D+00  0.000000D+00  0.000000D+00  0.000000D+00
      8   0.000000D+00  0.000000D+00  0.000000D+00  0.000000D+00  0.000000D+00
      9   0.000000D+00  0.000000D+00  0.000000D+00  0.000000D+00  0.000000D+00
     10   0.000000D+00  0.000000D+00  0.000000D+00  0.000000D+00  0.000000D+00
                11            12            13            14            15 
      1   0.000000D+00  0.000000D+00  0.000000D+00  0.000000D+00  0.000000D+00
      2   0.000000D+00  0.000000D+00  0.000000D+00  0.000000D+00  0.000000D+00
      3   0.000000D+00  0.000000D+00  0.000000D+00  0.000000D+00  0.000000D+00
      4   0.000000D+00  0.000000D+00  0.000000D+00  0.000000D+00  0.000000D+00
      5   0.000000D+00  0.000000D+00  0.000000D+00  0.000000D+00  0.000000D+00
      6   0.000000D+00  0.000000D+00  0.000000D+00  0.000000D+00  0.000000D+00
      7   0.000000D+00  0.000000D+00  0.000000D+00  0.000000D+00  0.000000D+00
      8   0.000000D+00  0.000000D+00  0.000000D+00  0.000000D+00  0.000000D+00
      9   0.000000D+00  0.000000D+00  0.000000D+00  0.000000D+00  0.000000D+00
     10   0.000000D+00  0.000000D+00  0.000000D+00  0.000000D+00  0.000000D+00
                16            17            18            19            20 
      1   0.000000D+00  0.000000D+00  0.000000D+00  0.000000D+00  0.000000D+00
      2   0.000000D+00  0.000000D+00  0.000000D+00  0.000000D+00  0.000000D+00
      3   0.000000D+00  0.000000D+00  0.000000D+00  0.000000D+00  0.000000D+00
      4   0.000000D+00  0.000000D+00  0.000000D+00  0.000000D+00  0.000000D+00
      5   0.000000D+00  0.000000D+00  0.000000D+00  0.000000D+00  0.000000D+00
      6   0.000000D+00  0.000000D+00  0.000000D+00  0.000000D+00  0.000000D+00
      7   0.000000D+00  0.000000D+00  0.000000D+00  0.000000D+00  0.000000D+00
      8   0.000000D+00  0.000000D+00  0.000000D+00  0.000000D+00  0.000000D+00
      9   0.000000D+00  0.000000D+00  0.000000D+00  0.000000D+00  0.000000D+00
     10   0.000000D+00  0.000000D+00  0.000000D+00  0.000000D+00  0.000000D+00
 jaja in hckghf.F, ISPECT =                     548
Spin block MO for GHF transformation
NOA =   10   NOB =   10
NVA =   10   NVB =   10
 NOAvA in Hack                     100
 jaja in tranN3.F, ISPECT =                     548
 in l802/tranN3.F, LSPECT =                      800
 NMat, NBtSiz,MDV                    8372                   16000
                133954722
 TranN3:  NGot= 134217728 NBasic=    263006 NTTT=       550 NMat=      8372.
 Defined bucket =                      51                   10000
 Defined bucket =                      52                   10000
 Defined bucket =                      53                   10000
 Defined bucket =                      55                   10000
 Defined bucket =                      57                   10000
 Defined bucket =                      58                   10000
 Defined bucket =                      60                   10000
 Defined bucket =                      72                   10000
 Defined bucket =                      73                   10000
 Defined bucket =                      74                   10000
 Defined bucket =                      75                   10000
 Defined bucket =                      76                   10000
 (IK/LS) integrals will be saved in memory.
 TrCghf made   2 passes through the AO integrals.
 jaja DoHack is true or false? F
 jaja in hckghf.F, NBasis=                      10
 jaja in hckGHF/FixOG, LC =                      800
 jaja in hckGHF/FixOG, IRwC=                      548
 bfr conversion (alpha, real):
                 1             2             3             4             5 
      1   0.189569D-01  0.141312D+00  0.250832D-01  0.275992D+00  0.115727D-01
      2   0.161495D-02  0.120384D-01  0.333024D-02  0.366429D-01  0.311374D-02
      3   0.333617D-01  0.248690D+00  0.177320D-01  0.195106D+00 -0.712241D-02
      4   0.209844D-01  0.156425D+00  0.268087D-01  0.294978D+00  0.114806D-01
      5   0.334771D-01  0.249551D+00 -0.159540D-01 -0.175543D+00 -0.816418D-02
      6   0.334771D-01  0.249551D+00  0.159540D-01  0.175543D+00 -0.816418D-02
      7   0.209844D-01  0.156425D+00 -0.268087D-01 -0.294978D+00  0.114806D-01
      8   0.333617D-01  0.248690D+00 -0.177320D-01 -0.195106D+00 -0.712241D-02
      9   0.161495D-02  0.120384D-01 -0.333024D-02 -0.366429D-01  0.311374D-02
     10   0.189569D-01  0.141312D+00 -0.250832D-01 -0.275992D+00  0.115727D-01
                 6             7             8             9            10 
      1   0.352427D+00  0.146733D-02 -0.276541D+00 -0.597918D-01 -0.253424D+00
      2   0.948239D-01  0.673933D-03 -0.127014D+00  0.173788D+00  0.736593D+00
      3  -0.216902D+00 -0.257367D-02  0.485050D+00  0.226946D-01  0.961900D-01
      4   0.349624D+00  0.126425D-02 -0.238267D+00 -0.478839D-01 -0.202954D+00
      5  -0.248627D+00  0.248463D-02 -0.468269D+00 -0.364046D-01 -0.154299D+00
      6  -0.248627D+00 -0.248463D-02  0.468269D+00  0.364046D-01  0.154299D+00
      7   0.349624D+00 -0.126425D-02  0.238267D+00  0.478839D-01  0.202954D+00
      8  -0.216902D+00  0.257367D-02 -0.485050D+00 -0.226946D-01 -0.961900D-01
      9   0.948239D-01 -0.673933D-03  0.127014D+00 -0.173788D+00 -0.736593D+00
     10   0.352427D+00 -0.146733D-02  0.276541D+00  0.597918D-01  0.253424D+00
                11            12            13            14            15 
      1   0.226575D-01 -0.230663D+00  0.421360D+00 -0.181103D-01 -0.778337D+00
      2  -0.744457D-01  0.757888D+00  0.502218D-01 -0.215857D-02 -0.393642D-01
      3  -0.226397D-02  0.230482D-01  0.712426D+00 -0.306205D-01 -0.510893D+00
      4   0.197794D-01 -0.201363D+00 -0.507138D+00  0.217971D-01  0.862442D+00
      5  -0.920938D-02  0.937553D-01  0.702795D+00 -0.302066D-01  0.412391D+00
      6  -0.920938D-02  0.937553D-01 -0.702795D+00  0.302066D-01  0.412391D+00
      7   0.197794D-01 -0.201363D+00  0.507138D+00 -0.217971D-01  0.862442D+00
      8  -0.226397D-02  0.230482D-01 -0.712426D+00  0.306205D-01 -0.510893D+00
      9  -0.744457D-01  0.757888D+00 -0.502218D-01  0.215857D-02 -0.393642D-01
     10   0.226575D-01 -0.230663D+00 -0.421360D+00  0.181103D-01 -0.778337D+00
                16            17            18            19            20 
      1   0.122410D-01 -0.901300D+00  0.173075D-01 -0.646151D+00 -0.524103D-02
      2   0.619086D-03  0.887262D-03 -0.170380D-04  0.328962D-01  0.266826D-03
      3   0.803487D-02  0.514312D+00 -0.987626D-02  0.107777D+01  0.874198D-02
      4  -0.135637D-01  0.903708D+00 -0.173538D-01  0.551383D+00  0.447236D-02
      5  -0.648573D-02  0.669976D+00 -0.128655D-01 -0.103306D+01 -0.837936D-02
      6  -0.648573D-02 -0.669976D+00  0.128655D-01 -0.103306D+01 -0.837936D-02
      7  -0.135637D-01 -0.903708D+00  0.173538D-01  0.551383D+00  0.447236D-02
      8   0.803487D-02 -0.514312D+00  0.987626D-02  0.107777D+01  0.874198D-02
      9   0.619086D-03 -0.887262D-03  0.170380D-04  0.328962D-01  0.266826D-03
     10   0.122410D-01  0.901300D+00 -0.173075D-01 -0.646151D+00 -0.524103D-02
 bfr conversion (alpha, imaginary):
                 1             2             3             4             5 
      1   0.000000D+00  0.000000D+00  0.000000D+00  0.000000D+00  0.000000D+00
      2   0.000000D+00  0.000000D+00  0.000000D+00  0.000000D+00  0.000000D+00
      3   0.000000D+00  0.000000D+00  0.000000D+00  0.000000D+00  0.000000D+00
      4   0.000000D+00  0.000000D+00  0.000000D+00  0.000000D+00  0.000000D+00
      5   0.000000D+00  0.000000D+00  0.000000D+00  0.000000D+00  0.000000D+00
      6   0.000000D+00  0.000000D+00  0.000000D+00  0.000000D+00  0.000000D+00
      7   0.000000D+00  0.000000D+00  0.000000D+00  0.000000D+00  0.000000D+00
      8   0.000000D+00  0.000000D+00  0.000000D+00  0.000000D+00  0.000000D+00
      9   0.000000D+00  0.000000D+00  0.000000D+00  0.000000D+00  0.000000D+00
     10   0.000000D+00  0.000000D+00  0.000000D+00  0.000000D+00  0.000000D+00
                 6             7             8             9            10 
      1   0.000000D+00  0.000000D+00  0.000000D+00  0.000000D+00  0.000000D+00
      2   0.000000D+00  0.000000D+00  0.000000D+00  0.000000D+00  0.000000D+00
      3   0.000000D+00  0.000000D+00  0.000000D+00  0.000000D+00  0.000000D+00
      4   0.000000D+00  0.000000D+00  0.000000D+00  0.000000D+00  0.000000D+00
      5   0.000000D+00  0.000000D+00  0.000000D+00  0.000000D+00  0.000000D+00
      6   0.000000D+00  0.000000D+00  0.000000D+00  0.000000D+00  0.000000D+00
      7   0.000000D+00  0.000000D+00  0.000000D+00  0.000000D+00  0.000000D+00
      8   0.000000D+00  0.000000D+00  0.000000D+00  0.000000D+00  0.000000D+00
      9   0.000000D+00  0.000000D+00  0.000000D+00  0.000000D+00  0.000000D+00
     10   0.000000D+00  0.000000D+00  0.000000D+00  0.000000D+00  0.000000D+00
                11            12            13            14            15 
      1   0.000000D+00  0.000000D+00  0.000000D+00  0.000000D+00  0.000000D+00
[...]
      6b-0.460976D-02 -0.805444D-01 -0.190191D-01 -0.384102D-01 -0.142091D-01
      7a-0.195190D+00  0.101649D-01  0.546350D-01  0.550335D-03 -0.220390D+00
      7b 0.207206D-01 -0.109614D+00 -0.379348D-01  0.745232D-01 -0.666427D-03
      8a-0.184185D+00  0.256494D-02 -0.813881D-01  0.311564D-02 -0.165949D+00
      8b-0.132734D-02 -0.116098D+00  0.167803D-01 -0.275798D-01 -0.836101D-03
      9a 0.142693D+00 -0.774950D-02 -0.363184D+00  0.322050D-02 -0.569305D-01
      9b-0.539212D-01  0.363577D-01  0.169555D+00 -0.193670D+00  0.172736D-01
     10a-0.195035D+00  0.102194D-01  0.945935D-01 -0.110941D-02 -0.188861D+00
     10b 0.232790D-01 -0.108417D+00 -0.472811D-01  0.841088D-01 -0.168608D-02
                3b            4a            4b            5a            5b
      3b 0.519775D+00
      4a-0.944056D-02  0.808545D+00
      4b-0.107837D-01 -0.183422D-01  0.603846D+00
      5a-0.207509D-02 -0.190287D+00  0.733180D-03  0.604434D+00
      5b-0.160300D+00 -0.485795D-02 -0.147786D+00 -0.138738D-01  0.516754D+00
      6a-0.150785D-01  0.215452D-01 -0.872403D-02 -0.100918D+00  0.450103D-03
      6b 0.509627D+00 -0.640481D-02 -0.440641D-01 -0.216428D-02 -0.133238D+00
      7a 0.311403D-02 -0.204018D+00  0.106448D-01  0.580451D-01 -0.107440D-01
      7b-0.143371D+00  0.189347D-01 -0.112056D+00 -0.842473D-02 -0.555661D-01
      8a-0.205178D-02 -0.209524D+00  0.281739D-02  0.611751D+00 -0.146400D-01
      8b-0.191219D+00 -0.963066D-03 -0.144299D+00 -0.137706D-01  0.511733D+00
      9a 0.360893D-02  0.122952D+00 -0.744030D-02 -0.135346D-01 -0.339422D-02
      9b-0.201563D-01 -0.459255D-01  0.185028D-01 -0.104609D-01  0.122027D-01
     10a 0.220619D-02 -0.199169D+00  0.104962D-01  0.112452D-01 -0.904995D-02
     10b-0.119684D+00  0.210519D-01 -0.107450D+00 -0.707120D-02 -0.951408D-01
                6a            6b            7a            7b            8a
      6a 0.631663D+00
      6b-0.159803D-01  0.503260D+00
      7a-0.214355D+00  0.240057D-02  0.789510D+00
      7b-0.319056D-02 -0.137453D+00 -0.189200D-01  0.596480D+00
      8a-0.130309D+00 -0.243419D-02  0.104973D+00 -0.960849D-02  0.624463D+00
      8b-0.670897D-03 -0.162808D+00 -0.115638D-01 -0.984385D-02 -0.147567D-01
      9a-0.863439D-01  0.381651D-02  0.798848D-01  0.389723D-02 -0.229587D-01
      9b 0.268945D-01 -0.469893D-01 -0.327823D-02 -0.831733D-02 -0.699978D-02
     10a-0.182607D+00  0.137498D-02  0.761824D+00 -0.169560D-01  0.569734D-01
     10b-0.471359D-02 -0.114579D+00 -0.177824D-01  0.600514D+00 -0.834605D-02
                8b            9a            9b           10a           10b
      8b 0.512770D+00
      9a-0.347736D-02  0.148807D+00
      9b-0.174697D-01  0.611297D-02  0.612748D+00
     10a-0.992288D-02  0.659398D-01  0.614176D-03  0.739877D+00
     10b-0.484645D-01  0.416810D-02 -0.339514D-01 -0.161245D-01  0.608866D+00
 jaja lower-tri density matrix (imaginary):
                1a            1b            2a            2b            3a
      1a 0.000000D+00
      1b 0.000000D+00  0.000000D+00
      2a 0.000000D+00  0.000000D+00  0.000000D+00
      2b 0.000000D+00  0.000000D+00  0.000000D+00  0.000000D+00
      3a 0.000000D+00  0.000000D+00  0.000000D+00  0.000000D+00  0.000000D+00
      3b 0.000000D+00  0.000000D+00  0.000000D+00  0.000000D+00  0.000000D+00
      4a 0.000000D+00  0.000000D+00  0.000000D+00  0.000000D+00  0.000000D+00
      4b 0.000000D+00  0.000000D+00  0.000000D+00  0.000000D+00  0.000000D+00
      5a 0.000000D+00  0.000000D+00  0.000000D+00  0.000000D+00  0.000000D+00
      5b 0.000000D+00  0.000000D+00  0.000000D+00  0.000000D+00  0.000000D+00
      6a 0.000000D+00  0.000000D+00  0.000000D+00  0.000000D+00  0.000000D+00
      6b 0.000000D+00  0.000000D+00  0.000000D+00  0.000000D+00  0.000000D+00
      7a 0.000000D+00  0.000000D+00  0.000000D+00  0.000000D+00  0.000000D+00
      7b 0.000000D+00  0.000000D+00  0.000000D+00  0.000000D+00  0.000000D+00
      8a 0.000000D+00  0.000000D+00  0.000000D+00  0.000000D+00  0.000000D+00
      8b 0.000000D+00  0.000000D+00  0.000000D+00  0.000000D+00  0.000000D+00
      9a 0.000000D+00  0.000000D+00  0.000000D+00  0.000000D+00  0.000000D+00
      9b 0.000000D+00  0.000000D+00  0.000000D+00  0.000000D+00  0.000000D+00
     10a 0.000000D+00  0.000000D+00  0.000000D+00  0.000000D+00  0.000000D+00
     10b 0.000000D+00  0.000000D+00  0.000000D+00  0.000000D+00  0.000000D+00
                3b            4a            4b            5a            5b
      3b 0.000000D+00
      4a 0.000000D+00  0.000000D+00
      4b 0.000000D+00  0.000000D+00  0.000000D+00
      5a 0.000000D+00  0.000000D+00  0.000000D+00  0.000000D+00
      5b 0.000000D+00  0.000000D+00  0.000000D+00  0.000000D+00  0.000000D+00
      6a 0.000000D+00  0.000000D+00  0.000000D+00  0.000000D+00  0.000000D+00
      6b 0.000000D+00  0.000000D+00  0.000000D+00  0.000000D+00  0.000000D+00
      7a 0.000000D+00  0.000000D+00  0.000000D+00  0.000000D+00  0.000000D+00
      7b 0.000000D+00  0.000000D+00  0.000000D+00  0.000000D+00  0.000000D+00
      8a 0.000000D+00  0.000000D+00  0.000000D+00  0.000000D+00  0.000000D+00
      8b 0.000000D+00  0.000000D+00  0.000000D+00  0.000000D+00  0.000000D+00
      9a 0.000000D+00  0.000000D+00  0.000000D+00  0.000000D+00  0.000000D+00
      9b 0.000000D+00  0.000000D+00  0.000000D+00  0.000000D+00  0.000000D+00
     10a 0.000000D+00  0.000000D+00  0.000000D+00  0.000000D+00  0.000000D+00
     10b 0.000000D+00  0.000000D+00  0.000000D+00  0.000000D+00  0.000000D+00
                6a            6b            7a            7b            8a
      6a 0.000000D+00
      6b 0.000000D+00  0.000000D+00
      7a 0.000000D+00  0.000000D+00  0.000000D+00
      7b 0.000000D+00  0.000000D+00  0.000000D+00  0.000000D+00
      8a 0.000000D+00  0.000000D+00  0.000000D+00  0.000000D+00  0.000000D+00
      8b 0.000000D+00  0.000000D+00  0.000000D+00  0.000000D+00  0.000000D+00
      9a 0.000000D+00  0.000000D+00  0.000000D+00  0.000000D+00  0.000000D+00
      9b 0.000000D+00  0.000000D+00  0.000000D+00  0.000000D+00  0.000000D+00
     10a 0.000000D+00  0.000000D+00  0.000000D+00  0.000000D+00  0.000000D+00
     10b 0.000000D+00  0.000000D+00  0.000000D+00  0.000000D+00  0.000000D+00
                8b            9a            9b           10a           10b
      8b 0.000000D+00
      9a 0.000000D+00  0.000000D+00
      9b 0.000000D+00  0.000000D+00  0.000000D+00
     10a 0.000000D+00  0.000000D+00  0.000000D+00  0.000000D+00
     10b 0.000000D+00  0.000000D+00  0.000000D+00  0.000000D+00  0.000000D+00
 jaja non-ortho density matrix               [Gau-style] (real):
                 1             2             3             4             5 
      1a  0.822011D+00 -0.214598D-01 -0.192985D+00  0.216162D-01  0.402437D-01
      1b -0.214598D-01  0.576511D+00  0.180622D-01  0.731968D-01 -0.965849D-02
      2a -0.192985D+00  0.180622D-01  0.118147D+01 -0.752344D-01  0.641569D-01
      2b  0.216162D-01  0.731968D-01 -0.752344D-01  0.890626D-01 -0.796098D-02
      3a  0.402437D-01 -0.965849D-02  0.641569D-01 -0.796098D-02  0.622527D+00
      3b -0.808166D-02 -0.486117D-01 -0.114834D-01 -0.421579D-01 -0.138691D-01
      4a  0.812099D+00 -0.193159D-01 -0.135000D+00  0.182631D-01  0.882263D-01
      4b -0.201423D-01  0.588130D+00  0.110877D-01  0.796686D-01 -0.113959D-01
      5a -0.165027D+00  0.410754D-03 -0.128740D+00  0.467034D-02 -0.133448D+00
      5b -0.567782D-02 -0.120048D+00  0.277484D-01 -0.458563D-01 -0.311790D-03
      6a -0.290378D-01 -0.658851D-02  0.127516D+00 -0.119524D-01  0.622498D+00
      6b -0.460976D-02 -0.805444D-01 -0.190191D-01 -0.384102D-01 -0.142091D-01
      7a -0.195190D+00  0.101649D-01  0.546350D-01  0.550335D-03 -0.220390D+00
      7b  0.207206D-01 -0.109614D+00 -0.379348D-01  0.745232D-01 -0.666427D-03
      8a -0.184185D+00  0.256494D-02 -0.813881D-01  0.311564D-02 -0.165949D+00
      8b -0.132734D-02 -0.116098D+00  0.167803D-01 -0.275798D-01 -0.836101D-03
      9a  0.142693D+00 -0.774950D-02 -0.363184D+00  0.322050D-02 -0.569305D-01
      9b -0.539212D-01  0.363577D-01  0.169555D+00 -0.193670D+00  0.172736D-01
     10a -0.195035D+00  0.102194D-01  0.945935D-01 -0.110941D-02 -0.188861D+00
     10b  0.232790D-01 -0.108417D+00 -0.472811D-01  0.841088D-01 -0.168608D-02
                 6             7             8             9            10 
      1a -0.808166D-02  0.812099D+00 -0.201423D-01 -0.165027D+00 -0.567782D-02
      1b -0.486117D-01 -0.193159D-01  0.588130D+00  0.410754D-03 -0.120048D+00
      2a -0.114834D-01 -0.135000D+00  0.110877D-01 -0.128740D+00  0.277484D-01
      2b -0.421579D-01  0.182631D-01  0.796686D-01  0.467034D-02 -0.458563D-01
      3a -0.138691D-01  0.882263D-01 -0.113959D-01 -0.133448D+00 -0.311790D-03
      3b  0.519775D+00 -0.944056D-02 -0.107837D-01 -0.207509D-02 -0.160300D+00
      4a -0.944056D-02  0.808545D+00 -0.183422D-01 -0.190287D+00 -0.485795D-02
      4b -0.107837D-01 -0.183422D-01  0.603846D+00  0.733180D-03 -0.147786D+00
      5a -0.207509D-02 -0.190287D+00  0.733180D-03  0.604434D+00 -0.138738D-01
      5b -0.160300D+00 -0.485795D-02 -0.147786D+00 -0.138738D-01  0.516754D+00
      6a -0.150785D-01  0.215452D-01 -0.872403D-02 -0.100918D+00  0.450103D-03
      6b  0.509627D+00 -0.640481D-02 -0.440641D-01 -0.216428D-02 -0.133238D+00
      7a  0.311403D-02 -0.204018D+00  0.106448D-01  0.580451D-01 -0.107440D-01
      7b -0.143371D+00  0.189347D-01 -0.112056D+00 -0.842473D-02 -0.555661D-01
      8a -0.205178D-02 -0.209524D+00  0.281739D-02  0.611751D+00 -0.146400D-01
      8b -0.191219D+00 -0.963066D-03 -0.144299D+00 -0.137706D-01  0.511733D+00
      9a  0.360893D-02  0.122952D+00 -0.744030D-02 -0.135346D-01 -0.339422D-02
      9b -0.201563D-01 -0.459255D-01  0.185028D-01 -0.104609D-01  0.122027D-01
     10a  0.220619D-02 -0.199169D+00  0.104962D-01  0.112452D-01 -0.904995D-02
     10b -0.119684D+00  0.210519D-01 -0.107450D+00 -0.707120D-02 -0.951408D-01
                11            12            13            14            15 
      1a -0.290378D-01 -0.460976D-02 -0.195190D+00  0.207206D-01 -0.184185D+00
      1b -0.658851D-02 -0.805444D-01  0.101649D-01 -0.109614D+00  0.256494D-02
      2a  0.127516D+00 -0.190191D-01  0.546350D-01 -0.379348D-01 -0.813881D-01
      2b -0.119524D-01 -0.384102D-01  0.550335D-03  0.745232D-01  0.311564D-02
      3a  0.622498D+00 -0.142091D-01 -0.220390D+00 -0.666427D-03 -0.165949D+00
      3b -0.150785D-01  0.509627D+00  0.311403D-02 -0.143371D+00 -0.205178D-02
      4a  0.215452D-01 -0.640481D-02 -0.204018D+00  0.189347D-01 -0.209524D+00
      4b -0.872403D-02 -0.440641D-01  0.106448D-01 -0.112056D+00  0.281739D-02
      5a -0.100918D+00 -0.216428D-02  0.580451D-01 -0.842473D-02  0.611751D+00
      5b  0.450103D-03 -0.133238D+00 -0.107440D-01 -0.555661D-01 -0.146400D-01
      6a  0.631663D+00 -0.159803D-01 -0.214355D+00 -0.319056D-02 -0.130309D+00
      6b -0.159803D-01  0.503260D+00  0.240057D-02 -0.137453D+00 -0.243419D-02
      7a -0.214355D+00  0.240057D-02  0.789510D+00 -0.189200D-01  0.104973D+00
      7b -0.319056D-02 -0.137453D+00 -0.189200D-01  0.596480D+00 -0.960849D-02
      8a -0.130309D+00 -0.243419D-02  0.104973D+00 -0.960849D-02  0.624463D+00
      8b -0.670897D-03 -0.162808D+00 -0.115638D-01 -0.984385D-02 -0.147567D-01
      9a -0.863439D-01  0.381651D-02  0.798848D-01  0.389723D-02 -0.229587D-01
      9b  0.268945D-01 -0.469893D-01 -0.327823D-02 -0.831733D-02 -0.699978D-02
     10a -0.182607D+00  0.137498D-02  0.761824D+00 -0.169560D-01  0.569734D-01
     10b -0.471359D-02 -0.114579D+00 -0.177824D-01  0.600514D+00 -0.834605D-02
                16            17            18            19            20 
      1a -0.132734D-02  0.142693D+00 -0.539212D-01 -0.195035D+00  0.232790D-01
      1b -0.116098D+00 -0.774950D-02  0.363577D-01  0.102194D-01 -0.108417D+00
      2a  0.167803D-01 -0.363184D+00  0.169555D+00  0.945935D-01 -0.472811D-01
      2b -0.275798D-01  0.322050D-02 -0.193670D+00 -0.110941D-02  0.841088D-01
      3a -0.836101D-03 -0.569305D-01  0.172736D-01 -0.188861D+00 -0.168608D-02
      3b -0.191219D+00  0.360893D-02 -0.201563D-01  0.220619D-02 -0.119684D+00
      4a -0.963066D-03  0.122952D+00 -0.459255D-01 -0.199169D+00  0.210519D-01
      4b -0.144299D+00 -0.744030D-02  0.185028D-01  0.104962D-01 -0.107450D+00
      5a -0.137706D-01 -0.135346D-01 -0.104609D-01  0.112452D-01 -0.707120D-02
      5b  0.511733D+00 -0.339422D-02  0.122027D-01 -0.904995D-02 -0.951408D-01
      6a -0.670897D-03 -0.863439D-01  0.268945D-01 -0.182607D+00 -0.471359D-02
      6b -0.162808D+00  0.381651D-02 -0.469893D-01  0.137498D-02 -0.114579D+00
      7a -0.115638D-01  0.798848D-01 -0.327823D-02  0.761824D+00 -0.177824D-01
      7b -0.984385D-02  0.389723D-02 -0.831733D-02 -0.169560D-01  0.600514D+00
      8a -0.147567D-01 -0.229587D-01 -0.699978D-02  0.569734D-01 -0.834605D-02
      8b  0.512770D+00 -0.347736D-02 -0.174697D-01 -0.992288D-02 -0.484645D-01
      9a -0.347736D-02  0.148807D+00  0.611297D-02  0.659398D-01  0.416810D-02
      9b -0.174697D-01  0.611297D-02  0.612748D+00  0.614176D-03 -0.339514D-01
     10a -0.992288D-02  0.659398D-01  0.614176D-03  0.739877D+00 -0.161245D-01
     10b -0.484645D-01  0.416810D-02 -0.339514D-01 -0.161245D-01  0.608866D+00
 jaja non-ortho density matrix               [Gau-style] (imaginary):
                 1             2             3             4             5 
      1a  0.000000D+00  0.000000D+00  0.000000D+00  0.000000D+00  0.000000D+00
      1b  0.000000D+00  0.000000D+00  0.000000D+00  0.000000D+00  0.000000D+00
      2a  0.000000D+00  0.000000D+00  0.000000D+00  0.000000D+00  0.000000D+00
      2b  0.000000D+00  0.000000D+00  0.000000D+00  0.000000D+00  0.000000D+00
      3a  0.000000D+00  0.000000D+00  0.000000D+00  0.000000D+00  0.000000D+00
      3b  0.000000D+00  0.000000D+00  0.000000D+00  0.000000D+00  0.000000D+00
      4a  0.000000D+00  0.000000D+00  0.000000D+00  0.000000D+00  0.000000D+00
      4b  0.000000D+00  0.000000D+00  0.000000D+00  0.000000D+00  0.000000D+00
      5a  0.000000D+00  0.000000D+00  0.000000D+00  0.000000D+00  0.000000D+00
      5b  0.000000D+00  0.000000D+00  0.000000D+00  0.000000D+00  0.000000D+00
      6a  0.000000D+00  0.000000D+00  0.000000D+00  0.000000D+00  0.000000D+00
      6b  0.000000D+00  0.000000D+00  0.000000D+00  0.000000D+00  0.000000D+00
      7a  0.000000D+00  0.000000D+00  0.000000D+00  0.000000D+00  0.000000D+00
      7b  0.000000D+00  0.000000D+00  0.000000D+00  0.000000D+00  0.000000D+00
      8a  0.000000D+00  0.000000D+00  0.000000D+00  0.000000D+00  0.000000D+00
      8b  0.000000D+00  0.000000D+00  0.000000D+00  0.000000D+00  0.000000D+00
      9a  0.000000D+00  0.000000D+00  0.000000D+00  0.000000D+00  0.000000D+00
      9b  0.000000D+00  0.000000D+00  0.000000D+00  0.000000D+00  0.000000D+00
     10a  0.000000D+00  0.000000D+00  0.000000D+00  0.000000D+00  0.000000D+00
     10b  0.000000D+00  0.000000D+00  0.000000D+00  0.000000D+00  0.000000D+00
                 6             7             8             9            10 
      1a  0.000000D+00  0.000000D+00  0.000000D+00  0.000000D+00  0.000000D+00
      1b  0.000000D+00  0.000000D+00  0.000000D+00  0.000000D+00  0.000000D+00
      2a  0.000000D+00  0.000000D+00  0.000000D+00  0.000000D+00  0.000000D+00
      2b  0.000000D+00  0.000000D+00  0.000000D+00  0.000000D+00  0.000000D+00
      3a  0.000000D+00  0.000000D+00  0.000000D+00  0.000000D+00  0.000000D+00
      3b  0.000000D+00  0.000000D+00  0.000000D+00  0.000000D+00  0.000000D+00
      4a  0.000000D+00  0.000000D+00  0.000000D+00  0.000000D+00  0.000000D+00
      4b  0.000000D+00  0.000000D+00  0.000000D+00  0.000000D+00  0.000000D+00
      5a  0.000000D+00  0.000000D+00  0.000000D+00  0.000000D+00  0.000000D+00
      5b  0.000000D+00  0.000000D+00  0.000000D+00  0.000000D+00  0.000000D+00
      6a  0.000000D+00  0.000000D+00  0.000000D+00  0.000000D+00  0.000000D+00
      6b  0.000000D+00  0.000000D+00  0.000000D+00  0.000000D+00  0.000000D+00
      7a  0.000000D+00  0.000000D+00  0.000000D+00  0.000000D+00  0.000000D+00
      7b  0.000000D+00  0.000000D+00  0.000000D+00  0.000000D+00  0.000000D+00
      8a  0.000000D+00  0.000000D+00  0.000000D+00  0.000000D+00  0.000000D+00
      8b  0.000000D+00  0.000000D+00  0.000000D+00  0.000000D+00  0.000000D+00
      9a  0.000000D+00  0.000000D+00  0.000000D+00  0.000000D+00  0.000000D+00
      9b  0.000000D+00  0.000000D+00  0.000000D+00  0.000000D+00  0.000000D+00
     10a  0.000000D+00  0.000000D+00  0.000000D+00  0.000000D+00  0.000000D+00
     10b  0.000000D+00  0.000000D+00  0.000000D+00  0.000000D+00  0.000000D+00
                11            12            13            14            15 
      1a  0.000000D+00  0.000000D+00  0.000000D+00  0.000000D+00  0.000000D+00
      1b  0.000000D+00  0.000000D+00  0.000000D+00  0.000000D+00  0.000000D+00
      2a  0.000000D+00  0.000000D+00  0.000000D+00  0.000000D+00  0.000000D+00
      2b  0.000000D+00  0.000000D+00  0.000000D+00  0.000000D+00  0.000000D+00
      3a  0.000000D+00  0.000000D+00  0.000000D+00  0.000000D+00  0.000000D+00
      3b  0.000000D+00  0.000000D+00  0.000000D+00  0.000000D+00  0.000000D+00
      4a  0.000000D+00  0.000000D+00  0.000000D+00  0.000000D+00  0.000000D+00
      4b  0.000000D+00  0.000000D+00  0.000000D+00  0.000000D+00  0.000000D+00
      5a  0.000000D+00  0.000000D+00  0.000000D+00  0.000000D+00  0.000000D+00
      5b  0.000000D+00  0.000000D+00  0.000000D+00  0.000000D+00  0.000000D+00
      6a  0.000000D+00  0.000000D+00  0.000000D+00  0.000000D+00  0.000000D+00
      6b  0.000000D+00  0.000000D+00  0.000000D+00  0.000000D+00  0.000000D+00
      7a  0.000000D+00  0.000000D+00  0.000000D+00  0.000000D+00  0.000000D+00
      7b  0.000000D+00  0.000000D+00  0.000000D+00  0.000000D+00  0.000000D+00
      8a  0.000000D+00  0.000000D+00  0.000000D+00  0.000000D+00  0.000000D+00
      8b  0.000000D+00  0.000000D+00  0.000000D+00  0.000000D+00  0.000000D+00
      9a  0.000000D+00  0.000000D+00  0.000000D+00  0.000000D+00  0.000000D+00
      9b  0.000000D+00  0.000000D+00  0.000000D+00  0.000000D+00  0.000000D+00
     10a  0.000000D+00  0.000000D+00  0.000000D+00  0.000000D+00  0.000000D+00
     10b  0.000000D+00  0.000000D+00  0.000000D+00  0.000000D+00  0.000000D+00
                16            17            18            19            20 
      1a  0.000000D+00  0.000000D+00  0.000000D+00  0.000000D+00  0.000000D+00
      1b  0.000000D+00  0.000000D+00  0.000000D+00  0.000000D+00  0.000000D+00
      2a  0.000000D+00  0.000000D+00  0.000000D+00  0.000000D+00  0.000000D+00
      2b  0.000000D+00  0.000000D+00  0.000000D+00  0.000000D+00  0.000000D+00
      3a  0.000000D+00  0.000000D+00  0.000000D+00  0.000000D+00  0.000000D+00
      3b  0.000000D+00  0.000000D+00  0.000000D+00  0.000000D+00  0.000000D+00
      4a  0.000000D+00  0.000000D+00  0.000000D+00  0.000000D+00  0.000000D+00
      4b  0.000000D+00  0.000000D+00  0.000000D+00  0.000000D+00  0.000000D+00
      5a  0.000000D+00  0.000000D+00  0.000000D+00  0.000000D+00  0.000000D+00
      5b  0.000000D+00  0.000000D+00  0.000000D+00  0.000000D+00  0.000000D+00
      6a  0.000000D+00  0.000000D+00  0.000000D+00  0.000000D+00  0.000000D+00
      6b  0.000000D+00  0.000000D+00  0.000000D+00  0.000000D+00  0.000000D+00
      7a  0.000000D+00  0.000000D+00  0.000000D+00  0.000000D+00  0.000000D+00
      7b  0.000000D+00  0.000000D+00  0.000000D+00  0.000000D+00  0.000000D+00
      8a  0.000000D+00  0.000000D+00  0.000000D+00  0.000000D+00  0.000000D+00
      8b  0.000000D+00  0.000000D+00  0.000000D+00  0.000000D+00  0.000000D+00
      9a  0.000000D+00  0.000000D+00  0.000000D+00  0.000000D+00  0.000000D+00
      9b  0.000000D+00  0.000000D+00  0.000000D+00  0.000000D+00  0.000000D+00
     10a  0.000000D+00  0.000000D+00  0.000000D+00  0.000000D+00  0.000000D+00
     10b  0.000000D+00  0.000000D+00  0.000000D+00  0.000000D+00  0.000000D+00
FORTRAN STOP
