 Entering Gaussian System, Link 0=gdv
 AtFile(1): H.gbs
            H     0
            S   10   1.00
               1000.000000000000            0.000068713567
                316.227766000000            0.000169141320
                100.000000000000            0.000823394812
                 31.622776600000            0.003425569236
                 10.000000000000            0.013951996000
                  3.162277660000            0.056909313560
                  1.000000000000            0.198286399900
                  0.316227766000            0.496922426700
                  0.100000000000            0.369846276400
                  0.031622776600            0.003752720039
            ****
 Initial command:
 /users/lcj1/GHF_hess/exe-dir/l1.exe "/users/lcj1/GHF_hess/h10_2rows/follow25/follow45/bck/Gau-13072.inp" -scrdir="/users/lcj1/GHF_hess/h10_2rows/follow25/follow45/bck/"
 Entering Link 1 = /users/lcj1/GHF_hess/exe-dir/l1.exe PID=     13073.
  
 Copyright (c) 1988,1990,1992,1993,1995,1998,2003,2009,2012,
            Gaussian, Inc.  All Rights Reserved.
  
 This is the private, development version of
 the Gaussian(R) DV system of programs. It is based on
 the Gaussian(R) 09 system (copyright 2009, Gaussian, Inc.),
 the Gaussian(R) 03 system (copyright 2003, Gaussian, Inc.),
 the Gaussian(R) 98 system (copyright 1998, Gaussian, Inc.),
 the Gaussian(R) 94 system (copyright 1995, Gaussian, Inc.),
 the Gaussian 92(TM) system (copyright 1992, Gaussian, Inc.),
 the Gaussian 90(TM) system (copyright 1990, Gaussian, Inc.),
 the Gaussian 88(TM) system (copyright 1988, Gaussian, Inc.),
 the Gaussian 86(TM) system (copyright 1986, Carnegie Mellon
 University), and the Gaussian 82(TM) system (copyright 1983,
 Carnegie Mellon University). Gaussian is a federally registered
 trademark of Gaussian, Inc.
  
 This software contains proprietary and confidential information,
 including trade secrets, belonging to Gaussian, Inc.
  
 This software is provided under written license and may be
 used, copied, transmitted, or stored only in accord with that
 written license.
  
 The following legend is applicable only to US Government
 contracts under FAR:
  
                    RESTRICTED RIGHTS LEGEND
  
 Use, reproduction and disclosure by the US Government is
 subject to restrictions as set forth in subparagraphs (a)
 and (c) of the Commercial Computer Software - Restricted
 Rights clause in FAR 52.227-19.
  
 Gaussian, Inc.
 340 Quinnipiac St., Bldg. 40, Wallingford CT 06492
  
  
 ---------------------------------------------------------------
 Warning -- This program may not be used in any manner that
 competes with the business of Gaussian, Inc. or will provide
 assistance to any competitor of Gaussian, Inc.  The licensee
 of this program is prohibited from giving any competitor of
 Gaussian, Inc. access to this program.  By using this program,
 the user acknowledges that Gaussian, Inc. is engaged in the
 business of creating and licensing software in the field of
 computational chemistry and represents and warrants to the
 licensee that it is not a competitor of Gaussian, Inc. and that
 it will not use this program in any manner prohibited above.
 ---------------------------------------------------------------
  

 Cite this work as:
 Gaussian Development Version, Revision H.21,
 M. J. Frisch, G. W. Trucks, H. B. Schlegel, G. E. Scuseria, 
 M. A. Robb, J. R. Cheeseman, G. Scalmani, V. Barone, B. Mennucci, 
 G. A. Petersson, H. Nakatsuji, M. Caricato, X. Li, H. P. Hratchian, 
 A. F. Izmaylov, J. Bloino, G. Zheng, J. L. Sonnenberg, W. Liang, 
 M. Hada, M. Ehara, K. Toyota, R. Fukuda, J. Hasegawa, M. Ishida, 
 T. Nakajima, Y. Honda, O. Kitao, H. Nakai, T. Vreven, 
 J. A. Montgomery, Jr., J. E. Peralta, F. Ogliaro, M. Bearpark, 
 J. J. Heyd, E. Brothers, K. N. Kudin, V. N. Staroverov, T. Keith, 
 R. Kobayashi, J. Normand, K. Raghavachari, A. Rendell, J. C. Burant, 
 S. S. Iyengar, J. Tomasi, M. Cossi, N. Rega, J. M. Millam, M. Klene, 
 J. E. Knox, J. B. Cross, V. Bakken, C. Adamo, J. Jaramillo, 
 R. Gomperts, R. E. Stratmann, O. Yazyev, A. J. Austin, R. Cammi, 
 C. Pomelli, J. W. Ochterski, R. L. Martin, K. Morokuma, 
 V. G. Zakrzewski, G. A. Voth, P. Salvador, J. J. Dannenberg, 
 S. Dapprich, P. V. Parandekar, N. J. Mayhall, A. D. Daniels, 
 O. Farkas, J. B. Foresman, J. V. Ortiz, J. Cioslowski, 
 and D. J. Fox, Gaussian, Inc., Wallingford CT, 2010.
 
 ******************************************
 Gaussian DV:  EM64L-GDVRevH.21 13-May-2012
                28-Feb-2017 
 ******************************************
 %chk=h10.chk
 ----------------------------------------------------------------------
 #ghf/gen scf(tight,novaracc,noincfock,fulldiag) stable guess=read geom
 =nocrowd use=l802 use=l902 test
 ----------------------------------------------------------------------
 ********************************************
   THE COMPLEX ERI TRANSFORMATION WITH L802  
        COMPLEX STABILITY WITH L902          
 ********************************************
 1/38=1/1;
 2/12=1,17=6,18=5,40=1/2;
 3/5=7,16=1,25=20,28=1,116=7/1,2,3,20;
 4/5=1/1;
 5/5=100001,16=1,32=2,38=6/2;
 8/6=1,10=90,11=11/1,2;
 9/8=4,13=1/1,2;
 6/7=2,8=2,9=2,10=2,28=1/1;
 99/5=1,9=1/99;
 ----------------------------------------------------------------------
 hf stability analysis of h10 triangular lattice, y= 0.4298968291512300
 1 alpha= 17.750000000000000
 ----------------------------------------------------------------------
 Symbolic Z-Matrix:
 Charge =  0 Multiplicity = 1
 H
 H                    1     1.41013 
 H                    1     1.41013  2     144.5 
 H                    2     1.41013  1     35.5     3     0.       0
 H                    3     1.41013  1     180.     2     0.       0
 H                    4     1.41013  2     180.     1     0.       0
 H                    5     1.41013  3     180.     2     0.       0
 H                    6     1.41013  4     180.     1     0.       0
 H                    7     1.41013  5     180.     2     0.       0
 H                    8     1.41013  6     180.     1     0.       0
 
                          Input orientation:                          
 ---------------------------------------------------------------------
 Center     Atomic      Atomic             Coordinates (Angstroms)
 Number     Number       Type             X           Y           Z
 ---------------------------------------------------------------------
      1          1           0        0.000000    0.000000    0.000000
      2          1           0        0.000000    0.000000    1.410125
      3          1           0        0.818864    0.000000   -1.148005
      4          1           0        0.818864    0.000000    0.262120
      5          1           0        1.637728    0.000000   -2.296010
      6          1           0        1.637728    0.000000   -0.885884
      7          1           0        2.456592    0.000000   -3.444014
      8          1           0        2.456592    0.000000   -2.033889
      9          1           0        3.275455    0.000000   -4.592019
     10          1           0        3.275455    0.000000   -3.181894
 ---------------------------------------------------------------------
                    Distance matrix (angstroms):
                    1          2          3          4          5
     1  H    0.000000
     2  H    1.410125   0.000000
     3  H    1.410125   2.685995   0.000000
     4  H    0.859794   1.410125   1.410125   0.000000
     5  H    2.820250   4.051862   1.410125   2.685995   0.000000
     6  H    1.861973   2.820250   0.859794   1.410125   1.410125
     7  H    4.230375   5.440360   2.820250   4.051862   1.410125
     8  H    3.189286   4.230375   1.861973   2.820250   0.859794
     9  H    5.640501   6.837715   4.230375   5.440360   2.820250
    10  H    4.566515   5.640501   3.189286   4.230375   1.861973
                    6          7          8          9         10
     6  H    0.000000
     7  H    2.685995   0.000000
     8  H    1.410125   1.410125   0.000000
     9  H    4.051862   1.410125   2.685995   0.000000
    10  H    2.820250   0.859794   1.410125   1.410125   0.000000
 Stoichiometry    H10
 Framework group  C2H[SGH(H10)]
 Deg. of freedom     9
 Full point group                 C2H     NOp   4
 Largest Abelian subgroup         C2H     NOp   4
 Largest concise Abelian subgroup C2      NOp   2
                         Standard orientation:                         
 ---------------------------------------------------------------------
 Center     Atomic      Atomic             Coordinates (Angstroms)
 Number     Number       Type             X           Y           Z
 ---------------------------------------------------------------------
      1          1           0        1.637728   -1.590947    0.000000
      2          1           0        1.637728   -3.001072    0.000000
      3          1           0        0.818864   -0.442942    0.000000
      4          1           0        0.818864   -1.853067    0.000000
      5          1           0        0.000000    0.705063    0.000000
      6          1           0        0.000000   -0.705063    0.000000
      7          1           0       -0.818864    1.853067    0.000000
      8          1           0       -0.818864    0.442942    0.000000
      9          1           0       -1.637728    3.001072    0.000000
     10          1           0       -1.637728    1.590947    0.000000
 ---------------------------------------------------------------------
 Rotational constants (GHZ):    324.9193797     11.6085981     11.2081573
 General basis read from cards:  (5D, 7F)
 There are     5 symmetry adapted cartesian basis functions of AG  symmetry.
 There are     0 symmetry adapted cartesian basis functions of BG  symmetry.
 There are     0 symmetry adapted cartesian basis functions of AU  symmetry.
 There are     5 symmetry adapted cartesian basis functions of BU  symmetry.
 There are     5 symmetry adapted basis functions of AG  symmetry.
 There are     0 symmetry adapted basis functions of BG  symmetry.
 There are     0 symmetry adapted basis functions of AU  symmetry.
 There are     5 symmetry adapted basis functions of BU  symmetry.
    10 basis functions,   100 primitive gaussians,    10 cartesian basis functions
     5 alpha electrons        5 beta electrons
       nuclear repulsion energy        11.9063109996 Hartrees.
 NAtoms=   10 NActive=   10 NUniq=    5 SFac= 4.00D+00 NAtFMM=   60 NAOKFM=F Big=F
 Integral buffers will be    131072 words long.
 Regular integral format.
 Two-electron integral symmetry is turned off.
 One-electron integrals computed using PRISM.
 NBasis=    10 RedAO= T EigKep=  1.81D-01  NBF=     5     0     0     5
 NBsUse=    10 1.00D-06 EigRej= -1.00D+00 NBFU=     5     0     0     5
 IOp(28)                       1
                        1                       0
                        2                       1
                        3                       1
                        4                      20
                        5                       0
                        6                       0
                        7                      10
                        8                       1
                        9                       4
                       10                       0
                       11              1073741824
                       12                      20
                       13                       2
                       14                  131070
                       15                       1
                       16                       1
                       17                  131073
                       18                       0
                       19                       0
                       20                       0
                       21                       2
                       22                  131070
                       23                       0
                       24                       0
                       25                       0
                       26                       0
                       27                   65535
                       28                       2
                       29                  131072
                       30                       0
 IHMeth                       1
 ib3: ISMode =                        0                       4
 Enter DskPsm, NBasis=  10 NBas6D=  10 NShell=  10 IDoSP=4.
 Out2e will use a cutoff of  1.00D-10
 FoFCou: FMM=F IPFlag=           0 FMFlag=           0 FMFlg1=           0
         NFxFlg=           0 DoJE=F BraDBF=F KetDBF=F FulRan=T
         wScrn=  0.000000 ICntrl=     600 IOpCl=  9 I1Cent=           0 NGrid=           0
         NMat0=    0 NMatS0=      0 NMatT0=    0 NMatD0=    0 NMtDS0=    0 NMtDT0=    0
 Symmetry not used in FoFCou.
 Entering PrmDigJobTyp =                      20
 LenSav and NKeep                       0                       0
 Entered Stor2E with KNTT1,2                       2                  131070
 Leave Stor2X
 Entering PrmDigJobTyp =                      20
 LenSav and NKeep                       0                       0
 Entered Stor2E with KNTT1,2                       2                  131056
 Leave Stor2X
 Entering PrmDigJobTyp =                      20
 LenSav and NKeep                       0                       0
 Entered Stor2E with KNTT1,2                       2                  131042
 Leave Stor2X
 Entering PrmDigJobTyp =                      20
 LenSav and NKeep                       0                       0
 Entered Stor2E with KNTT1,2                       2                  131028
 Leave Stor2X
 Entering PrmDigJobTyp =                      20
 LenSav and NKeep                       0                       0
 Entered Stor2E with KNTT1,2                       2                  131014
 Leave Stor2X
 Entering PrmDigJobTyp =                      20
 LenSav and NKeep                       0                       0
 Entered Stor2E with KNTT1,2                       2                  131000
 Leave Stor2X
 Entering PrmDigJobTyp =                      20
 LenSav and NKeep                       0                       0
 Entered Stor2E with KNTT1,2                       2                  130986
 Leave Stor2X
 Entering PrmDigJobTyp =                      20
 LenSav and NKeep                       0                       0
 Entered Stor2E with KNTT1,2                       2                  130972
 Leave Stor2X
 Entering PrmDigJobTyp =                      20
 LenSav and NKeep                       0                       0
 Entered Stor2E with KNTT1,2                       2                  130960
 Leave Stor2X
 Entering PrmDigJobTyp =                      20
 LenSav and NKeep                       0                       0
 Entered Stor2E with KNTT1,2                       2                  130944
 Leave Stor2X
 Entering PrmDigJobTyp =                      20
 LenSav and NKeep                       0                       0
 Entered Stor2E with KNTT1,2                       2                  130928
 Leave Stor2X
 Entering PrmDigJobTyp =                      20
 LenSav and NKeep                       0                       0
 Entered Stor2E with KNTT1,2                       2                  130912
 Leave Stor2X
 Entering PrmDigJobTyp =                      20
 LenSav and NKeep                       0                       0
 Entered Stor2E with KNTT1,2                       2                  130896
 Leave Stor2X
 Entering PrmDigJobTyp =                      20
 LenSav and NKeep                       0                       0
 Entered Stor2E with KNTT1,2                       2                  130880
 Leave Stor2X
 Entering PrmDigJobTyp =                      20
 LenSav and NKeep                       0                       0
 Entered Stor2E with KNTT1,2                       2                  130864
 Leave Stor2X
 Entering PrmDigJobTyp =                      20
 LenSav and NKeep                       0                       0
 Entered Stor2E with KNTT1,2                       2                  130848
 Leave Stor2X
 Entering PrmDigJobTyp =                      20
 LenSav and NKeep                       0                       0
 Entered Stor2E with KNTT1,2                       2                  130832
 Leave Stor2X
 Entering PrmDigJobTyp =                      20
 LenSav and NKeep                       0                       0
 Entered Stor2E with KNTT1,2                       2                  130816
 Leave Stor2X
 Entering PrmDigJobTyp =                      20
 LenSav and NKeep                       0                       0
 Entered Stor2E with KNTT1,2                       2                  130800
 Leave Stor2X
 Entering PrmDigJobTyp =                      20
 LenSav and NKeep                       0                       0
 Entered Stor2E with KNTT1,2                       2                  130784
 Leave Stor2X
 Entering PrmDigJobTyp =                      20
 LenSav and NKeep                       0                       0
 Entered Stor2E with KNTT1,2                       2                  130768
 Leave Stor2X
 Entering PrmDigJobTyp =                      20
 LenSav and NKeep                       0                       0
 Entered Stor2E with KNTT1,2                       2                  130752
 Leave Stor2X
 Entering PrmDigJobTyp =                      20
 LenSav and NKeep                       0                       0
 Entered Stor2E with KNTT1,2                       2                  130736
 Leave Stor2X
 Entering PrmDigJobTyp =                      20
 LenSav and NKeep                       0                       0
 Entered Stor2E with KNTT1,2                       2                  130720
 Leave Stor2X
 Entering PrmDigJobTyp =                      20
 LenSav and NKeep                       0                       0
 Entered Stor2E with KNTT1,2                       2                  130704
 Leave Stor2X
 Entering PrmDigJobTyp =                      20
 LenSav and NKeep                       0                       0
 Entered Stor2E with KNTT1,2                       2                  130700
 Leave Stor2X
 Entering PrmDigJobTyp =                      20
 LenSav and NKeep                       0                       0
 Entered Stor2E with KNTT1,2                       8                  130682
 Leave Stor2X
 Entering PrmDigJobTyp =                      20
 LenSav and NKeep                       0                       0
 Entered Stor2E with KNTT1,2                      22                  130672
 Leave Stor2X
 Entering PrmDigJobTyp =                      20
 LenSav and NKeep                       0                       0
 Entered Stor2E with KNTT1,2                      34                  130660
 Leave Stor2X
 Entering PrmDigJobTyp =                      20
 LenSav and NKeep                       0                       0
 Entered Stor2E with KNTT1,2                      52                  130654
 Leave Stor2X
 Entering PrmDigJobTyp =                      20
 LenSav and NKeep                       0                       0
 Entered Stor2E with KNTT1,2                      70                  130648
 Leave Stor2X
 Entering PrmDigJobTyp =                      20
 LenSav and NKeep                       0                       0
 Entered Stor2E with KNTT1,2                      88                  130642
 Leave Stor2X
 Entering PrmDigJobTyp =                      20
 LenSav and NKeep                       0                       0
 Entered Stor2E with KNTT1,2                     106                  130636
 Leave Stor2X
 Entering PrmDigJobTyp =                      20
 LenSav and NKeep                       0                       0
 Entered Stor2E with KNTT1,2                     114                  130630
 Leave Stor2X
 Entering PrmDigJobTyp =                      20
 LenSav and NKeep                       0                       0
 Entered Stor2E with KNTT1,2                     114                  130610
 Leave Stor2X
 Entering PrmDigJobTyp =                      20
 LenSav and NKeep                       0                       0
 Entered Stor2E with KNTT1,2                     114                  130590
 Leave Stor2X
 Entering PrmDigJobTyp =                      20
 LenSav and NKeep                       0                       0
 Entered Stor2E with KNTT1,2                     114                  130570
 Leave Stor2X
 Entering PrmDigJobTyp =                      20
 LenSav and NKeep                       0                       0
 Entered Stor2E with KNTT1,2                     114                  130550
 Leave Stor2X
 Entering PrmDigJobTyp =                      20
 LenSav and NKeep                       0                       0
 Entered Stor2E with KNTT1,2                     134                  130540
 Leave Stor2X
 Entering PrmDigJobTyp =                      20
 LenSav and NKeep                       0                       0
 Entered Stor2E with KNTT1,2                     152                  130528
 Leave Stor2X
 Entering PrmDigJobTyp =                      20
 LenSav and NKeep                       0                       0
 Entered Stor2E with KNTT1,2                     170                  130516
 Leave Stor2X
 Entering PrmDigJobTyp =                      20
 LenSav and NKeep                       0                       0
 Entered Stor2E with KNTT1,2                     174                  130506
 Leave Stor2X
 Entering PrmDigJobTyp =                      20
 LenSav and NKeep                       0                       0
 Entered Stor2E with KNTT1,2                     186                  130498
 Leave Stor2X
 Entering PrmDigJobTyp =                      20
 LenSav and NKeep                       0                       0
 Entered Stor2E with KNTT1,2                     186                  130484
 Leave Stor2X
 Entering PrmDigJobTyp =                      20
 LenSav and NKeep                       0                       0
 Entered Stor2E with KNTT1,2                     186                  130470
 Leave Stor2X
 Entering PrmDigJobTyp =                      20
 LenSav and NKeep                       0                       0
 Entered Stor2E with KNTT1,2                     186                  130456
 Leave Stor2X
 Entering PrmDigJobTyp =                      20
 LenSav and NKeep                       0                       0
 Entered Stor2E with KNTT1,2                     186                  130442
 Leave Stor2X
 Entering PrmDigJobTyp =                      20
 LenSav and NKeep                       0                       0
 Entered Stor2E with KNTT1,2                     186                  130428
 Leave Stor2X
 Entering PrmDigJobTyp =                      20
 LenSav and NKeep                       0                       0
 Entered Stor2E with KNTT1,2                     186                  130418
 Leave Stor2X
 Entering PrmDigJobTyp =                      20
 LenSav and NKeep                       0                       0
 Entered Stor2E with KNTT1,2                     196                  130408
 Leave Stor2X
 Entering PrmDigJobTyp =                      20
 LenSav and NKeep                       0                       0
 Entered Stor2E with KNTT1,2                     206                  130398
 Leave Stor2X
 Entering PrmDigJobTyp =                      20
 LenSav and NKeep                       0                       0
 Entered Stor2E with KNTT1,2                     224                  130396
 Leave Stor2X
 Entering PrmDigJobTyp =                      20
 LenSav and NKeep                       0                       0
 Entered Stor2E with KNTT1,2                     232                  130384
 Leave Stor2X
 Entering PrmDigJobTyp =                      20
 LenSav and NKeep                       0                       0
 Entered Stor2E with KNTT1,2                     246                  130378
 Leave Stor2X
 Entering PrmDigJobTyp =                      20
 LenSav and NKeep                       0                       0
 Entered Stor2E with KNTT1,2                     246                  130374
 Leave Stor2X
 Entering PrmDigJobTyp =                      20
 LenSav and NKeep                       0                       0
 Entered Stor2E with KNTT1,2                     262                  130364
 Leave Stor2X
 Entering PrmDigJobTyp =                      20
 LenSav and NKeep                       0                       0
 Entered Stor2E with KNTT1,2                     266                  130362
 Leave Stor2X
 Entering PrmDigJobTyp =                      20
 LenSav and NKeep                       0                       0
 Entered Stor2E with KNTT1,2                     278                  130356
 Leave Stor2X
 Entering PrmDigJobTyp =                      20
 LenSav and NKeep                       0                       0
 Entered Stor2E with KNTT1,2                     278                  130354
 Leave Stor2X
 Entering PrmDigJobTyp =                      20
 LenSav and NKeep                       0                       0
 Entered Stor2E with KNTT1,2                     278                  130334
 Leave Stor2X
 Entering PrmDigJobTyp =                      20
 LenSav and NKeep                       0                       0
 Entered Stor2E with KNTT1,2                     278                  130314
 Leave Stor2X
 Entering PrmDigJobTyp =                      20
 LenSav and NKeep                       0                       0
 Entered Stor2E with KNTT1,2                     278                  130294
 Leave Stor2X
 Entering PrmDigJobTyp =                      20
 LenSav and NKeep                       0                       0
 Entered Stor2E with KNTT1,2                     278                  130274
 Leave Stor2X
 Entering PrmDigJobTyp =                      20
 LenSav and NKeep                       0                       0
 Entered Stor2E with KNTT1,2                     278                  130254
 Leave Stor2X
 Entering PrmDigJobTyp =                      20
 LenSav and NKeep                       0                       0
 Entered Stor2E with KNTT1,2                     278                  130234
 Leave Stor2X
 Entering PrmDigJobTyp =                      20
 LenSav and NKeep                       0                       0
 Entered Stor2E with KNTT1,2                     296                  130222
 Leave Stor2X
 Entering PrmDigJobTyp =                      20
 LenSav and NKeep                       0                       0
 Entered Stor2E with KNTT1,2                     314                  130210
 Leave Stor2X
 Entering PrmDigJobTyp =                      20
 LenSav and NKeep                       0                       0
 Entered Stor2E with KNTT1,2                     330                  130196
 Leave Stor2X
 Entering PrmDigJobTyp =                      20
 LenSav and NKeep                       0                       0
 Entered Stor2E with KNTT1,2                     348                  130184
 Leave Stor2X
 Entering PrmDigJobTyp =                      20
 LenSav and NKeep                       0                       0
 Entered Stor2E with KNTT1,2                     368                  130174
 Leave Stor2X
 Entering PrmDigJobTyp =                      20
 LenSav and NKeep                       0                       0
 Entered Stor2E with KNTT1,2                     370                  130170
 Leave Stor2X
 Entering PrmDigJobTyp =                      20
 LenSav and NKeep                       0                       0
 Entered Stor2E with KNTT1,2                     392                  130154
 Leave Stor2X
 Entering PrmDigJobTyp =                      20
 LenSav and NKeep                       0                       0
 Entered Stor2E with KNTT1,2                     398                  130150
 Leave Stor2X
 Entering PrmDigJobTyp =                      20
 LenSav and NKeep                       0                       0
 Entered Stor2E with KNTT1,2                     412                  130138
 Leave Stor2X
 Entering PrmDigJobTyp =                      20
 LenSav and NKeep                       0                       0
 Entered Stor2E with KNTT1,2                     426                  130130
 Leave Stor2X
 Entering PrmDigJobTyp =                      20
 LenSav and NKeep                       0                       0
 Entered Stor2E with KNTT1,2                     450                  130116
 Leave Stor2X
 Entering PrmDigJobTyp =                      20
 LenSav and NKeep                       0                       0
 Entered Stor2E with KNTT1,2                     452                  130114
 Leave Stor2X
 Entering PrmDigJobTyp =                      20
 LenSav and NKeep                       0                       0
 Entered Stor2E with KNTT1,2                     452                  130092
 Leave Stor2X
 Entering PrmDigJobTyp =                      20
 LenSav and NKeep                       0                       0
 Entered Stor2E with KNTT1,2                     452                  130070
 Leave Stor2X
 Entering PrmDigJobTyp =                      20
 LenSav and NKeep                       0                       0
 Entered Stor2E with KNTT1,2                     452                  130054
 Leave Stor2X
 Entering PrmDigJobTyp =                      20
 LenSav and NKeep                       0                       0
 Entered Stor2E with KNTT1,2                     472                  130042
 Leave Stor2X
 Entering PrmDigJobTyp =                      20
 LenSav and NKeep                       0                       0
 Entered Stor2E with KNTT1,2                     492                  130030
 Leave Stor2X
 Entering PrmDigJobTyp =                      20
 LenSav and NKeep                       0                       0
 Entered Stor2E with KNTT1,2                     498                  130022
 Leave Stor2X
 Entering PrmDigJobTyp =                      20
 LenSav and NKeep                       0                       0
 Entered Stor2E with KNTT1,2                     510                  130010
 Leave Stor2X
 Entering PrmDigJobTyp =                      20
 LenSav and NKeep                       0                       0
 Entered Stor2E with KNTT1,2                     526                  130002
 Leave Stor2X
 Entering PrmDigJobTyp =                      20
 LenSav and NKeep                       0                       0
 Entered Stor2E with KNTT1,2                     546                  129986
 Leave Stor2X
 Entering PrmDigJobTyp =                      20
 LenSav and NKeep                       0                       0
 Entered Stor2E with KNTT1,2                     552                  129980
 Leave Stor2X
 Entering PrmDigJobTyp =                      20
 LenSav and NKeep                       0                       0
 Entered Stor2E with KNTT1,2                     552                  129964
 Leave Stor2X
 Entering PrmDigJobTyp =                      20
 LenSav and NKeep                       0                       0
 Entered Stor2E with KNTT1,2                     552                  129948
 Leave Stor2X
 Entering PrmDigJobTyp =                      20
 LenSav and NKeep                       0                       0
 Entered Stor2E with KNTT1,2                     552                  129932
 Leave Stor2X
 Entering PrmDigJobTyp =                      20
 LenSav and NKeep                       0                       0
 Entered Stor2E with KNTT1,2                     552                  129920
 Leave Stor2X
 Entering PrmDigJobTyp =                      20
 LenSav and NKeep                       0                       0
 Entered Stor2E with KNTT1,2                     566                  129910
 Leave Stor2X
 Entering PrmDigJobTyp =                      20
 LenSav and NKeep                       0                       0
 Entered Stor2E with KNTT1,2                     580                  129900
 Leave Stor2X
 Entering PrmDigJobTyp =                      20
 LenSav and NKeep                       0                       0
 Entered Stor2E with KNTT1,2                     596                  129892
 Leave Stor2X
 Entering PrmDigJobTyp =                      20
 LenSav and NKeep                       0                       0
 Entered Stor2E with KNTT1,2                     598                  129888
 Leave Stor2X
 Entering PrmDigJobTyp =                      20
 LenSav and NKeep                       0                       0
 Entered Stor2E with KNTT1,2                     614                  129880
 Leave Stor2X
 Entering PrmDigJobTyp =                      20
 LenSav and NKeep                       0                       0
 Entered Stor2E with KNTT1,2                     626                  129870
 Leave Stor2X
 Entering PrmDigJobTyp =                      20
 LenSav and NKeep                       0                       0
 Entered Stor2E with KNTT1,2                     626                  129868
 Leave Stor2X
 Entering PrmDigJobTyp =                      20
 LenSav and NKeep                       0                       0
 Entered Stor2E with KNTT1,2                     646                  129856
 Leave Stor2X
 Entering PrmDigJobTyp =                      20
 LenSav and NKeep                       0                       0
 Entered Stor2E with KNTT1,2                     646                  129852
 Leave Stor2X
 Entering PrmDigJobTyp =                      20
 LenSav and NKeep                       0                       0
 Entered Stor2E with KNTT1,2                     660                  129848
 Leave Stor2X
 Entering PrmDigJobTyp =                      20
 LenSav and NKeep                       0                       0
 Entered Stor2E with KNTT1,2                     666                  129842
 Leave Stor2X
 Entering PrmDigJobTyp =                      20
 LenSav and NKeep                       0                       0
 Entered Stor2E with KNTT1,2                     666                  129818
 Leave Stor2X
 Entering PrmDigJobTyp =                      20
 LenSav and NKeep                       0                       0
 Entered Stor2E with KNTT1,2                     666                  129794
 Leave Stor2X
 Entering PrmDigJobTyp =                      20
 LenSav and NKeep                       0                       0
 Entered Stor2E with KNTT1,2                     666                  129770
 Leave Stor2X
 Entering PrmDigJobTyp =                      20
 LenSav and NKeep                       0                       0
 Entered Stor2E with KNTT1,2                     666                  129762
 Leave Stor2X
 Entering PrmDigJobTyp =                      20
 LenSav and NKeep                       0                       0
 Entered Stor2E with KNTT1,2                     686                  129748
 Leave Stor2X
 Entering PrmDigJobTyp =                      20
 LenSav and NKeep                       0                       0
 Entered Stor2E with KNTT1,2                     708                  129736
 Leave Stor2X
 Entering PrmDigJobTyp =                      20
 LenSav and NKeep                       0                       0
 Entered Stor2E with KNTT1,2                     730                  129724
 Leave Stor2X
 Entering PrmDigJobTyp =                      20
 LenSav and NKeep                       0                       0
 Entered Stor2E with KNTT1,2                     730                  129722
 Leave Stor2X
 Entering PrmDigJobTyp =                      20
 LenSav and NKeep                       0                       0
 Entered Stor2E with KNTT1,2                     750                  129710
 Leave Stor2X
 Entering PrmDigJobTyp =                      20
 LenSav and NKeep                       0                       0
 Entered Stor2E with KNTT1,2                     770                  129700
 Leave Stor2X
 Entering PrmDigJobTyp =                      20
 LenSav and NKeep                       0                       0
 Entered Stor2E with KNTT1,2                     770                  129698
 Leave Stor2X
 Entering PrmDigJobTyp =                      20
 LenSav and NKeep                       0                       0
 Entered Stor2E with KNTT1,2                     800                  129684
 Leave Stor2X
 Entering PrmDigJobTyp =                      20
 LenSav and NKeep                       0                       0
 Entered Stor2E with KNTT1,2                     802                  129682
 Leave Stor2X
 Entering PrmDigJobTyp =                      20
 LenSav and NKeep                       0                       0
 Entered Stor2E with KNTT1,2                     818                  129674
 Leave Stor2X
 Entering PrmDigJobTyp =                      20
 LenSav and NKeep                       0                       0
 Entered Stor2E with KNTT1,2                     834                  129666
 Leave Stor2X
 Entering PrmDigJobTyp =                      20
 LenSav and NKeep                       0                       0
 Entered Stor2E with KNTT1,2                     846                  129658
 Leave Stor2X
 Entering PrmDigJobTyp =                      20
 LenSav and NKeep                       0                       0
 Entered Stor2E with KNTT1,2                     846                  129630
 Leave Stor2X
 Entering PrmDigJobTyp =                      20
 LenSav and NKeep                       0                       0
 Entered Stor2E with KNTT1,2                     846                  129602
 Leave Stor2X
 Entering PrmDigJobTyp =                      20
 LenSav and NKeep                       0                       0
 Entered Stor2E with KNTT1,2                     846                  129578
 Leave Stor2X
 Entering PrmDigJobTyp =                      20
 LenSav and NKeep                       0                       0
 Entered Stor2E with KNTT1,2                     874                  129564
 Leave Stor2X
 Entering PrmDigJobTyp =                      20
 LenSav and NKeep                       0                       0
 Entered Stor2E with KNTT1,2                     898                  129546
 Leave Stor2X
 Entering PrmDigJobTyp =                      20
 LenSav and NKeep                       0                       0
 Entered Stor2E with KNTT1,2                     914                  129542
 Leave Stor2X
 Entering PrmDigJobTyp =                      20
 LenSav and NKeep                       0                       0
 Entered Stor2E with KNTT1,2                     934                  129530
 Leave Stor2X
 Entering PrmDigJobTyp =                      20
 LenSav and NKeep                       0                       0
 Entered Stor2E with KNTT1,2                     958                  129522
 Leave Stor2X
 Entering PrmDigJobTyp =                      20
 LenSav and NKeep                       0                       0
 Entered Stor2E with KNTT1,2                     990                  129506
 Leave Stor2X
 Entering PrmDigJobTyp =                      20
 LenSav and NKeep                       0                       0
 Entered Stor2E with KNTT1,2                    1002                  129494
 Leave Stor2X
 Entering PrmDigJobTyp =                      20
 LenSav and NKeep                       0                       0
 Entered Stor2E with KNTT1,2                    1022                  129490
 Leave Stor2X
 Entering PrmDigJobTyp =                      20
 LenSav and NKeep                       0                       0
 Entered Stor2E with KNTT1,2                    1038                  129474
 Leave Stor2X
 Entering PrmDigJobTyp =                      20
 LenSav and NKeep                       0                       0
 Entered Stor2E with KNTT1,2                    1046                  129462
 Leave Stor2X
 Entering PrmDigJobTyp =                      20
 LenSav and NKeep                       0                       0
 Entered Stor2E with KNTT1,2                    1046                  129440
 Leave Stor2X
 Entering PrmDigJobTyp =                      20
 LenSav and NKeep                       0                       0
 Entered Stor2E with KNTT1,2                    1046                  129422
 Leave Stor2X
 Entering PrmDigJobTyp =                      20
 LenSav and NKeep                       0                       0
 Entered Stor2E with KNTT1,2                    1066                  129410
 Leave Stor2X
 Entering PrmDigJobTyp =                      20
 LenSav and NKeep                       0                       0
 Entered Stor2E with KNTT1,2                    1078                  129402
 Leave Stor2X
 Entering PrmDigJobTyp =                      20
 LenSav and NKeep                       0                       0
 Entered Stor2E with KNTT1,2                    1090                  129398
 Leave Stor2X
 Entering PrmDigJobTyp =                      20
 LenSav and NKeep                       0                       0
 Entered Stor2E with KNTT1,2                    1098                  129390
 Leave Stor2X
 Entering PrmDigJobTyp =                      20
 LenSav and NKeep                       0                       0
 Entered Stor2E with KNTT1,2                    1114                  129382
 Leave Stor2X
 Entering PrmDigJobTyp =                      20
 LenSav and NKeep                       0                       0
 Entered Stor2E with KNTT1,2                    1126                  129382
 Leave Stor2X
 Entering PrmDigJobTyp =                      20
 LenSav and NKeep                       0                       0
 Entered Stor2E with KNTT1,2                    1130                  129374
 Leave Stor2X
 Entering PrmDigJobTyp =                      20
 LenSav and NKeep                       0                       0
 Entered Stor2E with KNTT1,2                    1138                  129366
 Leave Stor2X
 Entering PrmDigJobTyp =                      20
 LenSav and NKeep                       0                       0
 Entered Stor2E with KNTT1,2                    1150                  129362
 Leave Stor2X
 Entering PrmDigJobTyp =                      20
 LenSav and NKeep                       0                       0
 Entered Stor2E with KNTT1,2                    1152                  129358
 Leave Stor2X
 Entering PrmDigJobTyp =                      20
 LenSav and NKeep                       0                       0
 Entered Stor2E with KNTT1,2                    1152                  129338
 Leave Stor2X
 Entering PrmDigJobTyp =                      20
 LenSav and NKeep                       0                       0
 Entered Stor2E with KNTT1,2                    1170                  129330
 Leave Stor2X
 Entering PrmDigJobTyp =                      20
 LenSav and NKeep                       0                       0
 Entered Stor2E with KNTT1,2                    1174                  129326
 Leave Stor2X
 Entering PrmDigJobTyp =                      20
 LenSav and NKeep                       0                       0
 Entered Stor2E with KNTT1,2                    1182                  129326
 Leave Stor2X
 Entering PrmDigJobTyp =                      20
 LenSav and NKeep                       0                       0
 Entered Stor2E with KNTT1,2                    1190                  129322
 Leave Stor2X
 Entering PrmDigJobTyp =                      20
 LenSav and NKeep                       0                       0
 Entered Stor2E with KNTT1,2                    1192                  129318
 Leave Stor2X
 Entering PrmDigJobTyp =                      20
 LenSav and NKeep                       0                       0
 Entered Stor2E with KNTT1,2                    1198                  129318
 Leave Stor2X
 Entering PrmDigJobTyp =                      20
 LenSav and NKeep                       0                       0
 Entered Stor2E with KNTT1,2                    1202                  129314
 Leave Stor2X
 Entering PrmDigJobTyp =                      20
 LenSav and NKeep                       0                       0
 Entered Stor2E with KNTT1,2                    1202                  129306
 Leave Stor2X
 Entering PrmDigJobTyp =                      20
 LenSav and NKeep                       0                       0
 Entered Stor2E with KNTT1,2                    1206                  129306
 Leave Stor2X
 Entering PrmDigJobTyp =                      20
 LenSav and NKeep                       0                       0
 Entered Stor2E with KNTT1,2                    1206                  129304
 Leave Stor2X
 Entering PrmDigJobTyp =                      20
 LenSav and NKeep                       0                       0
 Entered Stor2E with KNTT1,2                    1206                  129284
 Leave Stor2X
 Entering PrmDigJobTyp =                      20
 LenSav and NKeep                       0                       0
 Entered Stor2E with KNTT1,2                    1224                  129276
 Leave Stor2X
 Entering PrmDigJobTyp =                      20
 LenSav and NKeep                       0                       0
 Entered Stor2E with KNTT1,2                    1232                  129276
 Leave Stor2X
 Entering PrmDigJobTyp =                      20
 LenSav and NKeep                       0                       0
 Entered Stor2E with KNTT1,2                    1236                  129272
 Leave Stor2X
 Entering PrmDigJobTyp =                      20
 LenSav and NKeep                       0                       0
 Entered Stor2E with KNTT1,2                    1244                  129268
 Leave Stor2X
 Entering PrmDigJobTyp =                      20
 LenSav and NKeep                       0                       0
 Entered Stor2E with KNTT1,2                    1250                  129268
 Leave Stor2X
 Entering PrmDigJobTyp =                      20
 LenSav and NKeep                       0                       0
 Entered Stor2E with KNTT1,2                    1252                  129264
 Leave Stor2X
 Entering PrmDigJobTyp =                      20
 LenSav and NKeep                       0                       0
 Entered Stor2E with KNTT1,2                    1256                  129260
 Leave Stor2X
 Entering PrmDigJobTyp =                      20
 LenSav and NKeep                       0                       0
 Entered Stor2E with KNTT1,2                    1260                  129256
 Leave Stor2X
 Entering PrmDigJobTyp =                      20
 LenSav and NKeep                       0                       0
 Entered Stor2E with KNTT1,2                    1260                  129252
 Leave Stor2X
 Entering PrmDigJobTyp =                      20
 LenSav and NKeep                       0                       0
 Entered Stor2E with KNTT1,2                    1262                  129252
 Leave Stor2X
 In PrSumR
 Called IWRITE
         1540 integrals produced for a total of         1540.
 Initial guess from the checkpoint file:  "h10.chk"
 B after Tr=     0.000000    0.000000    0.000000
         Rot=    0.651305    0.000000    0.000000    0.758816 Ang=  98.72 deg.
 Initial guess <Sx>= 0.0000 <Sy>= 0.0000 <Sz>= 0.0000 <S**2>= 0.0000 S= 0.0000
 Two-electron integrals will be kept in memory, NGetB=      152788.
 Requested convergence on RMS density matrix=1.00D-08 within 128 cycles.
 Requested convergence on MAX density matrix=1.00D-06.
 Requested convergence on             energy=1.00D-06.
 No special actions if energy rises.
 Density File Not Found. Continue as usual
 Rare condition: small coef for last iteration:  0.000D+00
 SCF Done:  E(GHF) =  -4.71380810140     A.U. after   20 cycles
            NFock= 20  Conv=0.12D-08     -V/T= 1.8713
 <Sx>= 0.0000 <Sy>= 0.0000 <Sz>= 0.0000 <S**2>= 0.0000 S= 0.0000
 <L.S>= 0.000000000000E+00
 Range of M.O.s used for correlation:     1    10
 NBasis=    10 NAE=    10 NBE=     0 NFC=     0 NFV=     0
 NROrb=     20 NOA=    10 NOB=     0 NVA=    10 NVB=     0

 **** Warning!!: The smallest alpha delta epsilon is  0.68507735D-01

 jaja DoHack is true or false? T
 jaja in hckghf.F, NBasis=                      10
 jaja in hckGHF/FixOG, LC =                      800
 jaja in hckGHF/FixOG, IRwC=                      548
 bfr conversion (real):
                 1             2             3             4             5 
      1a -0.674151D-01  0.131190D+00  0.248654D+00  0.918040D-01  0.330167D+00
      1b  0.131190D+00  0.674151D-01 -0.918040D-01  0.248654D+00 -0.193773D-01
      2a -0.143784D-01  0.279803D-01  0.720524D-01  0.266020D-01  0.184614D+00
      2b  0.279803D-01  0.143784D-01 -0.266020D-01  0.720524D-01 -0.108349D-01
      3a -0.105895D+00  0.206072D+00  0.180115D+00  0.664993D-01 -0.223610D+00
      3b  0.206072D+00  0.105895D+00 -0.664993D-01  0.180115D+00  0.131235D-01
      4a -0.841640D-01  0.163783D+00  0.287938D+00  0.106308D+00  0.314843D+00
      4b  0.163783D+00  0.841640D-01 -0.106308D+00  0.287938D+00 -0.184779D-01
      5a -0.102578D+00  0.199616D+00 -0.141173D+00 -0.521217D-01 -0.285401D+00
      5b  0.199616D+00  0.102578D+00  0.521217D-01 -0.141173D+00  0.167500D-01
      6a -0.102578D+00  0.199616D+00  0.141173D+00  0.521217D-01 -0.285401D+00
      6b  0.199616D+00  0.102578D+00 -0.521217D-01  0.141173D+00  0.167500D-01
      7a -0.841640D-01  0.163783D+00 -0.287938D+00 -0.106308D+00  0.314843D+00
      7b  0.163783D+00  0.841640D-01  0.106308D+00 -0.287938D+00 -0.184779D-01
      8a -0.105895D+00  0.206072D+00 -0.180115D+00 -0.664993D-01 -0.223610D+00
      8b  0.206072D+00  0.105895D+00  0.664993D-01 -0.180115D+00  0.131235D-01
      9a -0.143784D-01  0.279803D-01 -0.720524D-01 -0.266020D-01  0.184614D+00
      9b  0.279803D-01  0.143784D-01  0.266020D-01 -0.720524D-01 -0.108349D-01
     10a -0.674151D-01  0.131190D+00 -0.248654D+00 -0.918040D-01  0.330167D+00
     10b  0.131190D+00  0.674151D-01  0.918040D-01 -0.248654D+00 -0.193773D-01
                 6             7             8             9            10 
      1a  0.193773D-01  0.252843D+00  0.253954D-01 -0.516828D+00 -0.493604D-01
      1b  0.330167D+00 -0.253954D-01  0.252843D+00  0.493604D-01 -0.516828D+00
      2a  0.108349D-01  0.288785D+00  0.290055D-01  0.665667D+00  0.635755D-01
      2b  0.184614D+00 -0.290055D-01  0.288785D+00 -0.635755D-01  0.665667D+00
      3a -0.131235D-01 -0.496768D+00 -0.498952D-01 -0.518023D-02 -0.494745D-03
      3b -0.223610D+00  0.498952D-01 -0.496768D+00  0.494745D-03 -0.518023D-02
      4a  0.184779D-01  0.142238D+00  0.142863D-01 -0.815870D-01 -0.779209D-02
      4b  0.314843D+00 -0.142863D-01  0.142238D+00  0.779209D-02 -0.815870D-01
      5a -0.167500D-01  0.497682D+00  0.499870D-01 -0.471114D+00 -0.449945D-01
      5b -0.285401D+00 -0.499870D-01  0.497682D+00  0.449945D-01 -0.471114D+00
      6a -0.167500D-01 -0.497682D+00 -0.499870D-01  0.471114D+00  0.449945D-01
      6b -0.285401D+00  0.499870D-01 -0.497682D+00 -0.449945D-01  0.471114D+00
      7a  0.184779D-01 -0.142238D+00 -0.142863D-01  0.815870D-01  0.779209D-02
      7b  0.314843D+00  0.142863D-01 -0.142238D+00 -0.779209D-02  0.815870D-01
      8a -0.131235D-01  0.496768D+00  0.498952D-01  0.518023D-02  0.494745D-03
      8b -0.223610D+00 -0.498952D-01  0.496768D+00 -0.494745D-03  0.518023D-02
      9a  0.108349D-01 -0.288785D+00 -0.290055D-01 -0.665667D+00 -0.635755D-01
      9b  0.184614D+00  0.290055D-01 -0.288785D+00  0.635755D-01 -0.665667D+00
     10a  0.193773D-01 -0.252843D+00 -0.253954D-01  0.516828D+00  0.493604D-01
     10b  0.330167D+00  0.253954D-01 -0.252843D+00 -0.493604D-01  0.516828D+00
                11            12            13            14            15 
      1a -0.399769D+00 -0.216727D-01  0.887981D-02  0.156781D+00 -0.414042D-01
      1b  0.216727D-01 -0.399769D+00  0.156781D+00 -0.887981D-02 -0.653380D+00
      2a  0.763359D+00  0.413841D-01  0.188198D-01  0.332281D+00 -0.953436D-02
      2b -0.413841D-01  0.763359D+00  0.332281D+00 -0.188198D-01 -0.150457D+00
      3a -0.188858D-01 -0.102386D-02  0.399695D-01  0.705698D+00 -0.287320D-01
      3b  0.102386D-02 -0.188858D-01  0.705698D+00 -0.399695D-01 -0.453407D+00
      4a -0.195930D+00 -0.106220D-01 -0.321462D-01 -0.567570D+00  0.549782D-01
      4b  0.106220D-01 -0.195930D+00 -0.567570D+00  0.321462D-01  0.867585D+00
      5a  0.198068D+00  0.107379D-01  0.248700D-01  0.439102D+00  0.173887D-01
      5b -0.107379D-01  0.198068D+00  0.439102D+00 -0.248700D-01  0.274403D+00
      6a  0.198068D+00  0.107379D-01 -0.248700D-01 -0.439102D+00  0.173887D-01
      6b -0.107379D-01  0.198068D+00 -0.439102D+00  0.248700D-01  0.274403D+00
      7a -0.195930D+00 -0.106220D-01  0.321462D-01  0.567570D+00  0.549782D-01
      7b  0.106220D-01 -0.195930D+00  0.567570D+00 -0.321462D-01  0.867585D+00
      8a -0.188858D-01 -0.102386D-02 -0.399695D-01 -0.705698D+00 -0.287320D-01
      8b  0.102386D-02 -0.188858D-01 -0.705698D+00  0.399695D-01 -0.453407D+00
      9a  0.763359D+00  0.413841D-01 -0.188198D-01 -0.332281D+00 -0.953436D-02
      9b -0.413841D-01  0.763359D+00 -0.332281D+00  0.188198D-01 -0.150457D+00
     10a -0.399769D+00 -0.216727D-01 -0.887981D-02 -0.156781D+00 -0.414042D-01
     10b  0.216727D-01 -0.399769D+00 -0.156781D+00  0.887981D-02 -0.653380D+00
                16            17            18            19            20 
      1a -0.653380D+00 -0.279965D-01 -0.814270D+00 -0.113532D-01 -0.625430D+00
      1b  0.414042D-01 -0.814270D+00  0.279965D-01 -0.625430D+00  0.113532D-01
      2a -0.150457D+00 -0.865123D-03 -0.251619D-01  0.117244D-02  0.645882D-01
      2b  0.953436D-02 -0.251619D-01  0.865123D-03  0.645882D-01 -0.117244D-02
      3a -0.453407D+00  0.144312D-01  0.419727D+00  0.196016D-01  0.107982D+01
      3b  0.287320D-01  0.419727D+00 -0.144312D-01  0.107982D+01 -0.196016D-01
      4a  0.867585D+00  0.296028D-01  0.860990D+00  0.826796D-02  0.455471D+00
      4b -0.549782D-01  0.860990D+00 -0.296028D-01  0.455471D+00 -0.826796D-02
      5a  0.274403D+00  0.245089D-01  0.712835D+00 -0.181104D-01 -0.997680D+00
      5b -0.173887D-01  0.712835D+00 -0.245089D-01 -0.997680D+00  0.181104D-01
      6a  0.274403D+00 -0.245089D-01 -0.712835D+00 -0.181104D-01 -0.997680D+00
      6b -0.173887D-01 -0.712835D+00  0.245089D-01 -0.997680D+00  0.181104D-01
      7a  0.867585D+00 -0.296028D-01 -0.860990D+00  0.826796D-02  0.455471D+00
      7b -0.549782D-01 -0.860990D+00  0.296028D-01  0.455471D+00 -0.826796D-02
      8a -0.453407D+00 -0.144312D-01 -0.419727D+00  0.196016D-01  0.107982D+01
      8b  0.287320D-01 -0.419727D+00  0.144312D-01  0.107982D+01 -0.196016D-01
      9a -0.150457D+00  0.865123D-03  0.251619D-01  0.117244D-02  0.645882D-01
      9b  0.953436D-02  0.251619D-01 -0.865123D-03  0.645882D-01 -0.117244D-02
     10a -0.653380D+00  0.279965D-01  0.814270D+00 -0.113532D-01 -0.625430D+00
     10b  0.414042D-01  0.814270D+00 -0.279965D-01 -0.625430D+00  0.113532D-01
 bfr conversion (imaginary):
                 1             2             3             4             5 
      1a  0.000000D+00  0.000000D+00  0.000000D+00  0.000000D+00  0.000000D+00
      1b  0.000000D+00  0.000000D+00  0.000000D+00  0.000000D+00  0.000000D+00
      2a  0.000000D+00  0.000000D+00  0.000000D+00  0.000000D+00  0.000000D+00
      2b  0.000000D+00  0.000000D+00  0.000000D+00  0.000000D+00  0.000000D+00
      3a  0.000000D+00  0.000000D+00  0.000000D+00  0.000000D+00  0.000000D+00
      3b  0.000000D+00  0.000000D+00  0.000000D+00  0.000000D+00  0.000000D+00
      4a  0.000000D+00  0.000000D+00  0.000000D+00  0.000000D+00  0.000000D+00
      4b  0.000000D+00  0.000000D+00  0.000000D+00  0.000000D+00  0.000000D+00
      5a  0.000000D+00  0.000000D+00  0.000000D+00  0.000000D+00  0.000000D+00
      5b  0.000000D+00  0.000000D+00  0.000000D+00  0.000000D+00  0.000000D+00
      6a  0.000000D+00  0.000000D+00  0.000000D+00  0.000000D+00  0.000000D+00
      6b  0.000000D+00  0.000000D+00  0.000000D+00  0.000000D+00  0.000000D+00
      7a  0.000000D+00  0.000000D+00  0.000000D+00  0.000000D+00  0.000000D+00
      7b  0.000000D+00  0.000000D+00  0.000000D+00  0.000000D+00  0.000000D+00
      8a  0.000000D+00  0.000000D+00  0.000000D+00  0.000000D+00  0.000000D+00
      8b  0.000000D+00  0.000000D+00  0.000000D+00  0.000000D+00  0.000000D+00
      9a  0.000000D+00  0.000000D+00  0.000000D+00  0.000000D+00  0.000000D+00
      9b  0.000000D+00  0.000000D+00  0.000000D+00  0.000000D+00  0.000000D+00
     10a  0.000000D+00  0.000000D+00  0.000000D+00  0.000000D+00  0.000000D+00
     10b  0.000000D+00  0.000000D+00  0.000000D+00  0.000000D+00  0.000000D+00
                 6             7             8             9            10 
      1a  0.000000D+00  0.000000D+00  0.000000D+00  0.000000D+00  0.000000D+00
      1b  0.000000D+00  0.000000D+00  0.000000D+00  0.000000D+00  0.000000D+00
      2a  0.000000D+00  0.000000D+00  0.000000D+00  0.000000D+00  0.000000D+00
      2b  0.000000D+00  0.000000D+00  0.000000D+00  0.000000D+00  0.000000D+00
      3a  0.000000D+00  0.000000D+00  0.000000D+00  0.000000D+00  0.000000D+00
      3b  0.000000D+00  0.000000D+00  0.000000D+00  0.000000D+00  0.000000D+00
      4a  0.000000D+00  0.000000D+00  0.000000D+00  0.000000D+00  0.000000D+00
      4b  0.000000D+00  0.000000D+00  0.000000D+00  0.000000D+00  0.000000D+00
      5a  0.000000D+00  0.000000D+00  0.000000D+00  0.000000D+00  0.000000D+00
      5b  0.000000D+00  0.000000D+00  0.000000D+00  0.000000D+00  0.000000D+00
      6a  0.000000D+00  0.000000D+00  0.000000D+00  0.000000D+00  0.000000D+00
      6b  0.000000D+00  0.000000D+00  0.000000D+00  0.000000D+00  0.000000D+00
      7a  0.000000D+00  0.000000D+00  0.000000D+00  0.000000D+00  0.000000D+00
      7b  0.000000D+00  0.000000D+00  0.000000D+00  0.000000D+00  0.000000D+00
      8a  0.000000D+00  0.000000D+00  0.000000D+00  0.000000D+00  0.000000D+00
      8b  0.000000D+00  0.000000D+00  0.000000D+00  0.000000D+00  0.000000D+00
      9a  0.000000D+00  0.000000D+00  0.000000D+00  0.000000D+00  0.000000D+00
      9b  0.000000D+00  0.000000D+00  0.000000D+00  0.000000D+00  0.000000D+00
     10a  0.000000D+00  0.000000D+00  0.000000D+00  0.000000D+00  0.000000D+00
     10b  0.000000D+00  0.000000D+00  0.000000D+00  0.000000D+00  0.000000D+00
                11            12            13            14            15 
      1a  0.000000D+00  0.000000D+00  0.000000D+00  0.000000D+00  0.000000D+00
      1b  0.000000D+00  0.000000D+00  0.000000D+00  0.000000D+00  0.000000D+00
      2a  0.000000D+00  0.000000D+00  0.000000D+00  0.000000D+00  0.000000D+00
      2b  0.000000D+00  0.000000D+00  0.000000D+00  0.000000D+00  0.000000D+00
      3a  0.000000D+00  0.000000D+00  0.000000D+00  0.000000D+00  0.000000D+00
      3b  0.000000D+00  0.000000D+00  0.000000D+00  0.000000D+00  0.000000D+00
      4a  0.000000D+00  0.000000D+00  0.000000D+00  0.000000D+00  0.000000D+00
      4b  0.000000D+00  0.000000D+00  0.000000D+00  0.000000D+00  0.000000D+00
      5a  0.000000D+00  0.000000D+00  0.000000D+00  0.000000D+00  0.000000D+00
      5b  0.000000D+00  0.000000D+00  0.000000D+00  0.000000D+00  0.000000D+00
      6a  0.000000D+00  0.000000D+00  0.000000D+00  0.000000D+00  0.000000D+00
      6b  0.000000D+00  0.000000D+00  0.000000D+00  0.000000D+00  0.000000D+00
      7a  0.000000D+00  0.000000D+00  0.000000D+00  0.000000D+00  0.000000D+00
      7b  0.000000D+00  0.000000D+00  0.000000D+00  0.000000D+00  0.000000D+00
      8a  0.000000D+00  0.000000D+00  0.000000D+00  0.000000D+00  0.000000D+00
      8b  0.000000D+00  0.000000D+00  0.000000D+00  0.000000D+00  0.000000D+00
      9a  0.000000D+00  0.000000D+00  0.000000D+00  0.000000D+00  0.000000D+00
      9b  0.000000D+00  0.000000D+00  0.000000D+00  0.000000D+00  0.000000D+00
     10a  0.000000D+00  0.000000D+00  0.000000D+00  0.000000D+00  0.000000D+00
     10b  0.000000D+00  0.000000D+00  0.000000D+00  0.000000D+00  0.000000D+00
                16            17            18            19            20 
      1a  0.000000D+00  0.000000D+00  0.000000D+00  0.000000D+00  0.000000D+00
      1b  0.000000D+00  0.000000D+00  0.000000D+00  0.000000D+00  0.000000D+00
      2a  0.000000D+00  0.000000D+00  0.000000D+00  0.000000D+00  0.000000D+00
      2b  0.000000D+00  0.000000D+00  0.000000D+00  0.000000D+00  0.000000D+00
      3a  0.000000D+00  0.000000D+00  0.000000D+00  0.000000D+00  0.000000D+00
      3b  0.000000D+00  0.000000D+00  0.000000D+00  0.000000D+00  0.000000D+00
      4a  0.000000D+00  0.000000D+00  0.000000D+00  0.000000D+00  0.000000D+00
      4b  0.000000D+00  0.000000D+00  0.000000D+00  0.000000D+00  0.000000D+00
      5a  0.000000D+00  0.000000D+00  0.000000D+00  0.000000D+00  0.000000D+00
      5b  0.000000D+00  0.000000D+00  0.000000D+00  0.000000D+00  0.000000D+00
      6a  0.000000D+00  0.000000D+00  0.000000D+00  0.000000D+00  0.000000D+00
      6b  0.000000D+00  0.000000D+00  0.000000D+00  0.000000D+00  0.000000D+00
      7a  0.000000D+00  0.000000D+00  0.000000D+00  0.000000D+00  0.000000D+00
      7b  0.000000D+00  0.000000D+00  0.000000D+00  0.000000D+00  0.000000D+00
      8a  0.000000D+00  0.000000D+00  0.000000D+00  0.000000D+00  0.000000D+00
      8b  0.000000D+00  0.000000D+00  0.000000D+00  0.000000D+00  0.000000D+00
      9a  0.000000D+00  0.000000D+00  0.000000D+00  0.000000D+00  0.000000D+00
      9b  0.000000D+00  0.000000D+00  0.000000D+00  0.000000D+00  0.000000D+00
     10a  0.000000D+00  0.000000D+00  0.000000D+00  0.000000D+00  0.000000D+00
     10b  0.000000D+00  0.000000D+00  0.000000D+00  0.000000D+00  0.000000D+00
 afr conversion (alpha, real):
                 1             2             3             4             5 
      1  -0.674151D-01  0.131190D+00  0.248654D+00  0.918040D-01  0.330167D+00
      2  -0.143784D-01  0.279803D-01  0.720524D-01  0.266020D-01  0.184614D+00
      3  -0.105895D+00  0.206072D+00  0.180115D+00  0.664993D-01 -0.223610D+00
      4  -0.841640D-01  0.163783D+00  0.287938D+00  0.106308D+00  0.314843D+00
      5  -0.102578D+00  0.199616D+00 -0.141173D+00 -0.521217D-01 -0.285401D+00
      6  -0.102578D+00  0.199616D+00  0.141173D+00  0.521217D-01 -0.285401D+00
      7  -0.841640D-01  0.163783D+00 -0.287938D+00 -0.106308D+00  0.314843D+00
      8  -0.105895D+00  0.206072D+00 -0.180115D+00 -0.664993D-01 -0.223610D+00
      9  -0.143784D-01  0.279803D-01 -0.720524D-01 -0.266020D-01  0.184614D+00
     10  -0.674151D-01  0.131190D+00 -0.248654D+00 -0.918040D-01  0.330167D+00
                 6             7             8             9            10 
      1   0.193773D-01  0.252843D+00  0.253954D-01 -0.516828D+00 -0.493604D-01
      2   0.108349D-01  0.288785D+00  0.290055D-01  0.665667D+00  0.635755D-01
      3  -0.131235D-01 -0.496768D+00 -0.498952D-01 -0.518023D-02 -0.494745D-03
      4   0.184779D-01  0.142238D+00  0.142863D-01 -0.815870D-01 -0.779209D-02
      5  -0.167500D-01  0.497682D+00  0.499870D-01 -0.471114D+00 -0.449945D-01
      6  -0.167500D-01 -0.497682D+00 -0.499870D-01  0.471114D+00  0.449945D-01
      7   0.184779D-01 -0.142238D+00 -0.142863D-01  0.815870D-01  0.779209D-02
      8  -0.131235D-01  0.496768D+00  0.498952D-01  0.518023D-02  0.494745D-03
      9   0.108349D-01 -0.288785D+00 -0.290055D-01 -0.665667D+00 -0.635755D-01
     10   0.193773D-01 -0.252843D+00 -0.253954D-01  0.516828D+00  0.493604D-01
                11            12            13            14            15 
      1  -0.399769D+00 -0.216727D-01  0.887981D-02  0.156781D+00 -0.414042D-01
      2   0.763359D+00  0.413841D-01  0.188198D-01  0.332281D+00 -0.953436D-02
      3  -0.188858D-01 -0.102386D-02  0.399695D-01  0.705698D+00 -0.287320D-01
      4  -0.195930D+00 -0.106220D-01 -0.321462D-01 -0.567570D+00  0.549782D-01
      5   0.198068D+00  0.107379D-01  0.248700D-01  0.439102D+00  0.173887D-01
      6   0.198068D+00  0.107379D-01 -0.248700D-01 -0.439102D+00  0.173887D-01
      7  -0.195930D+00 -0.106220D-01  0.321462D-01  0.567570D+00  0.549782D-01
      8  -0.188858D-01 -0.102386D-02 -0.399695D-01 -0.705698D+00 -0.287320D-01
      9   0.763359D+00  0.413841D-01 -0.188198D-01 -0.332281D+00 -0.953436D-02
     10  -0.399769D+00 -0.216727D-01 -0.887981D-02 -0.156781D+00 -0.414042D-01
                16            17            18            19            20 
      1  -0.653380D+00 -0.279965D-01 -0.814270D+00 -0.113532D-01 -0.625430D+00
      2  -0.150457D+00 -0.865123D-03 -0.251619D-01  0.117244D-02  0.645882D-01
      3  -0.453407D+00  0.144312D-01  0.419727D+00  0.196016D-01  0.107982D+01
      4   0.867585D+00  0.296028D-01  0.860990D+00  0.826796D-02  0.455471D+00
      5   0.274403D+00  0.245089D-01  0.712835D+00 -0.181104D-01 -0.997680D+00
      6   0.274403D+00 -0.245089D-01 -0.712835D+00 -0.181104D-01 -0.997680D+00
      7   0.867585D+00 -0.296028D-01 -0.860990D+00  0.826796D-02  0.455471D+00
      8  -0.453407D+00 -0.144312D-01 -0.419727D+00  0.196016D-01  0.107982D+01
      9  -0.150457D+00  0.865123D-03  0.251619D-01  0.117244D-02  0.645882D-01
     10  -0.653380D+00  0.279965D-01  0.814270D+00 -0.113532D-01 -0.625430D+00
 afr conversion (alpha, imaginary):
                 1             2             3             4             5 
      1   0.000000D+00  0.000000D+00  0.000000D+00  0.000000D+00  0.000000D+00
      2   0.000000D+00  0.000000D+00  0.000000D+00  0.000000D+00  0.000000D+00
      3   0.000000D+00  0.000000D+00  0.000000D+00  0.000000D+00  0.000000D+00
      4   0.000000D+00  0.000000D+00  0.000000D+00  0.000000D+00  0.000000D+00
      5   0.000000D+00  0.000000D+00  0.000000D+00  0.000000D+00  0.000000D+00
      6   0.000000D+00  0.000000D+00  0.000000D+00  0.000000D+00  0.000000D+00
      7   0.000000D+00  0.000000D+00  0.000000D+00  0.000000D+00  0.000000D+00
      8   0.000000D+00  0.000000D+00  0.000000D+00  0.000000D+00  0.000000D+00
      9   0.000000D+00  0.000000D+00  0.000000D+00  0.000000D+00  0.000000D+00
     10   0.000000D+00  0.000000D+00  0.000000D+00  0.000000D+00  0.000000D+00
                 6             7             8             9            10 
      1   0.000000D+00  0.000000D+00  0.000000D+00  0.000000D+00  0.000000D+00
      2   0.000000D+00  0.000000D+00  0.000000D+00  0.000000D+00  0.000000D+00
      3   0.000000D+00  0.000000D+00  0.000000D+00  0.000000D+00  0.000000D+00
      4   0.000000D+00  0.000000D+00  0.000000D+00  0.000000D+00  0.000000D+00
      5   0.000000D+00  0.000000D+00  0.000000D+00  0.000000D+00  0.000000D+00
      6   0.000000D+00  0.000000D+00  0.000000D+00  0.000000D+00  0.000000D+00
      7   0.000000D+00  0.000000D+00  0.000000D+00  0.000000D+00  0.000000D+00
      8   0.000000D+00  0.000000D+00  0.000000D+00  0.000000D+00  0.000000D+00
      9   0.000000D+00  0.000000D+00  0.000000D+00  0.000000D+00  0.000000D+00
     10   0.000000D+00  0.000000D+00  0.000000D+00  0.000000D+00  0.000000D+00
                11            12            13            14            15 
      1   0.000000D+00  0.000000D+00  0.000000D+00  0.000000D+00  0.000000D+00
      2   0.000000D+00  0.000000D+00  0.000000D+00  0.000000D+00  0.000000D+00
      3   0.000000D+00  0.000000D+00  0.000000D+00  0.000000D+00  0.000000D+00
      4   0.000000D+00  0.000000D+00  0.000000D+00  0.000000D+00  0.000000D+00
      5   0.000000D+00  0.000000D+00  0.000000D+00  0.000000D+00  0.000000D+00
      6   0.000000D+00  0.000000D+00  0.000000D+00  0.000000D+00  0.000000D+00
      7   0.000000D+00  0.000000D+00  0.000000D+00  0.000000D+00  0.000000D+00
      8   0.000000D+00  0.000000D+00  0.000000D+00  0.000000D+00  0.000000D+00
      9   0.000000D+00  0.000000D+00  0.000000D+00  0.000000D+00  0.000000D+00
     10   0.000000D+00  0.000000D+00  0.000000D+00  0.000000D+00  0.000000D+00
                16            17            18            19            20 
      1   0.000000D+00  0.000000D+00  0.000000D+00  0.000000D+00  0.000000D+00
      2   0.000000D+00  0.000000D+00  0.000000D+00  0.000000D+00  0.000000D+00
      3   0.000000D+00  0.000000D+00  0.000000D+00  0.000000D+00  0.000000D+00
      4   0.000000D+00  0.000000D+00  0.000000D+00  0.000000D+00  0.000000D+00
      5   0.000000D+00  0.000000D+00  0.000000D+00  0.000000D+00  0.000000D+00
      6   0.000000D+00  0.000000D+00  0.000000D+00  0.000000D+00  0.000000D+00
      7   0.000000D+00  0.000000D+00  0.000000D+00  0.000000D+00  0.000000D+00
      8   0.000000D+00  0.000000D+00  0.000000D+00  0.000000D+00  0.000000D+00
      9   0.000000D+00  0.000000D+00  0.000000D+00  0.000000D+00  0.000000D+00
     10   0.000000D+00  0.000000D+00  0.000000D+00  0.000000D+00  0.000000D+00
 afr conversion (beta, real):
                 1             2             3             4             5 
      1   0.131190D+00  0.674151D-01 -0.918040D-01  0.248654D+00 -0.193773D-01
      2   0.279803D-01  0.143784D-01 -0.266020D-01  0.720524D-01 -0.108349D-01
      3   0.206072D+00  0.105895D+00 -0.664993D-01  0.180115D+00  0.131235D-01
      4   0.163783D+00  0.841640D-01 -0.106308D+00  0.287938D+00 -0.184779D-01
      5   0.199616D+00  0.102578D+00  0.521217D-01 -0.141173D+00  0.167500D-01
      6   0.199616D+00  0.102578D+00 -0.521217D-01  0.141173D+00  0.167500D-01
      7   0.163783D+00  0.841640D-01  0.106308D+00 -0.287938D+00 -0.184779D-01
      8   0.206072D+00  0.105895D+00  0.664993D-01 -0.180115D+00  0.131235D-01
      9   0.279803D-01  0.143784D-01  0.266020D-01 -0.720524D-01 -0.108349D-01
     10   0.131190D+00  0.674151D-01  0.918040D-01 -0.248654D+00 -0.193773D-01
                 6             7             8             9            10 
      1   0.330167D+00 -0.253954D-01  0.252843D+00  0.493604D-01 -0.516828D+00
      2   0.184614D+00 -0.290055D-01  0.288785D+00 -0.635755D-01  0.665667D+00
      3  -0.223610D+00  0.498952D-01 -0.496768D+00  0.494745D-03 -0.518023D-02
      4   0.314843D+00 -0.142863D-01  0.142238D+00  0.779209D-02 -0.815870D-01
      5  -0.285401D+00 -0.499870D-01  0.497682D+00  0.449945D-01 -0.471114D+00
      6  -0.285401D+00  0.499870D-01 -0.497682D+00 -0.449945D-01  0.471114D+00
      7   0.314843D+00  0.142863D-01 -0.142238D+00 -0.779209D-02  0.815870D-01
      8  -0.223610D+00 -0.498952D-01  0.496768D+00 -0.494745D-03  0.518023D-02
      9   0.184614D+00  0.290055D-01 -0.288785D+00  0.635755D-01 -0.665667D+00
     10   0.330167D+00  0.253954D-01 -0.252843D+00 -0.493604D-01  0.516828D+00
                11            12            13            14            15 
      1   0.216727D-01 -0.399769D+00  0.156781D+00 -0.887981D-02 -0.653380D+00
      2  -0.413841D-01  0.763359D+00  0.332281D+00 -0.188198D-01 -0.150457D+00
      3   0.102386D-02 -0.188858D-01  0.705698D+00 -0.399695D-01 -0.453407D+00
      4   0.106220D-01 -0.195930D+00 -0.567570D+00  0.321462D-01  0.867585D+00
      5  -0.107379D-01  0.198068D+00  0.439102D+00 -0.248700D-01  0.274403D+00
      6  -0.107379D-01  0.198068D+00 -0.439102D+00  0.248700D-01  0.274403D+00
      7   0.106220D-01 -0.195930D+00  0.567570D+00 -0.321462D-01  0.867585D+00
      8   0.102386D-02 -0.188858D-01 -0.705698D+00  0.399695D-01 -0.453407D+00
      9  -0.413841D-01  0.763359D+00 -0.332281D+00  0.188198D-01 -0.150457D+00
     10   0.216727D-01 -0.399769D+00 -0.156781D+00  0.887981D-02 -0.653380D+00
                16            17            18            19            20 
      1   0.414042D-01 -0.814270D+00  0.279965D-01 -0.625430D+00  0.113532D-01
      2   0.953436D-02 -0.251619D-01  0.865123D-03  0.645882D-01 -0.117244D-02
      3   0.287320D-01  0.419727D+00 -0.144312D-01  0.107982D+01 -0.196016D-01
      4  -0.549782D-01  0.860990D+00 -0.296028D-01  0.455471D+00 -0.826796D-02
      5  -0.173887D-01  0.712835D+00 -0.245089D-01 -0.997680D+00  0.181104D-01
      6  -0.173887D-01 -0.712835D+00  0.245089D-01 -0.997680D+00  0.181104D-01
      7  -0.549782D-01 -0.860990D+00  0.296028D-01  0.455471D+00 -0.826796D-02
      8   0.287320D-01 -0.419727D+00  0.144312D-01  0.107982D+01 -0.196016D-01
      9   0.953436D-02  0.251619D-01 -0.865123D-03  0.645882D-01 -0.117244D-02
     10   0.414042D-01  0.814270D+00 -0.279965D-01 -0.625430D+00  0.113532D-01
 afr conversion (beta, imaginary):
                 1             2             3             4             5 
      1   0.000000D+00  0.000000D+00  0.000000D+00  0.000000D+00  0.000000D+00
      2   0.000000D+00  0.000000D+00  0.000000D+00  0.000000D+00  0.000000D+00
      3   0.000000D+00  0.000000D+00  0.000000D+00  0.000000D+00  0.000000D+00
      4   0.000000D+00  0.000000D+00  0.000000D+00  0.000000D+00  0.000000D+00
      5   0.000000D+00  0.000000D+00  0.000000D+00  0.000000D+00  0.000000D+00
      6   0.000000D+00  0.000000D+00  0.000000D+00  0.000000D+00  0.000000D+00
      7   0.000000D+00  0.000000D+00  0.000000D+00  0.000000D+00  0.000000D+00
      8   0.000000D+00  0.000000D+00  0.000000D+00  0.000000D+00  0.000000D+00
      9   0.000000D+00  0.000000D+00  0.000000D+00  0.000000D+00  0.000000D+00
     10   0.000000D+00  0.000000D+00  0.000000D+00  0.000000D+00  0.000000D+00
                 6             7             8             9            10 
      1   0.000000D+00  0.000000D+00  0.000000D+00  0.000000D+00  0.000000D+00
      2   0.000000D+00  0.000000D+00  0.000000D+00  0.000000D+00  0.000000D+00
      3   0.000000D+00  0.000000D+00  0.000000D+00  0.000000D+00  0.000000D+00
      4   0.000000D+00  0.000000D+00  0.000000D+00  0.000000D+00  0.000000D+00
      5   0.000000D+00  0.000000D+00  0.000000D+00  0.000000D+00  0.000000D+00
      6   0.000000D+00  0.000000D+00  0.000000D+00  0.000000D+00  0.000000D+00
      7   0.000000D+00  0.000000D+00  0.000000D+00  0.000000D+00  0.000000D+00
      8   0.000000D+00  0.000000D+00  0.000000D+00  0.000000D+00  0.000000D+00
      9   0.000000D+00  0.000000D+00  0.000000D+00  0.000000D+00  0.000000D+00
     10   0.000000D+00  0.000000D+00  0.000000D+00  0.000000D+00  0.000000D+00
                11            12            13            14            15 
      1   0.000000D+00  0.000000D+00  0.000000D+00  0.000000D+00  0.000000D+00
      2   0.000000D+00  0.000000D+00  0.000000D+00  0.000000D+00  0.000000D+00
      3   0.000000D+00  0.000000D+00  0.000000D+00  0.000000D+00  0.000000D+00
      4   0.000000D+00  0.000000D+00  0.000000D+00  0.000000D+00  0.000000D+00
      5   0.000000D+00  0.000000D+00  0.000000D+00  0.000000D+00  0.000000D+00
      6   0.000000D+00  0.000000D+00  0.000000D+00  0.000000D+00  0.000000D+00
      7   0.000000D+00  0.000000D+00  0.000000D+00  0.000000D+00  0.000000D+00
      8   0.000000D+00  0.000000D+00  0.000000D+00  0.000000D+00  0.000000D+00
      9   0.000000D+00  0.000000D+00  0.000000D+00  0.000000D+00  0.000000D+00
     10   0.000000D+00  0.000000D+00  0.000000D+00  0.000000D+00  0.000000D+00
                16            17            18            19            20 
      1   0.000000D+00  0.000000D+00  0.000000D+00  0.000000D+00  0.000000D+00
      2   0.000000D+00  0.000000D+00  0.000000D+00  0.000000D+00  0.000000D+00
      3   0.000000D+00  0.000000D+00  0.000000D+00  0.000000D+00  0.000000D+00
      4   0.000000D+00  0.000000D+00  0.000000D+00  0.000000D+00  0.000000D+00
      5   0.000000D+00  0.000000D+00  0.000000D+00  0.000000D+00  0.000000D+00
      6   0.000000D+00  0.000000D+00  0.000000D+00  0.000000D+00  0.000000D+00
      7   0.000000D+00  0.000000D+00  0.000000D+00  0.000000D+00  0.000000D+00
      8   0.000000D+00  0.000000D+00  0.000000D+00  0.000000D+00  0.000000D+00
      9   0.000000D+00  0.000000D+00  0.000000D+00  0.000000D+00  0.000000D+00
     10   0.000000D+00  0.000000D+00  0.000000D+00  0.000000D+00  0.000000D+00
 jaja in hckghf.F, ISPECT =                     548
Spin block MO for GHF transformation
NOA =   10   NOB =   10
NVA =   10   NVB =   10
 NOAvA in Hack                     100
 jaja in tranN3.F, ISPECT =                     548
 in l802/tranN3.F, LSPECT =                      800
 NMat, NBtSiz,MDV                    8372                   16000
                133954722
 TranN3:  NGot= 134217728 NBasic=    263006 NTTT=       550 NMat=      8372.
 Defined bucket =                      51                   10000
 Defined bucket =                      52                   10000
 Defined bucket =                      53                   10000
 Defined bucket =                      55                   10000
 Defined bucket =                      57                   10000
 Defined bucket =                      58                   10000
 Defined bucket =                      60                   10000
 Defined bucket =                      72                   10000
 Defined bucket =                      73                   10000
 Defined bucket =                      74                   10000
 Defined bucket =                      75                   10000
 Defined bucket =                      76                   10000
 (IK/LS) integrals will be saved in memory.
 TrCghf made   2 passes through the AO integrals.
 jaja DoHack is true or false? F
 jaja in hckghf.F, NBasis=                      10
 jaja in hckGHF/FixOG, LC =                      800
 jaja in hckGHF/FixOG, IRwC=                      548
 bfr conversion (alpha, real):
                 1             2             3             4             5 
      1  -0.674151D-01  0.131190D+00  0.248654D+00  0.918040D-01  0.330167D+00
      2  -0.143784D-01  0.279803D-01  0.720524D-01  0.266020D-01  0.184614D+00
      3  -0.105895D+00  0.206072D+00  0.180115D+00  0.664993D-01 -0.223610D+00
      4  -0.841640D-01  0.163783D+00  0.287938D+00  0.106308D+00  0.314843D+00
      5  -0.102578D+00  0.199616D+00 -0.141173D+00 -0.521217D-01 -0.285401D+00
      6  -0.102578D+00  0.199616D+00  0.141173D+00  0.521217D-01 -0.285401D+00
      7  -0.841640D-01  0.163783D+00 -0.287938D+00 -0.106308D+00  0.314843D+00
      8  -0.105895D+00  0.206072D+00 -0.180115D+00 -0.664993D-01 -0.223610D+00
      9  -0.143784D-01  0.279803D-01 -0.720524D-01 -0.266020D-01  0.184614D+00
     10  -0.674151D-01  0.131190D+00 -0.248654D+00 -0.918040D-01  0.330167D+00
                 6             7             8             9            10 
      1   0.193773D-01  0.252843D+00  0.253954D-01 -0.516828D+00 -0.493604D-01
      2   0.108349D-01  0.288785D+00  0.290055D-01  0.665667D+00  0.635755D-01
      3  -0.131235D-01 -0.496768D+00 -0.498952D-01 -0.518023D-02 -0.494745D-03
      4   0.184779D-01  0.142238D+00  0.142863D-01 -0.815870D-01 -0.779209D-02
      5  -0.167500D-01  0.497682D+00  0.499870D-01 -0.471114D+00 -0.449945D-01
      6  -0.167500D-01 -0.497682D+00 -0.499870D-01  0.471114D+00  0.449945D-01
      7   0.184779D-01 -0.142238D+00 -0.142863D-01  0.815870D-01  0.779209D-02
      8  -0.131235D-01  0.496768D+00  0.498952D-01  0.518023D-02  0.494745D-03
      9   0.108349D-01 -0.288785D+00 -0.290055D-01 -0.665667D+00 -0.635755D-01
     10   0.193773D-01 -0.252843D+00 -0.253954D-01  0.516828D+00  0.493604D-01
                11            12            13            14            15 
      1  -0.399769D+00 -0.216727D-01  0.887981D-02  0.156781D+00 -0.414042D-01
      2   0.763359D+00  0.413841D-01  0.188198D-01  0.332281D+00 -0.953436D-02
      3  -0.188858D-01 -0.102386D-02  0.399695D-01  0.705698D+00 -0.287320D-01
      4  -0.195930D+00 -0.106220D-01 -0.321462D-01 -0.567570D+00  0.549782D-01
      5   0.198068D+00  0.107379D-01  0.248700D-01  0.439102D+00  0.173887D-01
      6   0.198068D+00  0.107379D-01 -0.248700D-01 -0.439102D+00  0.173887D-01
      7  -0.195930D+00 -0.106220D-01  0.321462D-01  0.567570D+00  0.549782D-01
      8  -0.188858D-01 -0.102386D-02 -0.399695D-01 -0.705698D+00 -0.287320D-01
      9   0.763359D+00  0.413841D-01 -0.188198D-01 -0.332281D+00 -0.953436D-02
     10  -0.399769D+00 -0.216727D-01 -0.887981D-02 -0.156781D+00 -0.414042D-01
                16            17            18            19            20 
      1  -0.653380D+00 -0.279965D-01 -0.814270D+00 -0.113532D-01 -0.625430D+00
      2  -0.150457D+00 -0.865123D-03 -0.251619D-01  0.117244D-02  0.645882D-01
[...]
      6b-0.169433D+00  0.213455D-01 -0.217234D-01 -0.322157D-01 -0.269893D+00
      7a-0.437515D+00  0.143157D+00 -0.605812D-01  0.190993D-01 -0.532158D+00
      7b 0.139753D+00  0.631158D-01  0.258255D-01  0.472611D-01  0.387217D-01
      8a-0.434071D+00  0.148792D-01 -0.554309D-01  0.737587D-02 -0.365238D+00
      8b 0.218994D-01 -0.105424D-01  0.315079D-01  0.197610D-01 -0.659794D-01
      9a-0.102152D-01 -0.752394D-02 -0.173707D+00  0.135318D+00 -0.648202D-01
      9b 0.845252D-01  0.109575D+00 -0.713692D-01 -0.111067D+00  0.160971D-01
     10a-0.481385D+00  0.135141D+00  0.287599D-01 -0.303681D-01 -0.442240D+00
     10b 0.104729D+00 -0.137779D-02  0.616811D-01  0.104271D+00  0.424110D-01
                3b            4a            4b            5a            5b
      3b 0.708996D+00
      4a-0.279830D+00  0.134914D+01
      4b 0.285239D+00 -0.421802D+00  0.702811D+00
      5a-0.897198D-01 -0.477757D+00  0.238126D-02  0.948269D+00
      5b 0.176125D+00  0.529683D-02 -0.342675D-02 -0.260114D+00  0.750561D+00
      6a-0.198188D+00  0.200249D+00 -0.208347D+00 -0.256205D+00 -0.555825D-01
      6b 0.704904D+00 -0.247510D+00  0.187195D+00 -0.877103D-01  0.171216D+00
      7a 0.366524D-01 -0.550924D+00  0.143358D+00  0.169614D+00 -0.197929D+00
      7b-0.880754D-02  0.130940D+00  0.683176D-01 -0.237091D+00  0.189401D+00
      8a-0.320230D-01 -0.550940D+00  0.165089D-01  0.824988D+00 -0.190993D+00
      8b 0.139990D+00  0.185781D-01 -0.143632D-01 -0.262697D+00  0.706972D+00
      9a-0.803498D-02 -0.132813D+00  0.510194D-01  0.552444D-02 -0.659337D-01
      9b 0.155930D-01  0.577456D-01  0.543787D-01 -0.611256D-01 -0.415872D-01
     10a 0.353908D-01 -0.487060D+00  0.112627D+00 -0.347291D-01 -0.186329D+00
     10b-0.533647D-02  0.109223D+00  0.543472D-01 -0.170165D+00  0.218401D-01
                6a            6b            7a            7b            8a
      6a 0.870822D+00
      6b-0.168899D+00  0.773032D+00
      7a-0.454523D+00 -0.712776D-02  0.111851D+01
      7b-0.421218D-02 -0.551872D-02 -0.241544D+00  0.745936D+00
      8a-0.268299D+00 -0.435966D-01  0.344615D+00 -0.282387D+00  0.847552D+00
      8b-0.385338D-01  0.187710D+00 -0.239215D+00  0.283642D+00 -0.219240D+00
      9a-0.195434D+00  0.500998D-01  0.379827D+00 -0.121795D+00 -0.103590D+00
      9b-0.132637D-01 -0.684323D-01 -0.217177D-01  0.239144D+00 -0.650190D-01
     10a-0.284788D+00 -0.271520D-01  0.111699D+01 -0.337670D+00  0.245600D+00
     10b 0.705910D-02  0.405399D-01 -0.207041D+00  0.670114D+00 -0.234784D+00
                8b            9a            9b           10a           10b
      8b 0.726317D+00
      9a-0.176380D-01  0.590271D+00
      9b-0.776062D-01 -0.143163D+00  0.222138D+00
     10a-0.261708D+00  0.247566D+00 -0.250861D-01  0.125444D+01
     10b 0.153128D+00 -0.589548D-01  0.182713D+00 -0.315262D+00  0.661781D+00
 jaja lower-tri density matrix (imaginary):
                1a            1b            2a            2b            3a
      1a 0.000000D+00
      1b 0.000000D+00  0.000000D+00
      2a 0.000000D+00  0.000000D+00  0.000000D+00
      2b 0.000000D+00  0.000000D+00  0.000000D+00  0.000000D+00
      3a 0.000000D+00  0.000000D+00  0.000000D+00  0.000000D+00  0.000000D+00
      3b 0.000000D+00  0.000000D+00  0.000000D+00  0.000000D+00  0.000000D+00
      4a 0.000000D+00  0.000000D+00  0.000000D+00  0.000000D+00  0.000000D+00
      4b 0.000000D+00  0.000000D+00  0.000000D+00  0.000000D+00  0.000000D+00
      5a 0.000000D+00  0.000000D+00  0.000000D+00  0.000000D+00  0.000000D+00
      5b 0.000000D+00  0.000000D+00  0.000000D+00  0.000000D+00  0.000000D+00
      6a 0.000000D+00  0.000000D+00  0.000000D+00  0.000000D+00  0.000000D+00
      6b 0.000000D+00  0.000000D+00  0.000000D+00  0.000000D+00  0.000000D+00
      7a 0.000000D+00  0.000000D+00  0.000000D+00  0.000000D+00  0.000000D+00
      7b 0.000000D+00  0.000000D+00  0.000000D+00  0.000000D+00  0.000000D+00
      8a 0.000000D+00  0.000000D+00  0.000000D+00  0.000000D+00  0.000000D+00
      8b 0.000000D+00  0.000000D+00  0.000000D+00  0.000000D+00  0.000000D+00
      9a 0.000000D+00  0.000000D+00  0.000000D+00  0.000000D+00  0.000000D+00
      9b 0.000000D+00  0.000000D+00  0.000000D+00  0.000000D+00  0.000000D+00
     10a 0.000000D+00  0.000000D+00  0.000000D+00  0.000000D+00  0.000000D+00
     10b 0.000000D+00  0.000000D+00  0.000000D+00  0.000000D+00  0.000000D+00
                3b            4a            4b            5a            5b
      3b 0.000000D+00
      4a 0.000000D+00  0.000000D+00
      4b 0.000000D+00  0.000000D+00  0.000000D+00
      5a 0.000000D+00  0.000000D+00  0.000000D+00  0.000000D+00
      5b 0.000000D+00  0.000000D+00  0.000000D+00  0.000000D+00  0.000000D+00
      6a 0.000000D+00  0.000000D+00  0.000000D+00  0.000000D+00  0.000000D+00
      6b 0.000000D+00  0.000000D+00  0.000000D+00  0.000000D+00  0.000000D+00
      7a 0.000000D+00  0.000000D+00  0.000000D+00  0.000000D+00  0.000000D+00
      7b 0.000000D+00  0.000000D+00  0.000000D+00  0.000000D+00  0.000000D+00
      8a 0.000000D+00  0.000000D+00  0.000000D+00  0.000000D+00  0.000000D+00
      8b 0.000000D+00  0.000000D+00  0.000000D+00  0.000000D+00  0.000000D+00
      9a 0.000000D+00  0.000000D+00  0.000000D+00  0.000000D+00  0.000000D+00
      9b 0.000000D+00  0.000000D+00  0.000000D+00  0.000000D+00  0.000000D+00
     10a 0.000000D+00  0.000000D+00  0.000000D+00  0.000000D+00  0.000000D+00
     10b 0.000000D+00  0.000000D+00  0.000000D+00  0.000000D+00  0.000000D+00
                6a            6b            7a            7b            8a
      6a 0.000000D+00
      6b 0.000000D+00  0.000000D+00
      7a 0.000000D+00  0.000000D+00  0.000000D+00
      7b 0.000000D+00  0.000000D+00  0.000000D+00  0.000000D+00
      8a 0.000000D+00  0.000000D+00  0.000000D+00  0.000000D+00  0.000000D+00
      8b 0.000000D+00  0.000000D+00  0.000000D+00  0.000000D+00  0.000000D+00
      9a 0.000000D+00  0.000000D+00  0.000000D+00  0.000000D+00  0.000000D+00
      9b 0.000000D+00  0.000000D+00  0.000000D+00  0.000000D+00  0.000000D+00
     10a 0.000000D+00  0.000000D+00  0.000000D+00  0.000000D+00  0.000000D+00
     10b 0.000000D+00  0.000000D+00  0.000000D+00  0.000000D+00  0.000000D+00
                8b            9a            9b           10a           10b
      8b 0.000000D+00
      9a 0.000000D+00  0.000000D+00
      9b 0.000000D+00  0.000000D+00  0.000000D+00
     10a 0.000000D+00  0.000000D+00  0.000000D+00  0.000000D+00
     10b 0.000000D+00  0.000000D+00  0.000000D+00  0.000000D+00  0.000000D+00
 jaja non-ortho density matrix               [Gau-style] (real):
                 1             2             3             4             5 
      1a  0.111346D+01 -0.173856D+00  0.243985D+00 -0.109656D+00  0.181828D+00
      1b -0.173856D+00  0.696271D+00 -0.757878D-01  0.169452D+00 -0.191155D+00
      2a  0.243985D+00 -0.757878D-01  0.428282D+00  0.100066D+00 -0.120097D+00
      2b -0.109656D+00  0.169452D+00  0.100066D+00  0.282795D+00 -0.312751D-01
      3a  0.181828D+00 -0.191155D+00 -0.120097D+00 -0.312751D-01  0.885505D+00
      3b -0.164231D+00  0.170445D+00 -0.786561D-01 -0.814301D-01 -0.288168D+00
      4a  0.114918D+01 -0.360948D+00  0.369296D+00 -0.139998D+00  0.400884D+00
      4b -0.230318D+00  0.664585D+00 -0.399206D-01  0.234230D+00 -0.236658D+00
      5a -0.299281D+00 -0.799755D-02 -0.171890D+00  0.388048D-01 -0.242563D+00
      5b  0.262135D-01  0.452879D-01 -0.245586D-01 -0.709842D-01 -0.846571D-01
      6a -0.761732D-01 -0.185597D+00 -0.482197D-01 -0.265314D-01  0.813261D+00
      6b -0.169433D+00  0.213455D-01 -0.217234D-01 -0.322157D-01 -0.269893D+00
      7a -0.437515D+00  0.143157D+00 -0.605812D-01  0.190993D-01 -0.532158D+00
      7b  0.139753D+00  0.631158D-01  0.258255D-01  0.472611D-01  0.387217D-01
      8a -0.434071D+00  0.148792D-01 -0.554309D-01  0.737587D-02 -0.365238D+00
      8b  0.218994D-01 -0.105424D-01  0.315079D-01  0.197610D-01 -0.659794D-01
      9a -0.102152D-01 -0.752394D-02 -0.173707D+00  0.135318D+00 -0.648202D-01
      9b  0.845252D-01  0.109575D+00 -0.713692D-01 -0.111067D+00  0.160971D-01
     10a -0.481385D+00  0.135141D+00  0.287599D-01 -0.303681D-01 -0.442240D+00
     10b  0.104729D+00 -0.137779D-02  0.616811D-01  0.104271D+00  0.424110D-01
                 6             7             8             9            10 
      1a -0.164231D+00  0.114918D+01 -0.230318D+00 -0.299281D+00  0.262135D-01
      1b  0.170445D+00 -0.360948D+00  0.664585D+00 -0.799755D-02  0.452879D-01
      2a -0.786561D-01  0.369296D+00 -0.399206D-01 -0.171890D+00 -0.245586D-01
      2b -0.814301D-01 -0.139998D+00  0.234230D+00  0.388048D-01 -0.709842D-01
      3a -0.288168D+00  0.400884D+00 -0.236658D+00 -0.242563D+00 -0.846571D-01
      3b  0.708996D+00 -0.279830D+00  0.285239D+00 -0.897198D-01  0.176125D+00
      4a -0.279830D+00  0.134914D+01 -0.421802D+00 -0.477757D+00  0.529683D-02
      4b  0.285239D+00 -0.421802D+00  0.702811D+00  0.238126D-02 -0.342675D-02
      5a -0.897198D-01 -0.477757D+00  0.238126D-02  0.948269D+00 -0.260114D+00
      5b  0.176125D+00  0.529683D-02 -0.342675D-02 -0.260114D+00  0.750561D+00
      6a -0.198188D+00  0.200249D+00 -0.208347D+00 -0.256205D+00 -0.555825D-01
      6b  0.704904D+00 -0.247510D+00  0.187195D+00 -0.877103D-01  0.171216D+00
      7a  0.366524D-01 -0.550924D+00  0.143358D+00  0.169614D+00 -0.197929D+00
      7b -0.880754D-02  0.130940D+00  0.683176D-01 -0.237091D+00  0.189401D+00
      8a -0.320230D-01 -0.550940D+00  0.165089D-01  0.824988D+00 -0.190993D+00
      8b  0.139990D+00  0.185781D-01 -0.143632D-01 -0.262697D+00  0.706972D+00
      9a -0.803498D-02 -0.132813D+00  0.510194D-01  0.552444D-02 -0.659337D-01
      9b  0.155930D-01  0.577456D-01  0.543787D-01 -0.611256D-01 -0.415872D-01
     10a  0.353908D-01 -0.487060D+00  0.112627D+00 -0.347291D-01 -0.186329D+00
     10b -0.533647D-02  0.109223D+00  0.543472D-01 -0.170165D+00  0.218401D-01
                11            12            13            14            15 
      1a -0.761732D-01 -0.169433D+00 -0.437515D+00  0.139753D+00 -0.434071D+00
      1b -0.185597D+00  0.213455D-01  0.143157D+00  0.631158D-01  0.148792D-01
      2a -0.482197D-01 -0.217234D-01 -0.605812D-01  0.258255D-01 -0.554309D-01
      2b -0.265314D-01 -0.322157D-01  0.190993D-01  0.472611D-01  0.737587D-02
      3a  0.813261D+00 -0.269893D+00 -0.532158D+00  0.387217D-01 -0.365238D+00
      3b -0.198188D+00  0.704904D+00  0.366524D-01 -0.880754D-02 -0.320230D-01
      4a  0.200249D+00 -0.247510D+00 -0.550924D+00  0.130940D+00 -0.550940D+00
      4b -0.208347D+00  0.187195D+00  0.143358D+00  0.683176D-01  0.165089D-01
      5a -0.256205D+00 -0.877103D-01  0.169614D+00 -0.237091D+00  0.824988D+00
      5b -0.555825D-01  0.171216D+00 -0.197929D+00  0.189401D+00 -0.190993D+00
      6a  0.870822D+00 -0.168899D+00 -0.454523D+00 -0.421218D-02 -0.268299D+00
      6b -0.168899D+00  0.773032D+00 -0.712776D-02 -0.551872D-02 -0.435966D-01
      7a -0.454523D+00 -0.712776D-02  0.111851D+01 -0.241544D+00  0.344615D+00
      7b -0.421218D-02 -0.551872D-02 -0.241544D+00  0.745936D+00 -0.282387D+00
      8a -0.268299D+00 -0.435966D-01  0.344615D+00 -0.282387D+00  0.847552D+00
      8b -0.385338D-01  0.187710D+00 -0.239215D+00  0.283642D+00 -0.219240D+00
      9a -0.195434D+00  0.500998D-01  0.379827D+00 -0.121795D+00 -0.103590D+00
      9b -0.132637D-01 -0.684323D-01 -0.217177D-01  0.239144D+00 -0.650190D-01
     10a -0.284788D+00 -0.271520D-01  0.111699D+01 -0.337670D+00  0.245600D+00
     10b  0.705910D-02  0.405399D-01 -0.207041D+00  0.670114D+00 -0.234784D+00
                16            17            18            19            20 
      1a  0.218994D-01 -0.102152D-01  0.845252D-01 -0.481385D+00  0.104729D+00
      1b -0.105424D-01 -0.752394D-02  0.109575D+00  0.135141D+00 -0.137779D-02
      2a  0.315079D-01 -0.173707D+00 -0.713692D-01  0.287599D-01  0.616811D-01
      2b  0.197610D-01  0.135318D+00 -0.111067D+00 -0.303681D-01  0.104271D+00
      3a -0.659794D-01 -0.648202D-01  0.160971D-01 -0.442240D+00  0.424110D-01
      3b  0.139990D+00 -0.803498D-02  0.155930D-01  0.353908D-01 -0.533647D-02
      4a  0.185781D-01 -0.132813D+00  0.577456D-01 -0.487060D+00  0.109223D+00
      4b -0.143632D-01  0.510194D-01  0.543787D-01  0.112627D+00  0.543472D-01
      5a -0.262697D+00  0.552444D-02 -0.611256D-01 -0.347291D-01 -0.170165D+00
      5b  0.706972D+00 -0.659337D-01 -0.415872D-01 -0.186329D+00  0.218401D-01
      6a -0.385338D-01 -0.195434D+00 -0.132637D-01 -0.284788D+00  0.705910D-02
      6b  0.187710D+00  0.500998D-01 -0.684323D-01 -0.271520D-01  0.405399D-01
      7a -0.239215D+00  0.379827D+00 -0.217177D-01  0.111699D+01 -0.207041D+00
      7b  0.283642D+00 -0.121795D+00  0.239144D+00 -0.337670D+00  0.670114D+00
      8a -0.219240D+00 -0.103590D+00 -0.650190D-01  0.245600D+00 -0.234784D+00
      8b  0.726317D+00 -0.176380D-01 -0.776062D-01 -0.261708D+00  0.153128D+00
      9a -0.176380D-01  0.590271D+00 -0.143163D+00  0.247566D+00 -0.589548D-01
      9b -0.776062D-01 -0.143163D+00  0.222138D+00 -0.250861D-01  0.182713D+00
     10a -0.261708D+00  0.247566D+00 -0.250861D-01  0.125444D+01 -0.315262D+00
     10b  0.153128D+00 -0.589548D-01  0.182713D+00 -0.315262D+00  0.661781D+00
 jaja non-ortho density matrix               [Gau-style] (imaginary):
                 1             2             3             4             5 
      1a  0.000000D+00  0.000000D+00  0.000000D+00  0.000000D+00  0.000000D+00
      1b  0.000000D+00  0.000000D+00  0.000000D+00  0.000000D+00  0.000000D+00
      2a  0.000000D+00  0.000000D+00  0.000000D+00  0.000000D+00  0.000000D+00
      2b  0.000000D+00  0.000000D+00  0.000000D+00  0.000000D+00  0.000000D+00
      3a  0.000000D+00  0.000000D+00  0.000000D+00  0.000000D+00  0.000000D+00
      3b  0.000000D+00  0.000000D+00  0.000000D+00  0.000000D+00  0.000000D+00
      4a  0.000000D+00  0.000000D+00  0.000000D+00  0.000000D+00  0.000000D+00
      4b  0.000000D+00  0.000000D+00  0.000000D+00  0.000000D+00  0.000000D+00
      5a  0.000000D+00  0.000000D+00  0.000000D+00  0.000000D+00  0.000000D+00
      5b  0.000000D+00  0.000000D+00  0.000000D+00  0.000000D+00  0.000000D+00
      6a  0.000000D+00  0.000000D+00  0.000000D+00  0.000000D+00  0.000000D+00
      6b  0.000000D+00  0.000000D+00  0.000000D+00  0.000000D+00  0.000000D+00
      7a  0.000000D+00  0.000000D+00  0.000000D+00  0.000000D+00  0.000000D+00
      7b  0.000000D+00  0.000000D+00  0.000000D+00  0.000000D+00  0.000000D+00
      8a  0.000000D+00  0.000000D+00  0.000000D+00  0.000000D+00  0.000000D+00
      8b  0.000000D+00  0.000000D+00  0.000000D+00  0.000000D+00  0.000000D+00
      9a  0.000000D+00  0.000000D+00  0.000000D+00  0.000000D+00  0.000000D+00
      9b  0.000000D+00  0.000000D+00  0.000000D+00  0.000000D+00  0.000000D+00
     10a  0.000000D+00  0.000000D+00  0.000000D+00  0.000000D+00  0.000000D+00
     10b  0.000000D+00  0.000000D+00  0.000000D+00  0.000000D+00  0.000000D+00
                 6             7             8             9            10 
      1a  0.000000D+00  0.000000D+00  0.000000D+00  0.000000D+00  0.000000D+00
      1b  0.000000D+00  0.000000D+00  0.000000D+00  0.000000D+00  0.000000D+00
      2a  0.000000D+00  0.000000D+00  0.000000D+00  0.000000D+00  0.000000D+00
      2b  0.000000D+00  0.000000D+00  0.000000D+00  0.000000D+00  0.000000D+00
      3a  0.000000D+00  0.000000D+00  0.000000D+00  0.000000D+00  0.000000D+00
      3b  0.000000D+00  0.000000D+00  0.000000D+00  0.000000D+00  0.000000D+00
      4a  0.000000D+00  0.000000D+00  0.000000D+00  0.000000D+00  0.000000D+00
      4b  0.000000D+00  0.000000D+00  0.000000D+00  0.000000D+00  0.000000D+00
      5a  0.000000D+00  0.000000D+00  0.000000D+00  0.000000D+00  0.000000D+00
      5b  0.000000D+00  0.000000D+00  0.000000D+00  0.000000D+00  0.000000D+00
      6a  0.000000D+00  0.000000D+00  0.000000D+00  0.000000D+00  0.000000D+00
      6b  0.000000D+00  0.000000D+00  0.000000D+00  0.000000D+00  0.000000D+00
      7a  0.000000D+00  0.000000D+00  0.000000D+00  0.000000D+00  0.000000D+00
      7b  0.000000D+00  0.000000D+00  0.000000D+00  0.000000D+00  0.000000D+00
      8a  0.000000D+00  0.000000D+00  0.000000D+00  0.000000D+00  0.000000D+00
      8b  0.000000D+00  0.000000D+00  0.000000D+00  0.000000D+00  0.000000D+00
      9a  0.000000D+00  0.000000D+00  0.000000D+00  0.000000D+00  0.000000D+00
      9b  0.000000D+00  0.000000D+00  0.000000D+00  0.000000D+00  0.000000D+00
     10a  0.000000D+00  0.000000D+00  0.000000D+00  0.000000D+00  0.000000D+00
     10b  0.000000D+00  0.000000D+00  0.000000D+00  0.000000D+00  0.000000D+00
                11            12            13            14            15 
      1a  0.000000D+00  0.000000D+00  0.000000D+00  0.000000D+00  0.000000D+00
      1b  0.000000D+00  0.000000D+00  0.000000D+00  0.000000D+00  0.000000D+00
      2a  0.000000D+00  0.000000D+00  0.000000D+00  0.000000D+00  0.000000D+00
      2b  0.000000D+00  0.000000D+00  0.000000D+00  0.000000D+00  0.000000D+00
      3a  0.000000D+00  0.000000D+00  0.000000D+00  0.000000D+00  0.000000D+00
      3b  0.000000D+00  0.000000D+00  0.000000D+00  0.000000D+00  0.000000D+00
      4a  0.000000D+00  0.000000D+00  0.000000D+00  0.000000D+00  0.000000D+00
      4b  0.000000D+00  0.000000D+00  0.000000D+00  0.000000D+00  0.000000D+00
      5a  0.000000D+00  0.000000D+00  0.000000D+00  0.000000D+00  0.000000D+00
      5b  0.000000D+00  0.000000D+00  0.000000D+00  0.000000D+00  0.000000D+00
      6a  0.000000D+00  0.000000D+00  0.000000D+00  0.000000D+00  0.000000D+00
      6b  0.000000D+00  0.000000D+00  0.000000D+00  0.000000D+00  0.000000D+00
      7a  0.000000D+00  0.000000D+00  0.000000D+00  0.000000D+00  0.000000D+00
      7b  0.000000D+00  0.000000D+00  0.000000D+00  0.000000D+00  0.000000D+00
      8a  0.000000D+00  0.000000D+00  0.000000D+00  0.000000D+00  0.000000D+00
      8b  0.000000D+00  0.000000D+00  0.000000D+00  0.000000D+00  0.000000D+00
      9a  0.000000D+00  0.000000D+00  0.000000D+00  0.000000D+00  0.000000D+00
      9b  0.000000D+00  0.000000D+00  0.000000D+00  0.000000D+00  0.000000D+00
     10a  0.000000D+00  0.000000D+00  0.000000D+00  0.000000D+00  0.000000D+00
     10b  0.000000D+00  0.000000D+00  0.000000D+00  0.000000D+00  0.000000D+00
                16            17            18            19            20 
      1a  0.000000D+00  0.000000D+00  0.000000D+00  0.000000D+00  0.000000D+00
      1b  0.000000D+00  0.000000D+00  0.000000D+00  0.000000D+00  0.000000D+00
      2a  0.000000D+00  0.000000D+00  0.000000D+00  0.000000D+00  0.000000D+00
      2b  0.000000D+00  0.000000D+00  0.000000D+00  0.000000D+00  0.000000D+00
      3a  0.000000D+00  0.000000D+00  0.000000D+00  0.000000D+00  0.000000D+00
      3b  0.000000D+00  0.000000D+00  0.000000D+00  0.000000D+00  0.000000D+00
      4a  0.000000D+00  0.000000D+00  0.000000D+00  0.000000D+00  0.000000D+00
      4b  0.000000D+00  0.000000D+00  0.000000D+00  0.000000D+00  0.000000D+00
      5a  0.000000D+00  0.000000D+00  0.000000D+00  0.000000D+00  0.000000D+00
      5b  0.000000D+00  0.000000D+00  0.000000D+00  0.000000D+00  0.000000D+00
      6a  0.000000D+00  0.000000D+00  0.000000D+00  0.000000D+00  0.000000D+00
      6b  0.000000D+00  0.000000D+00  0.000000D+00  0.000000D+00  0.000000D+00
      7a  0.000000D+00  0.000000D+00  0.000000D+00  0.000000D+00  0.000000D+00
      7b  0.000000D+00  0.000000D+00  0.000000D+00  0.000000D+00  0.000000D+00
      8a  0.000000D+00  0.000000D+00  0.000000D+00  0.000000D+00  0.000000D+00
      8b  0.000000D+00  0.000000D+00  0.000000D+00  0.000000D+00  0.000000D+00
      9a  0.000000D+00  0.000000D+00  0.000000D+00  0.000000D+00  0.000000D+00
      9b  0.000000D+00  0.000000D+00  0.000000D+00  0.000000D+00  0.000000D+00
     10a  0.000000D+00  0.000000D+00  0.000000D+00  0.000000D+00  0.000000D+00
     10b  0.000000D+00  0.000000D+00  0.000000D+00  0.000000D+00  0.000000D+00
FORTRAN STOP
