 Entering Gaussian System, Link 0=g09
 AtFile(1): H.gbs
            H     0
            S   10   1.00
               1000.000000000000            0.000068713567
                316.227766000000            0.000169141320
                100.000000000000            0.000823394812
                 31.622776600000            0.003425569236
                 10.000000000000            0.013951996000
                  3.162277660000            0.056909313560
                  1.000000000000            0.198286399900
                  0.316227766000            0.496922426700
                  0.100000000000            0.369846276400
                  0.031622776600            0.003752720039
            ****
 Initial command:
 /projects/guscus/apps/gau/g09-e1/g09/l1.exe "/users/lcj1/gaussian/h10/2rows_uhf/ag2bu3/singlet/mix/Gau-1139.inp" -scrdir="/users/lcj1/gaussian/h10/2rows_uhf/ag2bu3/singlet/mix/"
 Entering Link 1 = /projects/guscus/apps/gau/g09-e1/g09/l1.exe PID=      1140.
  
 Copyright (c) 1988,1990,1992,1993,1995,1998,2003,2009,2015,
            Gaussian, Inc.  All Rights Reserved.
  
 This is part of the Gaussian(R) 09 program.  It is based on
 the Gaussian(R) 03 system (copyright 2003, Gaussian, Inc.),
 the Gaussian(R) 98 system (copyright 1998, Gaussian, Inc.),
 the Gaussian(R) 94 system (copyright 1995, Gaussian, Inc.),
 the Gaussian 92(TM) system (copyright 1992, Gaussian, Inc.),
 the Gaussian 90(TM) system (copyright 1990, Gaussian, Inc.),
 the Gaussian 88(TM) system (copyright 1988, Gaussian, Inc.),
 the Gaussian 86(TM) system (copyright 1986, Carnegie Mellon
 University), and the Gaussian 82(TM) system (copyright 1983,
 Carnegie Mellon University). Gaussian is a federally registered
 trademark of Gaussian, Inc.
  
 This software contains proprietary and confidential information,
 including trade secrets, belonging to Gaussian, Inc.
  
 This software is provided under written license and may be
 used, copied, transmitted, or stored only in accord with that
 written license.
  
 The following legend is applicable only to US Government
 contracts under FAR:
  
                    RESTRICTED RIGHTS LEGEND
  
 Use, reproduction and disclosure by the US Government is
 subject to restrictions as set forth in subparagraphs (a)
 and (c) of the Commercial Computer Software - Restricted
 Rights clause in FAR 52.227-19.
  
 Gaussian, Inc.
 340 Quinnipiac St., Bldg. 40, Wallingford CT 06492
  
  
 ---------------------------------------------------------------
 Warning -- This program may not be used in any manner that
 competes with the business of Gaussian, Inc. or will provide
 assistance to any competitor of Gaussian, Inc.  The licensee
 of this program is prohibited from giving any competitor of
 Gaussian, Inc. access to this program.  By using this program,
 the user acknowledges that Gaussian, Inc. is engaged in the
 business of creating and licensing software in the field of
 computational chemistry and represents and warrants to the
 licensee that it is not a competitor of Gaussian, Inc. and that
 it will not use this program in any manner prohibited above.
 ---------------------------------------------------------------
  

 Cite this work as:
 Gaussian 09, Revision E.01,
 M. J. Frisch, G. W. Trucks, H. B. Schlegel, G. E. Scuseria, 
 M. A. Robb, J. R. Cheeseman, G. Scalmani, V. Barone, B. Mennucci, 
 G. A. Petersson, H. Nakatsuji, M. Caricato, X. Li, H. P. Hratchian, 
 A. F. Izmaylov, J. Bloino, G. Zheng, J. L. Sonnenberg, M. Hada, 
 M. Ehara, K. Toyota, R. Fukuda, J. Hasegawa, M. Ishida, T. Nakajima, 
 Y. Honda, O. Kitao, H. Nakai, T. Vreven, J. A. Montgomery, Jr., 
 J. E. Peralta, F. Ogliaro, M. Bearpark, J. J. Heyd, E. Brothers, 
 K. N. Kudin, V. N. Staroverov, T. Keith, R. Kobayashi, J. Normand, 
 K. Raghavachari, A. Rendell, J. C. Burant, S. S. Iyengar, J. Tomasi, 
 M. Cossi, N. Rega, J. M. Millam, M. Klene, J. E. Knox, J. B. Cross, 
 V. Bakken, C. Adamo, J. Jaramillo, R. Gomperts, R. E. Stratmann, 
 O. Yazyev, A. J. Austin, R. Cammi, C. Pomelli, J. W. Ochterski, 
 R. L. Martin, K. Morokuma, V. G. Zakrzewski, G. A. Voth, 
 P. Salvador, J. J. Dannenberg, S. Dapprich, A. D. Daniels, 
 O. Farkas, J. B. Foresman, J. V. Ortiz, J. Cioslowski, 
 and D. J. Fox, Gaussian, Inc., Wallingford CT, 2013.
 
 ******************************************
 Gaussian 09:  ES64L-G09RevE.01 30-Nov-2015
                23-Feb-2017 
 ******************************************
 %chk=h10.chk
 ----------------------------------------------------------------------
 #uhf/gen scf(tight,novaracc,noincfock,fulldiag, ) stable(crhf) guess=m
 ix geom=nocrowd test
 ----------------------------------------------------------------------
 1/38=1/1;
 2/12=1,17=6,18=5,40=1/2;
 3/5=7,16=1,25=1,30=1,116=2/1,2,3;
 4/13=-1/1;
 5/5=100002,16=1,32=2,38=1/2;
 8/6=1,10=90,11=11/1,4;
 9/8=4,13=1/2;
 6/7=2,8=2,9=2,10=2,28=1/1;
 99/5=1,9=1/99;
 ----------------------------------------------------------------------
 hf stability analysis of h10 triangular lattice, y= 0.6417319999662348
 7 alpha= 35.500000000000000
 ----------------------------------------------------------------------
 Symbolic Z-matrix:
 Charge =  0 Multiplicity = 1
 H
 H                    1     1.1051 
 H                    1     1.1051   2     109. 
 H                    2     1.1051   1     71.      3     0.       0
 H                    3     1.1051   1     180.     2     0.       0
 H                    4     1.1051   2     180.     1     0.       0
 H                    5     1.1051   3     180.     2     0.       0
 H                    6     1.1051   4     180.     1     0.       0
 H                    7     1.1051   5     180.     2     0.       0
 H                    8     1.1051   6     180.     1     0.       0
 
                          Input orientation:                          
 ---------------------------------------------------------------------
 Center     Atomic      Atomic             Coordinates (Angstroms)
 Number     Number       Type             X           Y           Z
 ---------------------------------------------------------------------
      1          1           0        0.000000    0.000000    0.000000
      2          1           0        0.000000    0.000000    1.105095
      3          1           0        1.044888    0.000000   -0.359784
      4          1           0        1.044888    0.000000    0.745311
      5          1           0        2.089776    0.000000   -0.719568
      6          1           0        2.089776    0.000000    0.385528
      7          1           0        3.134664    0.000000   -1.079351
      8          1           0        3.134664    0.000000    0.025744
      9          1           0        4.179552    0.000000   -1.439135
     10          1           0        4.179552    0.000000   -0.334040
 ---------------------------------------------------------------------
                    Distance matrix (angstroms):
                    1          2          3          4          5
     1  H    0.000000
     2  H    1.105095   0.000000
     3  H    1.105095   1.799350   0.000000
     4  H    1.283464   1.105095   1.105095   0.000000
     5  H    2.210190   2.774267   1.105095   1.799350   0.000000
     6  H    2.125040   2.210190   1.283464   1.105095   1.105095
     7  H    3.315285   3.820723   2.210190   2.774267   1.105095
     8  H    3.134770   3.315285   2.125040   2.210190   1.283464
     9  H    4.420380   4.893032   3.315285   3.820723   2.210190
    10  H    4.192879   4.420380   3.134770   3.315285   2.125040
                    6          7          8          9         10
     6  H    0.000000
     7  H    1.799350   0.000000
     8  H    1.105095   1.105095   0.000000
     9  H    2.774267   1.105095   1.799350   0.000000
    10  H    2.210190   1.283464   1.105095   1.105095   0.000000
 Stoichiometry    H10
 Framework group  C2H[SGH(H10)]
 Deg. of freedom     9
 Full point group                 C2H     NOp   4
 Largest Abelian subgroup         C2H     NOp   4
 Largest concise Abelian subgroup C2      NOp   2
                         Standard orientation:                         
 ---------------------------------------------------------------------
 Center     Atomic      Atomic             Coordinates (Angstroms)
 Number     Number       Type             X           Y           Z
 ---------------------------------------------------------------------
      1          1           0        2.089776   -0.167020    0.000000
      2          1           0        2.089776   -1.272115    0.000000
      3          1           0        1.044888    0.192764   -0.000000
      4          1           0        1.044888   -0.912331    0.000000
      5          1           0        0.000000    0.552548   -0.000000
      6          1           0       -0.000000   -0.552548   -0.000000
      7          1           0       -1.044888    0.912331    0.000000
      8          1           0       -1.044888   -0.192764   -0.000000
      9          1           0       -2.089776    1.272115    0.000000
     10          1           0       -2.089776    0.167020   -0.000000
 ---------------------------------------------------------------------
 Rotational constants (GHZ):    186.4537200     20.2294615     18.2494692
 General basis read from cards:  (5D, 7F)
 There are     5 symmetry adapted cartesian basis functions of AG  symmetry.
 There are     0 symmetry adapted cartesian basis functions of BG  symmetry.
 There are     0 symmetry adapted cartesian basis functions of AU  symmetry.
 There are     5 symmetry adapted cartesian basis functions of BU  symmetry.
 There are     5 symmetry adapted basis functions of AG  symmetry.
 There are     0 symmetry adapted basis functions of BG  symmetry.
 There are     0 symmetry adapted basis functions of AU  symmetry.
 There are     5 symmetry adapted basis functions of BU  symmetry.
    10 basis functions,   100 primitive gaussians,    10 cartesian basis functions
     5 alpha electrons        5 beta electrons
       nuclear repulsion energy        13.5333941658 Hartrees.
 NAtoms=   10 NActive=   10 NUniq=    5 SFac= 4.00D+00 NAtFMM=   60 NAOKFM=F Big=F
 Integral buffers will be    131072 words long.
 Regular integral format.
 Two-electron integral symmetry is turned on.
 One-electron integrals computed using PRISM.
 NBasis=    10 RedAO= T EigKep=  1.48D-01  NBF=     5     0     0     5
 NBsUse=    10 1.00D-06 EigRej= -1.00D+00 NBFU=     5     0     0     5
 ExpMin= 3.16D-02 ExpMax= 1.00D+03 ExpMxC= 1.00D+01 IAcc=3 IRadAn=         5 AccDes= 0.00D+00
 Harris functional with IExCor=  205 and IRadAn=       5 diagonalized for initial guess.
 HarFok:  IExCor=  205 AccDes= 0.00D+00 IRadAn=         5 IDoV= 1 UseB2=F ITyADJ=14
 ICtDFT=  3500011 ScaDFX=  1.000000  1.000000  1.000000  1.000000
 FoFCou: FMM=F IPFlag=           0 FMFlag=      100000 FMFlg1=           0
         NFxFlg=           0 DoJE=T BraDBF=F KetDBF=T FulRan=T
         wScrn=  0.000000 ICntrl=     500 IOpCl=  0 I1Cent=   200000004 NGrid=           0
         NMat0=    1 NMatS0=      1 NMatT0=    0 NMatD0=    1 NMtDS0=    0 NMtDT0=    0
 Petite list used in FoFCou.
 Mixing orbitals, IMix= 1 IMixAn=  0 NRI=1 NE=    5 Coef=  7.07106781D-01  7.07106781D-01
 Mixing orbitals, IMix= 1 IMixAn=  0 NRI=1 NE=    5 Coef= -7.07106781D-01  7.07106781D-01
 Initial guess orbital symmetries:
 Alpha Orbitals:
       Occupied  (AG) (BU) (AG) (BU) (?A)
       Virtual   (?A) (BU) (AG) (AG) (BU)
 Beta  Orbitals:
       Occupied  (AG) (BU) (AG) (BU) (?A)
       Virtual   (?A) (BU) (AG) (AG) (BU)
 Initial guess <Sx>= 0.0000 <Sy>= 0.0000 <Sz>= 0.0000 <S**2>= 1.0000 S= 0.6180
 Keep R1 and R2 ints in memory in symmetry-blocked form, NReq=879425.
 Requested convergence on RMS density matrix=1.00D-08 within 128 cycles.
 Requested convergence on MAX density matrix=1.00D-06.
 Requested convergence on             energy=1.00D-06.
 No special actions if energy rises.
 An orbital has undefined symmetry, so N**3 symmetry is turned off.
 Density matrix breaks symmetry, PCut= 1.00D-04
 Density matrix has no symmetry -- integrals replicated.
 Density matrix breaks symmetry, PCut= 1.00D-07
 Density matrix has no symmetry -- integrals replicated.
 Density matrix breaks symmetry, PCut= 1.00D-07
 Density matrix has no symmetry -- integrals replicated.
 Density matrix breaks symmetry, PCut= 1.00D-07
 Density matrix has no symmetry -- integrals replicated.
 Density matrix breaks symmetry, PCut= 1.00D-07
 Density matrix has no symmetry -- integrals replicated.
 Density matrix breaks symmetry, PCut= 1.00D-07
 Density matrix has no symmetry -- integrals replicated.
 Density matrix breaks symmetry, PCut= 1.00D-07
 Density matrix has no symmetry -- integrals replicated.
 Density matrix breaks symmetry, PCut= 1.00D-07
 Density matrix has no symmetry -- integrals replicated.
 Density matrix breaks symmetry, PCut= 1.00D-07
 Density matrix has no symmetry -- integrals replicated.
 Density matrix breaks symmetry, PCut= 1.00D-07
 Density matrix has no symmetry -- integrals replicated.
 Density matrix breaks symmetry, PCut= 1.00D-07
 Density matrix has no symmetry -- integrals replicated.
 Density matrix breaks symmetry, PCut= 1.00D-07
 Density matrix has no symmetry -- integrals replicated.
 Density matrix breaks symmetry, PCut= 1.00D-07
 Density matrix has no symmetry -- integrals replicated.
 Density matrix breaks symmetry, PCut= 1.00D-07
 Density matrix has no symmetry -- integrals replicated.
 Density matrix breaks symmetry, PCut= 1.00D-07
 Density matrix has no symmetry -- integrals replicated.
 Density matrix breaks symmetry, PCut= 1.00D-07
 Density matrix has no symmetry -- integrals replicated.
 Density matrix breaks symmetry, PCut= 1.00D-07
 Density matrix has no symmetry -- integrals replicated.
 SCF Done:  E(UHF) =  -4.93329153848     A.U. after   16 cycles
            NFock= 16  Conv=0.93D-08     -V/T= 1.9342
 <Sx>= 0.0000 <Sy>= 0.0000 <Sz>= 0.0000 <S**2>= 1.3467 S= 0.7636
 <L.S>= 0.000000000000E+00
 Annihilation of the first spin contaminant:
 S**2 before annihilation     1.3467,   after     2.6814
 Range of M.O.s used for correlation:     1    10
 NBasis=    10 NAE=     5 NBE=     5 NFC=     0 NFV=     0
 NROrb=     10 NOA=     5 NOB=     5 NVA=     5 NVB=     5
 Semi-Direct transformation.
 ModeAB=           2 MOrb=             5 LenV=     134107207
 LASXX=         1030 LTotXX=        1030 LenRXX=        1030
 LTotAB=        1825 MaxLAS=        2750 LenRXY=        2750
 NonZer=        2750 LenScr=      655360 LnRSAI=           0
 LnScr1=           0 LExtra=           0 Total=       659140
 MaxDsk=          -1 SrtSym=           F ITran=            3
 JobTyp=1 Pass  1:  I=   1 to   5.
 (rs|ai) integrals will be sorted in core.
 ModeAB=           2 MOrb=             5 LenV=     134107207
 LASXX=         1030 LTotXX=        1030 LenRXX=        2750
 LTotAB=         225 MaxLAS=        2750 LenRXY=         225
 NonZer=        2750 LenScr=      655360 LnRSAI=           0
 LnScr1=           0 LExtra=           0 Total=       658335
 MaxDsk=          -1 SrtSym=           F ITran=            3
 JobTyp=2 Pass  1:  I=   1 to   5.
 (rs|ai) integrals will be sorted in core.
 SymMOI:  orbitals are not symmetric.
 Spin components of T(2) and E(2):
     alpha-alpha T2 =       0.2529620732D-02 E2=     -0.3835104351D-02
     alpha-beta  T2 =       0.2745988793D-01 E2=     -0.4564677139D-01
     beta-beta   T2 =       0.2529620732D-02 E2=     -0.3835104351D-02
 ANorm=    0.1016129485D+01
 E2 =    -0.5331698009D-01 EUMP2 =    -0.49866085185675D+01
 (S**2,0)=  0.13467D+01           (S**2,1)=  0.12219D+01
 E(PUHF)=      -0.50837549773D+01        E(PMP2)=      -0.51345507542D+01
 Second order stability test of a single determinant UHF wave function:
 Stabil:  MDV=134217728
 ***********************************************************************
 Matrix         Lowest Root    Major Pairs
 ***********************************************************************
 Internal UHF     0.0909604    Stable
 RUHF --> CUHF (A)0.1360114    Stable
 RUHF --> CUHF (B)0.1360114    Stable
 RUHF --> GHF     0.           Zero root
 Stable under the perturbations considered.
 ***********************************************************************

 **********************************************************************

            Population analysis using the SCF density.

 **********************************************************************

 Orbital symmetries:
 Alpha Orbitals:
       Occupied  (BG) (BG) (BG) (BG) (BG)
       Virtual   (BG) (BG) (BG) (BG) (BG)
 Beta  Orbitals:
       Occupied  (BG) (BG) (BG) (BG) (BG)
       Virtual   (BG) (BG) (BG) (BG) (BG)
 Unable to determine electronic state:  partially filled degenerate orbitals.
 Alpha  occ. eigenvalues --   -0.86251  -0.74539  -0.56150  -0.42105  -0.37130
 Alpha virt. eigenvalues --    0.05295   0.21921   0.32134   0.54642   0.76129
  Beta  occ. eigenvalues --   -0.86251  -0.74539  -0.56150  -0.42105  -0.37130
  Beta virt. eigenvalues --    0.05295   0.21921   0.32134   0.54642   0.76129
          Condensed to atoms (all electrons):
               1          2          3          4          5          6
     1  H    0.959368   0.149163   0.165598  -0.171946  -0.008431  -0.099788
     2  H    0.149163   0.866008  -0.139524   0.106113  -0.015083  -0.020734
     3  H    0.165598  -0.139524   1.119346  -0.055738   0.179328  -0.121616
     4  H   -0.171946   0.106113  -0.055738   0.988398  -0.105398   0.264873
     5  H   -0.008431  -0.015083   0.179328  -0.105398   0.951397  -0.012232
     6  H   -0.099788  -0.020734  -0.121616   0.264873  -0.012232   0.951397
     7  H    0.002255   0.003938  -0.027826  -0.019833   0.264873  -0.105398
     8  H    0.005448   0.005538  -0.084834  -0.027826  -0.121616   0.179328
     9  H   -0.000641  -0.000131   0.005538   0.003938  -0.020734  -0.015083
    10  H    0.001454  -0.000641   0.005448   0.002255  -0.099788  -0.008431
               7          8          9         10
     1  H    0.002255   0.005448  -0.000641   0.001454
     2  H    0.003938   0.005538  -0.000131  -0.000641
     3  H   -0.027826  -0.084834   0.005538   0.005448
     4  H   -0.019833  -0.027826   0.003938   0.002255
     5  H    0.264873  -0.121616  -0.020734  -0.099788
     6  H   -0.105398   0.179328  -0.015083  -0.008431
     7  H    0.988398  -0.055738   0.106113  -0.171946
     8  H   -0.055738   1.119346  -0.139524   0.165598
     9  H    0.106113  -0.139524   0.866008   0.149163
    10  H   -0.171946   0.165598   0.149163   0.959368
          Atomic-Atomic Spin Densities.
               1          2          3          4          5          6
     1  H    0.731018   0.089139  -0.082264  -0.193546   0.000236  -0.028296
     2  H    0.089139  -0.698624   0.120564  -0.093687  -0.008161   0.000039
     3  H   -0.082264   0.120564  -0.786666  -0.020586   0.150511   0.093362
     4  H   -0.193546  -0.093687  -0.020586   0.782704  -0.067869   0.136126
     5  H    0.000236  -0.008161   0.150511  -0.067869   0.445508  -0.000000
     6  H   -0.028296   0.000039   0.093362   0.136126  -0.000000  -0.445508
     7  H    0.001630  -0.004348   0.044792  -0.000000  -0.136126   0.067869
     8  H    0.015176   0.002166   0.000000  -0.044792  -0.093362  -0.150511
     9  H   -0.001382   0.000000  -0.002166   0.004348  -0.000039   0.008161
    10  H   -0.000000   0.001382  -0.015176  -0.001630   0.028296  -0.000236
               7          8          9         10
     1  H    0.001630   0.015176  -0.001382  -0.000000
     2  H   -0.004348   0.002166   0.000000   0.001382
     3  H    0.044792   0.000000  -0.002166  -0.015176
     4  H   -0.000000  -0.044792   0.004348  -0.001630
     5  H   -0.136126  -0.093362  -0.000039   0.028296
     6  H    0.067869  -0.150511   0.008161  -0.000236
     7  H   -0.782704   0.020586   0.093687   0.193546
     8  H    0.020586   0.786666  -0.120564   0.082264
     9  H    0.093687  -0.120564   0.698624  -0.089139
    10  H    0.193546   0.082264  -0.089139  -0.731018
 Mulliken charges and spin densities:
               1          2
     1  H   -0.002481   0.531711
     2  H    0.045352  -0.591529
     3  H   -0.045720  -0.497628
     4  H    0.015165   0.501067
     5  H   -0.012317   0.318993
     6  H   -0.012317  -0.318993
     7  H    0.015165  -0.501067
     8  H   -0.045720   0.497628
     9  H    0.045352   0.591529
    10  H   -0.002481  -0.531711
 Sum of Mulliken charges =  -0.00000   0.00000
 Mulliken charges and spin densities with hydrogens summed into heavy atoms:
               1          2
 Electronic spatial extent (au):  <R**2>=            128.5430
 Charge=             -0.0000 electrons
 Dipole moment (field-independent basis, Debye):
    X=              0.0000    Y=             -0.0000    Z=              0.0000  Tot=              0.0000
 Quadrupole moment (field-independent basis, Debye-Ang):
   XX=            -13.7191   YY=            -14.3599   ZZ=            -12.8344
   XY=             -1.7842   XZ=             -0.0000   YZ=             -0.0000
 Traceless Quadrupole moment (field-independent basis, Debye-Ang):
   XX=             -0.0813   YY=             -0.7221   ZZ=              0.8034
   XY=             -1.7842   XZ=             -0.0000   YZ=             -0.0000
 Octapole moment (field-independent basis, Debye-Ang**2):
  XXX=              0.0000  YYY=             -0.0000  ZZZ=             -0.0000  XYY=              0.0000
  XXY=             -0.0000  XXZ=             -0.0000  XZZ=              0.0000  YZZ=             -0.0000
  YYZ=             -0.0000  XYZ=              0.0000
 Hexadecapole moment (field-independent basis, Debye-Ang**3):
 XXXX=           -202.0982 YYYY=            -65.0140 ZZZZ=            -15.4258 XXXY=             25.1841
 XXXZ=             -0.0000 YYYX=             27.8658 YYYZ=              0.0000 ZZZX=             -0.0000
 ZZZY=              0.0000 XXYY=            -41.3072 XXZZ=            -34.4343 YYZZ=            -13.3042
 XXYZ=              0.0000 YYXZ=             -0.0000 ZZXY=              9.4420
 N-N= 1.353339416583D+01 E-N=-3.629076528124D+01  KE= 5.280909573972D+00
 Symmetry AG   KE= 2.379102197313D+00
 Symmetry BG   KE= 0.000000000000D+00
 Symmetry AU   KE= 0.000000000000D+00
 Symmetry BU   KE= 2.901807376659D+00
                          Isotropic Fermi Contact Couplings
        Atom                 a.u.       MegaHertz       Gauss      10(-4) cm-1
     1  H(1)               0.20335     454.48589     162.17186     151.60018
     2  H(1)              -0.20716    -462.99638    -165.20861    -154.43897
     3  H(1)              -0.21512    -480.78926    -171.55756    -160.37403
     4  H(1)               0.21530     481.18804     171.69985     160.50705
     5  H(1)               0.12425     277.68331      99.08431      92.62518
     6  H(1)              -0.12425    -277.68331     -99.08431     -92.62518
     7  H(1)              -0.21530    -481.18804    -171.69985    -160.50705
     8  H(1)               0.21512     480.78926     171.55756     160.37403
     9  H(1)               0.20716     462.99638     165.20861     154.43897
    10  H(1)              -0.20335    -454.48589    -162.17186    -151.60018
 --------------------------------------------------------
       Center         ----  Spin Dipole Couplings  ----
                      3XX-RR        3YY-RR        3ZZ-RR
 --------------------------------------------------------
     1   Atom       -0.017042     -0.047189      0.064231
     2   Atom        0.015635      0.048180     -0.063815
     3   Atom        0.061567      0.020622     -0.082189
     4   Atom       -0.032860     -0.041341      0.074201
     5   Atom       -0.074248      0.007652      0.066596
     6   Atom        0.074248     -0.007652     -0.066596
     7   Atom        0.032860      0.041341     -0.074201
     8   Atom       -0.061567     -0.020622      0.082189
     9   Atom       -0.015635     -0.048180      0.063815
    10   Atom        0.017042      0.047189     -0.064231
 --------------------------------------------------------
                        XY            XZ            YZ
 --------------------------------------------------------
     1   Atom        0.066976     -0.000000      0.000000
     2   Atom        0.000590     -0.000000     -0.000000
     3   Atom       -0.044149      0.000000     -0.000000
     4   Atom        0.070381     -0.000000      0.000000
     5   Atom        0.074380      0.000000     -0.000000
     6   Atom       -0.074380      0.000000     -0.000000
     7   Atom       -0.070381     -0.000000      0.000000
     8   Atom        0.044149      0.000000     -0.000000
     9   Atom       -0.000590      0.000000     -0.000000
    10   Atom       -0.066976      0.000000      0.000000
 --------------------------------------------------------


 ---------------------------------------------------------------------------------
              Anisotropic Spin Dipole Couplings in Principal Axis System
 ---------------------------------------------------------------------------------

       Atom             a.u.   MegaHertz   Gauss  10(-4) cm-1        Axes

              Baa    -0.1008   -53.764   -19.184   -17.934 -0.6247  0.7809  0.0000
     1 H(1)   Bbb     0.0365    19.494     6.956     6.502  0.7809  0.6247  0.0000
              Bcc     0.0642    34.271    12.229    11.431  0.0000  0.0000  1.0000
 
              Baa    -0.0638   -34.049   -12.149   -11.357  0.0000  0.0000  1.0000
     2 H(1)   Bbb     0.0156     8.336     2.975     2.781  0.9998 -0.0181  0.0000
              Bcc     0.0482    25.712     9.175     8.577  0.0181  0.9998  0.0000
 
              Baa    -0.0822   -43.852   -15.647   -14.627  0.0000  0.0000  1.0000
     3 H(1)   Bbb    -0.0076    -4.039    -1.441    -1.347  0.5382  0.8428  0.0000
              Bcc     0.0898    47.891    17.089    15.975  0.8428 -0.5382  0.0000
 
              Baa    -0.1076   -57.415   -20.487   -19.152 -0.6855  0.7281  0.0000
     4 H(1)   Bbb     0.0334    17.825     6.360     5.946  0.7281  0.6855  0.0000
              Bcc     0.0742    39.590    14.127    13.206  0.0000  0.0000  1.0000
 
              Baa    -0.1182   -63.069   -22.505   -21.038  0.8609 -0.5088  0.0000
     5 H(1)   Bbb     0.0516    27.536     9.826     9.185  0.5088  0.8609  0.0000
              Bcc     0.0666    35.533    12.679    11.852  0.0000  0.0000  1.0000
 
              Baa    -0.0666   -35.533   -12.679   -11.852  0.0000  0.0000  1.0000
     6 H(1)   Bbb    -0.0516   -27.536    -9.826    -9.185  0.5088  0.8609  0.0000
              Bcc     0.1182    63.069    22.505    21.038  0.8609 -0.5088  0.0000
 
              Baa    -0.0742   -39.590   -14.127   -13.206  0.0000  0.0000  1.0000
     7 H(1)   Bbb    -0.0334   -17.825    -6.360    -5.946  0.7281  0.6855  0.0000
              Bcc     0.1076    57.415    20.487    19.152 -0.6855  0.7281  0.0000
 
              Baa    -0.0898   -47.891   -17.089   -15.975  0.8428 -0.5382  0.0000
     8 H(1)   Bbb     0.0076     4.039     1.441     1.347  0.5382  0.8428  0.0000
              Bcc     0.0822    43.852    15.647    14.627  0.0000  0.0000  1.0000
 
              Baa    -0.0482   -25.712    -9.175    -8.577  0.0181  0.9998  0.0000
     9 H(1)   Bbb    -0.0156    -8.336    -2.975    -2.781  0.9998 -0.0181  0.0000
              Bcc     0.0638    34.049    12.149    11.357  0.0000  0.0000  1.0000
 
              Baa    -0.0642   -34.271   -12.229   -11.431  0.0000  0.0000  1.0000
    10 H(1)   Bbb    -0.0365   -19.494    -6.956    -6.502  0.7809  0.6247  0.0000
              Bcc     0.1008    53.764    19.184    17.934 -0.6247  0.7809 -0.0000
 

 ---------------------------------------------------------------------------------


 Test job not archived.
 1\1\GINC-SULU\Stability\UHF\Gen\H10\LCJ1\23-Feb-2017\0\\#uhf/gen scf(t
 ight,novaracc,noincfock,fulldiag, ) stable(crhf) guess=mix geom=nocrow
 d test\\hf stability analysis of h10 triangular lattice, y= 0.64173199
 996623487 alpha= 35.500000000000000\\0,1\H\H,1,1.1050950889\H,1,1.1050
 950889,2,109.\H,2,1.1050950889,1,71.,3,0.,0\H,3,1.1050950889,1,180.,2,
 0.,0\H,4,1.1050950889,2,180.,1,0.,0\H,5,1.1050950889,3,180.,2,0.,0\H,6
 ,1.1050950889,4,180.,1,0.,0\H,7,1.1050950889,5,180.,2,0.,0\H,8,1.10509
 50889,6,180.,1,0.,0\\Version=ES64L-G09RevE.01\HF=-4.9332915\MP2=-4.986
 6085\PUHF=-5.083755\PMP2-0=-5.1345508\S2=1.346716\S2-1=1.22187\S2A=2.6
 81445\RMSD=9.329e-09\Dipole=0.,0.,0.\Quadrupole=-0.0604587,0.5973172,-
 0.5368585,0.,-1.3265248,0.\PG=C02H [SGH(H10)]\\@


 Boundary, n.  In political geography, an imaginary
 line between two nations, separating the imaginary
 rights of one from the imaginary rights of another.
                               -- Ambrose Bierce
 Job cpu time:       0 days  0 hours  0 minutes  1.5 seconds.
 File lengths (MBytes):  RWF=     94 Int=      0 D2E=      0 Chk=      2 Scr=      2
 Normal termination of Gaussian 09 at Thu Feb 23 13:00:18 2017.
