 Entering Gaussian System, Link 0=g09
 AtFile(1): H.gbs
            H     0
            S   10   1.00
               1000.000000000000            0.000068713567
                316.227766000000            0.000169141320
                100.000000000000            0.000823394812
                 31.622776600000            0.003425569236
                 10.000000000000            0.013951996000
                  3.162277660000            0.056909313560
                  1.000000000000            0.198286399900
                  0.316227766000            0.496922426700
                  0.100000000000            0.369846276400
                  0.031622776600            0.003752720039
            ****
 Initial command:
 /projects/guscus/apps/gau/g09-e1/g09/l1.exe "/users/lcj1/gaussian/h10/2rows_uhf/ag2bu3/singlet/mix/Gau-31023.inp" -scrdir="/users/lcj1/gaussian/h10/2rows_uhf/ag2bu3/singlet/mix/"
 Entering Link 1 = /projects/guscus/apps/gau/g09-e1/g09/l1.exe PID=     31024.
  
 Copyright (c) 1988,1990,1992,1993,1995,1998,2003,2009,2015,
            Gaussian, Inc.  All Rights Reserved.
  
 This is part of the Gaussian(R) 09 program.  It is based on
 the Gaussian(R) 03 system (copyright 2003, Gaussian, Inc.),
 the Gaussian(R) 98 system (copyright 1998, Gaussian, Inc.),
 the Gaussian(R) 94 system (copyright 1995, Gaussian, Inc.),
 the Gaussian 92(TM) system (copyright 1992, Gaussian, Inc.),
 the Gaussian 90(TM) system (copyright 1990, Gaussian, Inc.),
 the Gaussian 88(TM) system (copyright 1988, Gaussian, Inc.),
 the Gaussian 86(TM) system (copyright 1986, Carnegie Mellon
 University), and the Gaussian 82(TM) system (copyright 1983,
 Carnegie Mellon University). Gaussian is a federally registered
 trademark of Gaussian, Inc.
  
 This software contains proprietary and confidential information,
 including trade secrets, belonging to Gaussian, Inc.
  
 This software is provided under written license and may be
 used, copied, transmitted, or stored only in accord with that
 written license.
  
 The following legend is applicable only to US Government
 contracts under FAR:
  
                    RESTRICTED RIGHTS LEGEND
  
 Use, reproduction and disclosure by the US Government is
 subject to restrictions as set forth in subparagraphs (a)
 and (c) of the Commercial Computer Software - Restricted
 Rights clause in FAR 52.227-19.
  
 Gaussian, Inc.
 340 Quinnipiac St., Bldg. 40, Wallingford CT 06492
  
  
 ---------------------------------------------------------------
 Warning -- This program may not be used in any manner that
 competes with the business of Gaussian, Inc. or will provide
 assistance to any competitor of Gaussian, Inc.  The licensee
 of this program is prohibited from giving any competitor of
 Gaussian, Inc. access to this program.  By using this program,
 the user acknowledges that Gaussian, Inc. is engaged in the
 business of creating and licensing software in the field of
 computational chemistry and represents and warrants to the
 licensee that it is not a competitor of Gaussian, Inc. and that
 it will not use this program in any manner prohibited above.
 ---------------------------------------------------------------
  

 Cite this work as:
 Gaussian 09, Revision E.01,
 M. J. Frisch, G. W. Trucks, H. B. Schlegel, G. E. Scuseria, 
 M. A. Robb, J. R. Cheeseman, G. Scalmani, V. Barone, B. Mennucci, 
 G. A. Petersson, H. Nakatsuji, M. Caricato, X. Li, H. P. Hratchian, 
 A. F. Izmaylov, J. Bloino, G. Zheng, J. L. Sonnenberg, M. Hada, 
 M. Ehara, K. Toyota, R. Fukuda, J. Hasegawa, M. Ishida, T. Nakajima, 
 Y. Honda, O. Kitao, H. Nakai, T. Vreven, J. A. Montgomery, Jr., 
 J. E. Peralta, F. Ogliaro, M. Bearpark, J. J. Heyd, E. Brothers, 
 K. N. Kudin, V. N. Staroverov, T. Keith, R. Kobayashi, J. Normand, 
 K. Raghavachari, A. Rendell, J. C. Burant, S. S. Iyengar, J. Tomasi, 
 M. Cossi, N. Rega, J. M. Millam, M. Klene, J. E. Knox, J. B. Cross, 
 V. Bakken, C. Adamo, J. Jaramillo, R. Gomperts, R. E. Stratmann, 
 O. Yazyev, A. J. Austin, R. Cammi, C. Pomelli, J. W. Ochterski, 
 R. L. Martin, K. Morokuma, V. G. Zakrzewski, G. A. Voth, 
 P. Salvador, J. J. Dannenberg, S. Dapprich, A. D. Daniels, 
 O. Farkas, J. B. Foresman, J. V. Ortiz, J. Cioslowski, 
 and D. J. Fox, Gaussian, Inc., Wallingford CT, 2013.
 
 ******************************************
 Gaussian 09:  ES64L-G09RevE.01 30-Nov-2015
                23-Feb-2017 
 ******************************************
 %chk=h10.chk
 ----------------------------------------------------------------------
 #uhf/gen scf(tight,novaracc,noincfock,fulldiag, ) stable(crhf) guess=m
 ix geom=nocrowd test
 ----------------------------------------------------------------------
 1/38=1/1;
 2/12=1,17=6,18=5,40=1/2;
 3/5=7,16=1,25=1,30=1,116=2/1,2,3;
 4/13=-1/1;
 5/5=100002,16=1,32=2,38=1/2;
 8/6=1,10=90,11=11/1,4;
 9/8=4,13=1/2;
 6/7=2,8=2,9=2,10=2,28=1/1;
 99/5=1,9=1/99;
 ----------------------------------------------------------------------
 hf stability analysis of h10 triangular lattice, y= 0.5715322184328752
 7 alpha= 29.500000000000000
 ----------------------------------------------------------------------
 Symbolic Z-matrix:
 Charge =  0 Multiplicity = 1
 H
 H                    1     1.16065 
 H                    1     1.16065  2     121. 
 H                    2     1.16065  1     59.      3     0.       0
 H                    3     1.16065  1     180.     2     0.       0
 H                    4     1.16065  2     180.     1     0.       0
 H                    5     1.16065  3     180.     2     0.       0
 H                    6     1.16065  4     180.     1     0.       0
 H                    7     1.16065  5     180.     2     0.       0
 H                    8     1.16065  6     180.     1     0.       0
 
                          Input orientation:                          
 ---------------------------------------------------------------------
 Center     Atomic      Atomic             Coordinates (Angstroms)
 Number     Number       Type             X           Y           Z
 ---------------------------------------------------------------------
      1          1           0        0.000000    0.000000    0.000000
      2          1           0        0.000000    0.000000    1.160652
      3          1           0        0.994873    0.000000   -0.597780
      4          1           0        0.994873    0.000000    0.562872
      5          1           0        1.989745    0.000000   -1.195560
      6          1           0        1.989745    0.000000   -0.034908
      7          1           0        2.984618    0.000000   -1.793339
      8          1           0        2.984618    0.000000   -0.632688
      9          1           0        3.979490    0.000000   -2.391119
     10          1           0        3.979490    0.000000   -1.230467
 ---------------------------------------------------------------------
                    Distance matrix (angstroms):
                    1          2          3          4          5
     1  H    0.000000
     2  H    1.160652   0.000000
     3  H    1.160652   2.020360   0.000000
     4  H    1.143064   1.160652   1.160652   0.000000
     5  H    2.321303   3.083961   1.160652   2.020360   0.000000
     6  H    1.990051   2.321303   1.143064   1.160652   1.160652
     7  H    3.481955   4.199286   2.321303   3.083961   1.160652
     8  H    3.050940   3.481955   1.990051   2.321303   1.143064
     9  H    4.642606   5.333987   3.481955   4.199286   2.321303
    10  H    4.165380   4.642606   3.050940   3.481955   1.990051
                    6          7          8          9         10
     6  H    0.000000
     7  H    2.020360   0.000000
     8  H    1.160652   1.160652   0.000000
     9  H    3.083961   1.160652   2.020360   0.000000
    10  H    2.321303   1.143064   1.160652   1.160652   0.000000
 Stoichiometry    H10
 Framework group  C2H[SGH(H10)]
 Deg. of freedom     9
 Full point group                 C2H     NOp   4
 Largest Abelian subgroup         C2H     NOp   4
 Largest concise Abelian subgroup C2      NOp   2
                         Standard orientation:                         
 ---------------------------------------------------------------------
 Center     Atomic      Atomic             Coordinates (Angstroms)
 Number     Number       Type             X           Y           Z
 ---------------------------------------------------------------------
      1          1           0        1.989745   -0.615234    0.000000
      2          1           0        1.989745   -1.775885    0.000000
      3          1           0        0.994873   -0.017454    0.000000
      4          1           0        0.994873   -1.178106    0.000000
      5          1           0        0.000000    0.580326    0.000000
      6          1           0       -0.000000   -0.580326    0.000000
      7          1           0       -0.994873    1.178106   -0.000000
      8          1           0       -0.994873    0.017454    0.000000
      9          1           0       -1.989745    1.775885   -0.000000
     10          1           0       -1.989745    0.615234    0.000000
 ---------------------------------------------------------------------
 Rotational constants (GHZ):    210.0279077     17.9588438     16.5441999
 General basis read from cards:  (5D, 7F)
 There are     5 symmetry adapted cartesian basis functions of AG  symmetry.
 There are     0 symmetry adapted cartesian basis functions of BG  symmetry.
 There are     0 symmetry adapted cartesian basis functions of AU  symmetry.
 There are     5 symmetry adapted cartesian basis functions of BU  symmetry.
 There are     5 symmetry adapted basis functions of AG  symmetry.
 There are     0 symmetry adapted basis functions of BG  symmetry.
 There are     0 symmetry adapted basis functions of AU  symmetry.
 There are     5 symmetry adapted basis functions of BU  symmetry.
    10 basis functions,   100 primitive gaussians,    10 cartesian basis functions
     5 alpha electrons        5 beta electrons
       nuclear repulsion energy        13.1679264804 Hartrees.
 NAtoms=   10 NActive=   10 NUniq=    5 SFac= 4.00D+00 NAtFMM=   60 NAOKFM=F Big=F
 Integral buffers will be    131072 words long.
 Regular integral format.
 Two-electron integral symmetry is turned on.
 One-electron integrals computed using PRISM.
 NBasis=    10 RedAO= T EigKep=  1.94D-01  NBF=     5     0     0     5
 NBsUse=    10 1.00D-06 EigRej= -1.00D+00 NBFU=     5     0     0     5
 ExpMin= 3.16D-02 ExpMax= 1.00D+03 ExpMxC= 1.00D+01 IAcc=3 IRadAn=         5 AccDes= 0.00D+00
 Harris functional with IExCor=  205 and IRadAn=       5 diagonalized for initial guess.
 HarFok:  IExCor=  205 AccDes= 0.00D+00 IRadAn=         5 IDoV= 1 UseB2=F ITyADJ=14
 ICtDFT=  3500011 ScaDFX=  1.000000  1.000000  1.000000  1.000000
 FoFCou: FMM=F IPFlag=           0 FMFlag=      100000 FMFlg1=           0
         NFxFlg=           0 DoJE=T BraDBF=F KetDBF=T FulRan=T
         wScrn=  0.000000 ICntrl=     500 IOpCl=  0 I1Cent=   200000004 NGrid=           0
         NMat0=    1 NMatS0=      1 NMatT0=    0 NMatD0=    1 NMtDS0=    0 NMtDT0=    0
 Petite list used in FoFCou.
 Mixing orbitals, IMix= 1 IMixAn=  0 NRI=1 NE=    5 Coef=  7.07106781D-01  7.07106781D-01
 Mixing orbitals, IMix= 1 IMixAn=  0 NRI=1 NE=    5 Coef= -7.07106781D-01  7.07106781D-01
 Initial guess orbital symmetries:
 Alpha Orbitals:
       Occupied  (AG) (BU) (AG) (BU) (?A)
       Virtual   (?A) (AG) (BU) (AG) (BU)
 Beta  Orbitals:
       Occupied  (AG) (BU) (AG) (BU) (?A)
       Virtual   (?A) (AG) (BU) (AG) (BU)
 Initial guess <Sx>= 0.0000 <Sy>= 0.0000 <Sz>= 0.0000 <S**2>= 1.0000 S= 0.6180
 Keep R1 and R2 ints in memory in symmetry-blocked form, NReq=879047.
 Requested convergence on RMS density matrix=1.00D-08 within 128 cycles.
 Requested convergence on MAX density matrix=1.00D-06.
 Requested convergence on             energy=1.00D-06.
 No special actions if energy rises.
 An orbital has undefined symmetry, so N**3 symmetry is turned off.
 Density matrix breaks symmetry, PCut= 1.00D-04
 Density matrix has no symmetry -- integrals replicated.
 Density matrix breaks symmetry, PCut= 1.00D-07
 Density matrix has no symmetry -- integrals replicated.
 Density matrix breaks symmetry, PCut= 1.00D-07
 Density matrix has no symmetry -- integrals replicated.
 Density matrix breaks symmetry, PCut= 1.00D-07
 Density matrix has no symmetry -- integrals replicated.
 Density matrix breaks symmetry, PCut= 1.00D-07
 Density matrix has no symmetry -- integrals replicated.
 Density matrix breaks symmetry, PCut= 1.00D-07
 Density matrix has no symmetry -- integrals replicated.
 Density matrix breaks symmetry, PCut= 1.00D-07
 Density matrix has no symmetry -- integrals replicated.
 Density matrix breaks symmetry, PCut= 1.00D-07
 Density matrix has no symmetry -- integrals replicated.
 Density matrix breaks symmetry, PCut= 1.00D-07
 Density matrix has no symmetry -- integrals replicated.
 Density matrix breaks symmetry, PCut= 1.00D-07
 Density matrix has no symmetry -- integrals replicated.
 Density matrix breaks symmetry, PCut= 1.00D-07
 Density matrix has no symmetry -- integrals replicated.
 Density matrix breaks symmetry, PCut= 1.00D-07
 Density matrix has no symmetry -- integrals replicated.
 Density matrix breaks symmetry, PCut= 1.00D-07
 Density matrix has no symmetry -- integrals replicated.
 Density matrix breaks symmetry, PCut= 1.00D-07
 Density matrix has no symmetry -- integrals replicated.
 Density matrix breaks symmetry, PCut= 1.00D-07
 Density matrix has no symmetry -- integrals replicated.
 Density matrix breaks symmetry, PCut= 1.00D-07
 Density matrix has no symmetry -- integrals replicated.
 Density matrix breaks symmetry, PCut= 1.00D-07
 Density matrix has no symmetry -- integrals replicated.
 Density matrix breaks symmetry, PCut= 1.00D-07
 Density matrix has no symmetry -- integrals replicated.
 Density matrix breaks symmetry, PCut= 1.00D-07
 Density matrix has no symmetry -- integrals replicated.
 Density matrix breaks symmetry, PCut= 1.00D-07
 Density matrix has no symmetry -- integrals replicated.
 SCF Done:  E(UHF) =  -4.89072329535     A.U. after   19 cycles
            NFock= 19  Conv=0.58D-08     -V/T= 1.9468
 <Sx>= 0.0000 <Sy>= 0.0000 <Sz>= 0.0000 <S**2>= 1.0391 S= 0.6354
 <L.S>= 0.000000000000E+00
 Annihilation of the first spin contaminant:
 S**2 before annihilation     1.0391,   after     1.3588
 Range of M.O.s used for correlation:     1    10
 NBasis=    10 NAE=     5 NBE=     5 NFC=     0 NFV=     0
 NROrb=     10 NOA=     5 NOB=     5 NVA=     5 NVB=     5
 Semi-Direct transformation.
 ModeAB=           2 MOrb=             5 LenV=     134107333
 LASXX=         1030 LTotXX=        1030 LenRXX=        1030
 LTotAB=        1825 MaxLAS=        2750 LenRXY=        2750
 NonZer=        2750 LenScr=      655360 LnRSAI=           0
 LnScr1=           0 LExtra=           0 Total=       659140
 MaxDsk=          -1 SrtSym=           F ITran=            3
 JobTyp=1 Pass  1:  I=   1 to   5.
 (rs|ai) integrals will be sorted in core.
 ModeAB=           2 MOrb=             5 LenV=     134107333
 LASXX=         1030 LTotXX=        1030 LenRXX=        2750
 LTotAB=         225 MaxLAS=        2750 LenRXY=         225
 NonZer=        2750 LenScr=      655360 LnRSAI=           0
 LnScr1=           0 LExtra=           0 Total=       658335
 MaxDsk=          -1 SrtSym=           F ITran=            3
 JobTyp=2 Pass  1:  I=   1 to   5.
 (rs|ai) integrals will be sorted in core.
 SymMOI:  orbitals are not symmetric.
 Spin components of T(2) and E(2):
     alpha-alpha T2 =       0.4095307728D-02 E2=     -0.5486444841D-02
     alpha-beta  T2 =       0.4157180428D-01 E2=     -0.6111149753D-01
     beta-beta   T2 =       0.4095307728D-02 E2=     -0.5486444841D-02
 ANorm=    0.1024579143D+01
 E2 =    -0.7208438721D-01 EUMP2 =    -0.49628076825611D+01
 (S**2,0)=  0.10391D+01           (S**2,1)=  0.94057D+00
 E(PUHF)=      -0.49573005804D+01        E(PMP2)=      -0.50276558766D+01
 Second order stability test of a single determinant UHF wave function:
 Stabil:  MDV=134217728
 ***********************************************************************
 Matrix         Lowest Root    Major Pairs
 ***********************************************************************
 Internal UHF     0.0306623    Stable
 RUHF --> CUHF (A)0.1128175    Stable
 RUHF --> CUHF (B)0.1128175    Stable
 RUHF --> GHF     0.           Zero root
 Stable under the perturbations considered.
 ***********************************************************************

 **********************************************************************

            Population analysis using the SCF density.

 **********************************************************************

 Orbital symmetries:
 Alpha Orbitals:
       Occupied  (BG) (BG) (BG) (BG) (BG)
       Virtual   (BG) (BG) (BG) (BG) (BG)
 Beta  Orbitals:
       Occupied  (BG) (BG) (BG) (BG) (BG)
       Virtual   (BG) (BG) (BG) (BG) (BG)
 Unable to determine electronic state:  partially filled degenerate orbitals.
 Alpha  occ. eigenvalues --   -0.84899  -0.73652  -0.56251  -0.35897  -0.34441
 Alpha virt. eigenvalues --    0.04134   0.19996   0.27729   0.54059   0.58466
  Beta  occ. eigenvalues --   -0.84899  -0.73652  -0.56251  -0.35897  -0.34441
  Beta virt. eigenvalues --    0.04134   0.19996   0.27729   0.54059   0.58466
          Condensed to atoms (all electrons):
               1          2          3          4          5          6
     1  H    0.870004   0.150385   0.134356  -0.083734   0.008537  -0.130810
     2  H    0.150385   0.951226  -0.136342   0.077004  -0.002536  -0.033444
     3  H    0.134356  -0.136342   1.173904  -0.040227   0.171743  -0.029895
     4  H   -0.083734   0.077004  -0.040227   0.833464  -0.107253   0.259919
     5  H    0.008537  -0.002536   0.171743  -0.107253   0.951642  -0.092730
     6  H   -0.130810  -0.033444  -0.029895   0.259919  -0.092730   0.951642
     7  H    0.004993   0.001938  -0.008184  -0.013750   0.259919  -0.107253
     8  H   -0.004162   0.009827  -0.157871  -0.008184  -0.029895   0.171743
     9  H   -0.000349  -0.000299   0.009827   0.001938  -0.033444  -0.002536
    10  H    0.000881  -0.000349  -0.004162   0.004993  -0.130810   0.008537
               7          8          9         10
     1  H    0.004993  -0.004162  -0.000349   0.000881
     2  H    0.001938   0.009827  -0.000299  -0.000349
     3  H   -0.008184  -0.157871   0.009827  -0.004162
     4  H   -0.013750  -0.008184   0.001938   0.004993
     5  H    0.259919  -0.029895  -0.033444  -0.130810
     6  H   -0.107253   0.171743  -0.002536   0.008537
     7  H    0.833464  -0.040227   0.077004  -0.083734
     8  H   -0.040227   1.173904  -0.136342   0.134356
     9  H    0.077004  -0.136342   0.951226   0.150385
    10  H   -0.083734   0.134356   0.150385   0.870004
          Atomic-Atomic Spin Densities.
               1          2          3          4          5          6
     1  H    0.613637   0.105973  -0.072385  -0.173224   0.020062  -0.076049
     2  H    0.105973  -0.653465   0.072005  -0.034715  -0.010321  -0.004894
     3  H   -0.072385   0.072005  -0.286763  -0.141598   0.217957   0.027656
     4  H   -0.173224  -0.034715  -0.141598   0.573561  -0.053518   0.195650
     5  H    0.020062  -0.010321   0.217957  -0.053518  -0.019580  -0.000000
     6  H   -0.076049  -0.004894   0.027656   0.195650  -0.000000   0.019580
     7  H    0.001897  -0.001365   0.009313   0.000000  -0.195650   0.053518
     8  H    0.014700   0.000278  -0.000000  -0.009313  -0.027656  -0.217957
     9  H   -0.001069  -0.000000  -0.000278   0.001365   0.004894   0.010321
    10  H   -0.000000   0.001069  -0.014700  -0.001897   0.076049  -0.020062
               7          8          9         10
     1  H    0.001897   0.014700  -0.001069  -0.000000
     2  H   -0.001365   0.000278  -0.000000   0.001069
     3  H    0.009313  -0.000000  -0.000278  -0.014700
     4  H    0.000000  -0.009313   0.001365  -0.001897
     5  H   -0.195650  -0.027656   0.004894   0.076049
     6  H    0.053518  -0.217957   0.010321  -0.020062
     7  H   -0.573561   0.141598   0.034715   0.173224
     8  H    0.141598   0.286763  -0.072005   0.072385
     9  H    0.034715  -0.072005   0.653465  -0.105973
    10  H    0.173224   0.072385  -0.105973  -0.613637
 Mulliken charges and spin densities:
               1          2
     1  H    0.049899   0.433542
     2  H   -0.017408  -0.525435
     3  H   -0.113148  -0.188794
     4  H    0.075830   0.356311
     5  H    0.004827   0.012237
     6  H    0.004827  -0.012237
     7  H    0.075830  -0.356311
     8  H   -0.113148   0.188794
     9  H   -0.017408   0.525435
    10  H    0.049899  -0.433542
 Sum of Mulliken charges =  -0.00000  -0.00000
 Mulliken charges and spin densities with hydrogens summed into heavy atoms:
               1          2
 Electronic spatial extent (au):  <R**2>=            139.1227
 Charge=             -0.0000 electrons
 Dipole moment (field-independent basis, Debye):
    X=             -0.0000    Y=              0.0000    Z=             -0.0000  Tot=              0.0000
 Quadrupole moment (field-independent basis, Debye-Ang):
   XX=            -14.3705   YY=            -14.2330   ZZ=            -12.9360
   XY=             -0.7134   XZ=              0.0000   YZ=              0.0000
 Traceless Quadrupole moment (field-independent basis, Debye-Ang):
   XX=             -0.5240   YY=             -0.3865   ZZ=              0.9105
   XY=             -0.7134   XZ=              0.0000   YZ=              0.0000
 Octapole moment (field-independent basis, Debye-Ang**2):
  XXX=             -0.0000  YYY=              0.0000  ZZZ=             -0.0000  XYY=             -0.0000
  XXY=              0.0000  XXZ=             -0.0000  XZZ=             -0.0000  YZZ=              0.0000
  YYZ=             -0.0000  XYZ=             -0.0000
 Hexadecapole moment (field-independent basis, Debye-Ang**3):
 XXXX=           -188.0895 YYYY=           -106.5806 ZZZZ=            -15.6224 XXXY=             52.9604
 XXXZ=             -0.0000 YYYX=             50.3946 YYYZ=              0.0000 ZZZX=             -0.0000
 ZZZY=              0.0000 XXYY=            -51.3463 XXZZ=            -32.1392 YYZZ=            -19.8165
 XXYZ=              0.0000 YYXZ=             -0.0000 ZZXY=             15.6337
 N-N= 1.316792648035D+01 E-N=-3.557992550279D+01  KE= 5.165429722619D+00
 Symmetry AG   KE= 2.021585460949D+00
 Symmetry BG   KE= 0.000000000000D+00
 Symmetry AU   KE= 0.000000000000D+00
 Symmetry BU   KE= 3.143844261670D+00
                          Isotropic Fermi Contact Couplings
        Atom                 a.u.       MegaHertz       Gauss      10(-4) cm-1
     1  H(1)               0.16866     376.93598     134.50013     125.73231
     2  H(1)              -0.18899    -422.38649    -150.71800    -140.89297
     3  H(1)              -0.07977    -178.28958     -63.61816     -59.47100
     4  H(1)               0.15433     344.90777     123.07166     115.04885
     5  H(1)              -0.00478     -10.67890      -3.81050      -3.56210
     6  H(1)               0.00478      10.67890       3.81050       3.56210
     7  H(1)              -0.15433    -344.90777    -123.07166    -115.04885
     8  H(1)               0.07977     178.28958      63.61816      59.47100
     9  H(1)               0.18899     422.38649     150.71800     140.89297
    10  H(1)              -0.16866    -376.93598    -134.50013    -125.73231
 --------------------------------------------------------
       Center         ----  Spin Dipole Couplings  ----
                      3XX-RR        3YY-RR        3ZZ-RR
 --------------------------------------------------------
     1   Atom        0.016638     -0.051941      0.035303
     2   Atom        0.001267      0.050280     -0.051547
     3   Atom        0.027242      0.020749     -0.047991
     4   Atom        0.036306     -0.061736      0.025430
     5   Atom       -0.001222     -0.017221      0.018442
     6   Atom        0.001222      0.017221     -0.018442
     7   Atom       -0.036306      0.061736     -0.025430
     8   Atom       -0.027242     -0.020749      0.047991
     9   Atom       -0.001267     -0.050280      0.051547
    10   Atom       -0.016638      0.051941     -0.035303
 --------------------------------------------------------
                        XY            XZ            YZ
 --------------------------------------------------------
     1   Atom        0.046732      0.000000      0.000000
     2   Atom       -0.011096      0.000000     -0.000000
     3   Atom       -0.013768      0.000000      0.000000
     4   Atom        0.052182     -0.000000      0.000000
     5   Atom        0.039798      0.000000     -0.000000
     6   Atom       -0.039798      0.000000      0.000000
     7   Atom       -0.052182      0.000000      0.000000
     8   Atom        0.013768      0.000000     -0.000000
     9   Atom        0.011096     -0.000000      0.000000
    10   Atom       -0.046732     -0.000000     -0.000000
 --------------------------------------------------------


 ---------------------------------------------------------------------------------
              Anisotropic Spin Dipole Couplings in Principal Axis System
 ---------------------------------------------------------------------------------

       Atom             a.u.   MegaHertz   Gauss  10(-4) cm-1        Axes

              Baa    -0.0756   -40.344   -14.396   -13.457 -0.4519  0.8921 -0.0000
     1 H(1)   Bbb     0.0353    18.836     6.721     6.283  0.0000  0.0000  1.0000
              Bcc     0.0403    21.508     7.675     7.174  0.8921  0.4519  0.0000
 
              Baa    -0.0515   -27.503    -9.814    -9.174  0.0000  0.0000  1.0000
     2 H(1)   Bbb    -0.0011    -0.602    -0.215    -0.201  0.9775  0.2110  0.0000
              Bcc     0.0527    28.105    10.029     9.375 -0.2110  0.9775  0.0000
 
              Baa    -0.0480   -25.606    -9.137    -8.541  0.0000  0.0000  1.0000
     3 H(1)   Bbb     0.0098     5.255     1.875     1.753  0.6207  0.7841  0.0000
              Bcc     0.0381    20.350     7.262     6.788  0.7841 -0.6207  0.0000
 
              Baa    -0.0843   -44.985   -16.052   -15.005 -0.3971  0.9178  0.0000
     4 H(1)   Bbb     0.0254    13.568     4.842     4.526  0.0000  0.0000  1.0000
              Bcc     0.0589    31.416    11.210    10.479  0.9178  0.3971  0.0000
 
              Baa    -0.0498   -26.579    -9.484    -8.866 -0.6336  0.7736  0.0000
     5 H(1)   Bbb     0.0184     9.840     3.511     3.282  0.0000  0.0000  1.0000
              Bcc     0.0314    16.739     5.973     5.584  0.7736  0.6336  0.0000
 
              Baa    -0.0314   -16.739    -5.973    -5.584  0.7736  0.6336  0.0000
     6 H(1)   Bbb    -0.0184    -9.840    -3.511    -3.282  0.0000  0.0000  1.0000
              Bcc     0.0498    26.579     9.484     8.866 -0.6336  0.7736  0.0000
 
              Baa    -0.0589   -31.416   -11.210   -10.479  0.9178  0.3971  0.0000
     7 H(1)   Bbb    -0.0254   -13.568    -4.842    -4.526  0.0000  0.0000  1.0000
              Bcc     0.0843    44.985    16.052    15.005 -0.3971  0.9178 -0.0000
 
              Baa    -0.0381   -20.350    -7.262    -6.788  0.7841 -0.6207  0.0000
     8 H(1)   Bbb    -0.0098    -5.255    -1.875    -1.753  0.6207  0.7841  0.0000
              Bcc     0.0480    25.606     9.137     8.541  0.0000  0.0000  1.0000
 
              Baa    -0.0527   -28.105   -10.029    -9.375 -0.2110  0.9775  0.0000
     9 H(1)   Bbb     0.0011     0.602     0.215     0.201  0.9775  0.2110  0.0000
              Bcc     0.0515    27.503     9.814     9.174  0.0000  0.0000  1.0000
 
              Baa    -0.0403   -21.508    -7.675    -7.174  0.8921  0.4519  0.0000
    10 H(1)   Bbb    -0.0353   -18.836    -6.721    -6.283  0.0000  0.0000  1.0000
              Bcc     0.0756    40.344    14.396    13.457 -0.4519  0.8921 -0.0000
 

 ---------------------------------------------------------------------------------


 Test job not archived.
 1\1\GINC-SULU\Stability\UHF\Gen\H10\LCJ1\23-Feb-2017\0\\#uhf/gen scf(t
 ight,novaracc,noincfock,fulldiag, ) stable(crhf) guess=mix geom=nocrow
 d test\\hf stability analysis of h10 triangular lattice, y= 0.57153221
 843287527 alpha= 29.500000000000000\\0,1\H\H,1,1.1606516224\H,1,1.1606
 516224,2,121.\H,2,1.1606516224,1,59.,3,0.,0\H,3,1.1606516224,1,180.,2,
 0.,0\H,4,1.1606516224,2,180.,1,0.,0\H,5,1.1606516224,3,180.,2,0.,0\H,6
 ,1.1606516224,4,180.,1,0.,0\H,7,1.1606516224,5,180.,2,0.,0\H,8,1.16065
 16224,6,180.,1,0.,0\\Version=ES64L-G09RevE.01\HF=-4.8907233\MP2=-4.962
 8077\PUHF=-4.9573006\PMP2-0=-5.0276559\S2=1.03907\S2-1=0.940571\S2A=1.
 358773\RMSD=5.831e-09\Dipole=0.,0.,0.\Quadrupole=-0.3895531,0.6769333,
 -0.2873802,0.,-0.5304153,0.\PG=C02H [SGH(H10)]\\@


 TELEVISION IS CALLED A MEDIUM BECAUSE IT ISN'T
 RARE, AND IT ISN'T WELL DONE.
 Job cpu time:       0 days  0 hours  0 minutes  1.5 seconds.
 File lengths (MBytes):  RWF=     94 Int=      0 D2E=      0 Chk=      2 Scr=      2
 Normal termination of Gaussian 09 at Thu Feb 23 12:58:54 2017.
