 Entering Gaussian System, Link 0=g09
 AtFile(1): H.gbs
            H     0
            S   10   1.00
               1000.000000000000            0.000068713567
                316.227766000000            0.000169141320
                100.000000000000            0.000823394812
                 31.622776600000            0.003425569236
                 10.000000000000            0.013951996000
                  3.162277660000            0.056909313560
                  1.000000000000            0.198286399900
                  0.316227766000            0.496922426700
                  0.100000000000            0.369846276400
                  0.031622776600            0.003752720039
            ****
 Initial command:
 /projects/guscus/apps/gau/g09-e1/g09/l1.exe "/users/lcj1/gaussian/h10/rhfstability/2rows/zmatrix/constarea/readguess/Gau-31125.inp" -scrdir="/users/lcj1/gaussian/h10/rhfstability/2rows/zmatrix/constarea/readguess/"
 Entering Link 1 = /projects/guscus/apps/gau/g09-e1/g09/l1.exe PID=     31126.
  
 Copyright (c) 1988,1990,1992,1993,1995,1998,2003,2009,2015,
            Gaussian, Inc.  All Rights Reserved.
  
 This is part of the Gaussian(R) 09 program.  It is based on
 the Gaussian(R) 03 system (copyright 2003, Gaussian, Inc.),
 the Gaussian(R) 98 system (copyright 1998, Gaussian, Inc.),
 the Gaussian(R) 94 system (copyright 1995, Gaussian, Inc.),
 the Gaussian 92(TM) system (copyright 1992, Gaussian, Inc.),
 the Gaussian 90(TM) system (copyright 1990, Gaussian, Inc.),
 the Gaussian 88(TM) system (copyright 1988, Gaussian, Inc.),
 the Gaussian 86(TM) system (copyright 1986, Carnegie Mellon
 University), and the Gaussian 82(TM) system (copyright 1983,
 Carnegie Mellon University). Gaussian is a federally registered
 trademark of Gaussian, Inc.
  
 This software contains proprietary and confidential information,
 including trade secrets, belonging to Gaussian, Inc.
  
 This software is provided under written license and may be
 used, copied, transmitted, or stored only in accord with that
 written license.
  
 The following legend is applicable only to US Government
 contracts under FAR:
  
                    RESTRICTED RIGHTS LEGEND
  
 Use, reproduction and disclosure by the US Government is
 subject to restrictions as set forth in subparagraphs (a)
 and (c) of the Commercial Computer Software - Restricted
 Rights clause in FAR 52.227-19.
  
 Gaussian, Inc.
 340 Quinnipiac St., Bldg. 40, Wallingford CT 06492
  
  
 ---------------------------------------------------------------
 Warning -- This program may not be used in any manner that
 competes with the business of Gaussian, Inc. or will provide
 assistance to any competitor of Gaussian, Inc.  The licensee
 of this program is prohibited from giving any competitor of
 Gaussian, Inc. access to this program.  By using this program,
 the user acknowledges that Gaussian, Inc. is engaged in the
 business of creating and licensing software in the field of
 computational chemistry and represents and warrants to the
 licensee that it is not a competitor of Gaussian, Inc. and that
 it will not use this program in any manner prohibited above.
 ---------------------------------------------------------------
  

 Cite this work as:
 Gaussian 09, Revision E.01,
 M. J. Frisch, G. W. Trucks, H. B. Schlegel, G. E. Scuseria, 
 M. A. Robb, J. R. Cheeseman, G. Scalmani, V. Barone, B. Mennucci, 
 G. A. Petersson, H. Nakatsuji, M. Caricato, X. Li, H. P. Hratchian, 
 A. F. Izmaylov, J. Bloino, G. Zheng, J. L. Sonnenberg, M. Hada, 
 M. Ehara, K. Toyota, R. Fukuda, J. Hasegawa, M. Ishida, T. Nakajima, 
 Y. Honda, O. Kitao, H. Nakai, T. Vreven, J. A. Montgomery, Jr., 
 J. E. Peralta, F. Ogliaro, M. Bearpark, J. J. Heyd, E. Brothers, 
 K. N. Kudin, V. N. Staroverov, T. Keith, R. Kobayashi, J. Normand, 
 K. Raghavachari, A. Rendell, J. C. Burant, S. S. Iyengar, J. Tomasi, 
 M. Cossi, N. Rega, J. M. Millam, M. Klene, J. E. Knox, J. B. Cross, 
 V. Bakken, C. Adamo, J. Jaramillo, R. Gomperts, R. E. Stratmann, 
 O. Yazyev, A. J. Austin, R. Cammi, C. Pomelli, J. W. Ochterski, 
 R. L. Martin, K. Morokuma, V. G. Zakrzewski, G. A. Voth, 
 P. Salvador, J. J. Dannenberg, S. Dapprich, A. D. Daniels, 
 O. Farkas, J. B. Foresman, J. V. Ortiz, J. Cioslowski, 
 and D. J. Fox, Gaussian, Inc., Wallingford CT, 2013.
 
 ******************************************
 Gaussian 09:  ES64L-G09RevE.01 30-Nov-2015
                 9-Feb-2017 
 ******************************************
 %chk=h10.chk
 ----------------------------------------------------------------------
 #rhf/gen scf(symm,tight,novaracc,noincfock,fulldiag) stable(crhf) gues
 s=read geom=nocrowd test
 ----------------------------------------------------------------------
 1/38=1/1;
 2/12=1,17=6,18=5,40=1/2;
 3/5=7,16=1,25=1,30=1,116=1/1,2,3;
 4/5=1,9=4/1;
 5/5=100002,15=2,16=1,32=2,38=6/2;
 8/6=1,10=90,11=11/1,4;
 9/8=4,13=1/2;
 6/7=2,8=2,9=2,10=2,28=1/1;
 99/5=1,9=1/99;
 ----------------------------------------------------------------------
 hf stability analysis of h10 triangular lattice, y= 0.5773502789032680
 7
 ----------------------------------------------------------------------
 Symbolic Z-matrix:
 Charge =  0 Multiplicity = 1
 H
 H                    1     1.1547 
 H                    1     1.1547   2     120. 
 H                    2     1.1547   1     60.      3     0.       0
 H                    3     1.1547   1     180.     2     0.       0
 H                    4     1.1547   2     180.     1     0.       0
 H                    5     1.1547   3     180.     2     0.       0
 H                    6     1.1547   4     180.     1     0.       0
 H                    7     1.1547   5     180.     2     0.       0
 H                    8     1.1547   6     180.     1     0.       0
 
                          Input orientation:                          
 ---------------------------------------------------------------------
 Center     Atomic      Atomic             Coordinates (Angstroms)
 Number     Number       Type             X           Y           Z
 ---------------------------------------------------------------------
      1          1           0        0.000000    0.000000    0.000000
      2          1           0        0.000000    0.000000    1.154701
      3          1           0        1.000000    0.000000   -0.577350
      4          1           0        1.000000    0.000000    0.577350
      5          1           0        2.000000    0.000000   -1.154701
      6          1           0        2.000000    0.000000    0.000000
      7          1           0        3.000000    0.000000   -1.732051
      8          1           0        3.000000    0.000000   -0.577350
      9          1           0        4.000000    0.000000   -2.309401
     10          1           0        4.000000    0.000000   -1.154701
 ---------------------------------------------------------------------
                    Distance matrix (angstroms):
                    1          2          3          4          5
     1  H    0.000000
     2  H    1.154701   0.000000
     3  H    1.154701   2.000000   0.000000
     4  H    1.154701   1.154701   1.154701   0.000000
     5  H    2.309401   3.055050   1.154701   2.000000   0.000000
     6  H    2.000000   2.309401   1.154701   1.154701   1.154701
     7  H    3.464102   4.163332   2.309401   3.055050   1.154701
     8  H    3.055050   3.464102   2.000000   2.309401   1.154701
     9  H    4.618802   5.291503   3.464102   4.163332   2.309401
    10  H    4.163332   4.618802   3.055050   3.464102   2.000000
                    6          7          8          9         10
     6  H    0.000000
     7  H    2.000000   0.000000
     8  H    1.154701   1.154701   0.000000
     9  H    3.055050   1.154701   2.000000   0.000000
    10  H    2.309401   1.154701   1.154701   1.154701   0.000000
 Stoichiometry    H10
 Framework group  C2H[SGH(H10)]
 Deg. of freedom     9
 Full point group                 C2H     NOp   4
 Largest Abelian subgroup         C2H     NOp   4
 Largest concise Abelian subgroup C2      NOp   2
                         Standard orientation:                         
 ---------------------------------------------------------------------
 Center     Atomic      Atomic             Coordinates (Angstroms)
 Number     Number       Type             X           Y           Z
 ---------------------------------------------------------------------
      1          1           0        2.000000   -0.577350    0.000000
      2          1           0        2.000000   -1.732051    0.000000
      3          1           0        1.000000    0.000000    0.000000
      4          1           0        1.000000   -1.154701    0.000000
      5          1           0        0.000000    0.577350    0.000000
      6          1           0       -0.000000   -0.577350    0.000000
      7          1           0       -1.000000    1.154701    0.000000
      8          1           0       -1.000000    0.000000    0.000000
      9          1           0       -2.000000    1.732051    0.000000
     10          1           0       -2.000000    0.577350    0.000000
 ---------------------------------------------------------------------
 Rotational constants (GHZ):    207.4749757     18.1798233     16.7151703
 General basis read from cards:  (5D, 7F)
 There are     5 symmetry adapted cartesian basis functions of AG  symmetry.
 There are     0 symmetry adapted cartesian basis functions of BG  symmetry.
 There are     0 symmetry adapted cartesian basis functions of AU  symmetry.
 There are     5 symmetry adapted cartesian basis functions of BU  symmetry.
 There are     5 symmetry adapted basis functions of AG  symmetry.
 There are     0 symmetry adapted basis functions of BG  symmetry.
 There are     0 symmetry adapted basis functions of AU  symmetry.
 There are     5 symmetry adapted basis functions of BU  symmetry.
    10 basis functions,   100 primitive gaussians,    10 cartesian basis functions
     5 alpha electrons        5 beta electrons
       nuclear repulsion energy        13.2053074766 Hartrees.
 NAtoms=   10 NActive=   10 NUniq=    5 SFac= 4.00D+00 NAtFMM=   60 NAOKFM=F Big=F
 Integral buffers will be    131072 words long.
 Regular integral format.
 Two-electron integral symmetry is turned on.
 One-electron integrals computed using PRISM.
 NBasis=    10 RedAO= T EigKep=  1.90D-01  NBF=     5     0     0     5
 NBsUse=    10 1.00D-06 EigRej= -1.00D+00 NBFU=     5     0     0     5
 Initial guess from the checkpoint file:  "h10.chk"
 B after Tr=    -0.000000    0.000000   -0.000000
         Rot=    0.999880   -0.000000    0.000000   -0.015514 Ang=  -1.78 deg.
 Initial guess orbital symmetries:
       Occupied  (AG) (BU) (AG) (BU) (AG)
       Virtual   (BU) (AG) (BU) (BU) (AG)
 Keep R1 ints in memory in symmetry-blocked form, NReq=878951.
 Requested convergence on RMS density matrix=1.00D-08 within 128 cycles.
 Requested convergence on MAX density matrix=1.00D-06.
 Requested convergence on             energy=1.00D-06.
 No special actions if energy rises.
 SCF Done:  E(RHF) =  -4.74237851660     A.U. after   10 cycles
            NFock= 10  Conv=0.70D-08     -V/T= 1.9167
 Range of M.O.s used for correlation:     1    10
 NBasis=    10 NAE=     5 NBE=     5 NFC=     0 NFV=     0
 NROrb=     10 NOA=     5 NOB=     5 NVA=     5 NVB=     5
 Semi-Direct transformation.
 ModeAB=           4 MOrb=             5 LenV=     134107246
 LASXX=         1030 LTotXX=        1030 LenRXX=        2480
 LTotAB=        1450 MaxLAS=        1500 LenRXY=           0
 NonZer=        3510 LenScr=      655360 LnRSAI=        1500
 LnScr1=      655360 LExtra=           0 Total=      1314700
 MaxDsk=          -1 SrtSym=           T ITran=            3
 JobTyp=0 Pass  1:  I=   1 to   5.
 (rs|ai) integrals will be sorted in core.
 Spin components of T(2) and E(2):
     alpha-alpha T2 =       0.6291910651D-02 E2=     -0.8055522210D-02
     alpha-beta  T2 =       0.7981119736D-01 E2=     -0.1003031743D+00
     beta-beta   T2 =       0.6291910651D-02 E2=     -0.8055522210D-02
 ANorm=    0.1045177027D+01
 E2 =    -0.1164142187D+00 EUMP2 =    -0.48587927353035D+01
 Second order stability test of a single determinant RHF wave function:
 Stabil:  MDV=134217728
 ***********************************************************************
 Matrix         Lowest Root    Major Pairs
 ***********************************************************************
 Internal RHF    -0.0427613    5A=6A
 RRHF --> CRHF   -0.0877221    5A=6A
 RRHF --> RUHF   -0.1849023    5A=6B
 Not stable.
 ***********************************************************************

 **********************************************************************

            Population analysis using the SCF density.

 **********************************************************************

 Orbital symmetries:
       Occupied  (AG) (BU) (AG) (BU) (AG)
       Virtual   (BU) (BU) (AG) (AG) (BU)
 The electronic state is 1-AG.
 Alpha  occ. eigenvalues --   -0.84935  -0.72811  -0.53717  -0.39543  -0.24350
 Alpha virt. eigenvalues --   -0.06714   0.22308   0.23361   0.56002   0.57014
          Condensed to atoms (all electrons):
               1          2          3          4          5          6
     1  H    1.154217  -0.158250   0.499145  -0.194810  -0.050504  -0.154230
     2  H   -0.158250   0.718038  -0.134314   0.419428  -0.014017   0.031120
     3  H    0.499145  -0.134314   1.195214  -0.320752   0.155134  -0.252375
     4  H   -0.194810   0.419428  -0.320752   0.917441  -0.026804   0.215163
     5  H   -0.050504  -0.014017   0.155134  -0.026804   0.880649   0.176791
     6  H   -0.154230   0.031120  -0.252375   0.215163   0.176791   0.880649
     7  H   -0.008790   0.001921  -0.024003   0.008519   0.215163  -0.026804
     8  H    0.007599  -0.004209  -0.029047  -0.024003  -0.252375   0.155134
     9  H   -0.000646   0.000347  -0.004209   0.001921   0.031120  -0.014017
    10  H    0.006222  -0.000646   0.007599  -0.008790  -0.154230  -0.050504
               7          8          9         10
     1  H   -0.008790   0.007599  -0.000646   0.006222
     2  H    0.001921  -0.004209   0.000347  -0.000646
     3  H   -0.024003  -0.029047  -0.004209   0.007599
     4  H    0.008519  -0.024003   0.001921  -0.008790
     5  H    0.215163  -0.252375   0.031120  -0.154230
     6  H   -0.026804   0.155134  -0.014017  -0.050504
     7  H    0.917441  -0.320752   0.419428  -0.194810
     8  H   -0.320752   1.195214  -0.134314   0.499145
     9  H    0.419428  -0.134314   0.718038  -0.158250
    10  H   -0.194810   0.499145  -0.158250   1.154217
 Mulliken charges:
               1
     1  H   -0.099953
     2  H    0.140582
     3  H   -0.092391
     4  H    0.012688
     5  H    0.039074
     6  H    0.039074
     7  H    0.012688
     8  H   -0.092391
     9  H    0.140582
    10  H   -0.099953
 Sum of Mulliken charges =  -0.00000
 Mulliken charges with hydrogens summed into heavy atoms:
               1
 Electronic spatial extent (au):  <R**2>=            135.5245
 Charge=             -0.0000 electrons
 Dipole moment (field-independent basis, Debye):
    X=             -0.0000    Y=             -0.0000    Z=              0.0000  Tot=              0.0000
 Quadrupole moment (field-independent basis, Debye-Ang):
   XX=            -12.9579   YY=            -12.2497   ZZ=            -12.9814
   XY=             -5.8093   XZ=             -0.0000   YZ=              0.0000
 Traceless Quadrupole moment (field-independent basis, Debye-Ang):
   XX=             -0.2282   YY=              0.4799   ZZ=             -0.2518
   XY=             -5.8093   XZ=             -0.0000   YZ=              0.0000
 Octapole moment (field-independent basis, Debye-Ang**2):
  XXX=              0.0000  YYY=             -0.0000  ZZZ=             -0.0000  XYY=              0.0000
  XXY=             -0.0000  XXZ=             -0.0000  XZZ=             -0.0000  YZZ=             -0.0000
  YYZ=             -0.0000  XYZ=             -0.0000
 Hexadecapole moment (field-independent basis, Debye-Ang**3):
 XXXX=           -158.1432 YYYY=            -97.6937 ZZZZ=            -15.7349 XXXY=             10.9799
 XXXZ=              0.0000 YYYX=             32.6764 YYYZ=             -0.0000 ZZZX=              0.0000
 ZZZY=             -0.0000 XXYY=            -26.0889 XXZZ=            -31.6827 YYZZ=            -18.9098
 XXYZ=              0.0000 YYXZ=              0.0000 ZZXY=             13.6983
 N-N= 1.320530747658D+01 E-N=-3.556163834613D+01  KE= 5.173376467797D+00
 Symmetry AG   KE= 3.178344912371D+00
 Symmetry BG   KE= 0.000000000000D+00
 Symmetry AU   KE= 0.000000000000D+00
 Symmetry BU   KE= 1.995031555426D+00

 Test job not archived.
 1\1\GINC-SULU\Stability\RHF\Gen\H10\UNKNOWN\09-Feb-2017\0\\#rhf/gen sc
 f(symm,tight,novaracc,noincfock,fulldiag) stable(crhf) guess=read geom
 =nocrowd test\\hf stability analysis of h10 triangular lattice, y= 0.5
 7735027890326807\\0,1\H\H,1,1.1547005287\H,1,1.1547005287,2,120.\H,2,1
 .1547005287,1,60.,3,0.,0\H,3,1.1547005287,1,180.,2,0.,0\H,4,1.15470052
 87,2,180.,1,0.,0\H,5,1.1547005287,3,180.,2,0.,0\H,6,1.1547005287,4,180
 .,1,0.,0\H,7,1.1547005287,5,180.,2,0.,0\H,8,1.1547005287,6,180.,1,0.,0
 \\Version=ES64L-G09RevE.01\State=1-AG\HF=-4.7423785\MP2=-4.8587927\RMS
 D=6.988e-09\Dipole=0.,0.,0.\Quadrupole=-0.1696521,-0.1871787,0.3568308
 ,0.,-4.3190531,0.\PG=C02H [SGH(H10)]\\@


 KEEP CLOSE TO NATURES HEART, YOURSELF;
 AND BREAK CLEAR AWAY, ONCE IN A WHILE, AND
 CLIMB A MOUNTAIN OR SPEND A WEEK IN THE
 WOODS.  WASH YOUR SPIRIT CLEAN...
                                         -- JOHN MUIR
 Job cpu time:       0 days  0 hours  0 minutes  0.8 seconds.
 File lengths (MBytes):  RWF=     84 Int=      0 D2E=      0 Chk=      2 Scr=      2
 Normal termination of Gaussian 09 at Thu Feb  9 17:32:09 2017.
