 Entering Gaussian System, Link 0=g09
 AtFile(1): H.gbs
            H     0
            S   10   1.00
               1000.000000000000            0.000068713567
                316.227766000000            0.000169141320
                100.000000000000            0.000823394812
                 31.622776600000            0.003425569236
                 10.000000000000            0.013951996000
                  3.162277660000            0.056909313560
                  1.000000000000            0.198286399900
                  0.316227766000            0.496922426700
                  0.100000000000            0.369846276400
                  0.031622776600            0.003752720039
            ****
 Initial command:
 /projects/guscus/apps/gau/g09-e1/g09/l1.exe "/users/lcj1/gaussian/h10/rhfstability/2rows/zmatrix/constarea/readguess/Gau-31771.inp" -scrdir="/users/lcj1/gaussian/h10/rhfstability/2rows/zmatrix/constarea/readguess/"
 Entering Link 1 = /projects/guscus/apps/gau/g09-e1/g09/l1.exe PID=     31772.
  
 Copyright (c) 1988,1990,1992,1993,1995,1998,2003,2009,2015,
            Gaussian, Inc.  All Rights Reserved.
  
 This is part of the Gaussian(R) 09 program.  It is based on
 the Gaussian(R) 03 system (copyright 2003, Gaussian, Inc.),
 the Gaussian(R) 98 system (copyright 1998, Gaussian, Inc.),
 the Gaussian(R) 94 system (copyright 1995, Gaussian, Inc.),
 the Gaussian 92(TM) system (copyright 1992, Gaussian, Inc.),
 the Gaussian 90(TM) system (copyright 1990, Gaussian, Inc.),
 the Gaussian 88(TM) system (copyright 1988, Gaussian, Inc.),
 the Gaussian 86(TM) system (copyright 1986, Carnegie Mellon
 University), and the Gaussian 82(TM) system (copyright 1983,
 Carnegie Mellon University). Gaussian is a federally registered
 trademark of Gaussian, Inc.
  
 This software contains proprietary and confidential information,
 including trade secrets, belonging to Gaussian, Inc.
  
 This software is provided under written license and may be
 used, copied, transmitted, or stored only in accord with that
 written license.
  
 The following legend is applicable only to US Government
 contracts under FAR:
  
                    RESTRICTED RIGHTS LEGEND
  
 Use, reproduction and disclosure by the US Government is
 subject to restrictions as set forth in subparagraphs (a)
 and (c) of the Commercial Computer Software - Restricted
 Rights clause in FAR 52.227-19.
  
 Gaussian, Inc.
 340 Quinnipiac St., Bldg. 40, Wallingford CT 06492
  
  
 ---------------------------------------------------------------
 Warning -- This program may not be used in any manner that
 competes with the business of Gaussian, Inc. or will provide
 assistance to any competitor of Gaussian, Inc.  The licensee
 of this program is prohibited from giving any competitor of
 Gaussian, Inc. access to this program.  By using this program,
 the user acknowledges that Gaussian, Inc. is engaged in the
 business of creating and licensing software in the field of
 computational chemistry and represents and warrants to the
 licensee that it is not a competitor of Gaussian, Inc. and that
 it will not use this program in any manner prohibited above.
 ---------------------------------------------------------------
  

 Cite this work as:
 Gaussian 09, Revision E.01,
 M. J. Frisch, G. W. Trucks, H. B. Schlegel, G. E. Scuseria, 
 M. A. Robb, J. R. Cheeseman, G. Scalmani, V. Barone, B. Mennucci, 
 G. A. Petersson, H. Nakatsuji, M. Caricato, X. Li, H. P. Hratchian, 
 A. F. Izmaylov, J. Bloino, G. Zheng, J. L. Sonnenberg, M. Hada, 
 M. Ehara, K. Toyota, R. Fukuda, J. Hasegawa, M. Ishida, T. Nakajima, 
 Y. Honda, O. Kitao, H. Nakai, T. Vreven, J. A. Montgomery, Jr., 
 J. E. Peralta, F. Ogliaro, M. Bearpark, J. J. Heyd, E. Brothers, 
 K. N. Kudin, V. N. Staroverov, T. Keith, R. Kobayashi, J. Normand, 
 K. Raghavachari, A. Rendell, J. C. Burant, S. S. Iyengar, J. Tomasi, 
 M. Cossi, N. Rega, J. M. Millam, M. Klene, J. E. Knox, J. B. Cross, 
 V. Bakken, C. Adamo, J. Jaramillo, R. Gomperts, R. E. Stratmann, 
 O. Yazyev, A. J. Austin, R. Cammi, C. Pomelli, J. W. Ochterski, 
 R. L. Martin, K. Morokuma, V. G. Zakrzewski, G. A. Voth, 
 P. Salvador, J. J. Dannenberg, S. Dapprich, A. D. Daniels, 
 O. Farkas, J. B. Foresman, J. V. Ortiz, J. Cioslowski, 
 and D. J. Fox, Gaussian, Inc., Wallingford CT, 2013.
 
 ******************************************
 Gaussian 09:  ES64L-G09RevE.01 30-Nov-2015
                 9-Feb-2017 
 ******************************************
 %chk=h10.chk
 ----------------------------------------------------------------------
 #rhf/gen scf(symm,tight,novaracc,noincfock,fulldiag) stable(crhf) gues
 s=read geom=nocrowd test
 ----------------------------------------------------------------------
 1/38=1/1;
 2/12=1,17=6,18=5,40=1/2;
 3/5=7,16=1,25=1,30=1,116=1/1,2,3;
 4/5=1,9=4/1;
 5/5=100002,15=2,16=1,32=2,38=6/2;
 8/6=1,10=90,11=11/1,4;
 9/8=4,13=1/2;
 6/7=2,8=2,9=2,10=2,28=1/1;
 99/5=1,9=1/99;
 ----------------------------------------------------------------------
 hf stability analysis of h10 triangular lattice, y= 0.7732164846609803
 6
 ----------------------------------------------------------------------
 Symbolic Z-matrix:
 Charge =  0 Multiplicity = 1
 H
 H                    1     1.0749 
 H                    1     1.0749   2     88. 
 H                    2     1.0749   1     92.      3     0.       0
 H                    3     1.0749   1     180.     2     0.       0
 H                    4     1.0749   2     180.     1     0.       0
 H                    5     1.0749   3     180.     2     0.       0
 H                    6     1.0749   4     180.     1     0.       0
 H                    7     1.0749   5     180.     2     0.       0
 H                    8     1.0749   6     180.     1     0.       0
 
                          Input orientation:                          
 ---------------------------------------------------------------------
 Center     Atomic      Atomic             Coordinates (Angstroms)
 Number     Number       Type             X           Y           Z
 ---------------------------------------------------------------------
      1          1           0        0.000000    0.000000    0.000000
      2          1           0        0.000000    0.000000    1.074897
      3          1           0        1.074243    0.000000    0.037513
      4          1           0        1.074243    0.000000    1.112411
      5          1           0        2.148485    0.000000    0.075027
      6          1           0        2.148485    0.000000    1.149924
      7          1           0        3.222728    0.000000    0.112540
      8          1           0        3.222728    0.000000    1.187438
      9          1           0        4.296970    0.000000    0.150054
     10          1           0        4.296970    0.000000    1.224951
 ---------------------------------------------------------------------
                    Distance matrix (angstroms):
                    1          2          3          4          5
     1  H    0.000000
     2  H    1.074897   0.000000
     3  H    1.074897   1.493373   0.000000
     4  H    1.546433   1.074897   1.074897   0.000000
     5  H    2.149795   2.369753   1.074897   1.493373   0.000000
     6  H    2.436866   2.149795   1.546433   1.074897   1.074897
     7  H    3.224692   3.363347   2.149795   2.369753   1.074897
     8  H    3.434528   3.224692   2.436866   2.149795   1.546433
     9  H    4.299590   4.395371   3.224692   3.363347   2.149795
    10  H    4.468161   4.299590   3.434528   3.224692   2.436866
                    6          7          8          9         10
     6  H    0.000000
     7  H    1.493373   0.000000
     8  H    1.074897   1.074897   0.000000
     9  H    2.369753   1.074897   1.493373   0.000000
    10  H    2.149795   1.546433   1.074897   1.074897   0.000000
 Stoichiometry    H10
 Framework group  C2H[SGH(H10)]
 Deg. of freedom     9
 Full point group                 C2H     NOp   4
 Largest Abelian subgroup         C2H     NOp   4
 Largest concise Abelian subgroup C2      NOp   2
                         Standard orientation:                         
 ---------------------------------------------------------------------
 Center     Atomic      Atomic             Coordinates (Angstroms)
 Number     Number       Type             X           Y           Z
 ---------------------------------------------------------------------
      1          1           0        2.148485    0.612475    0.000000
      2          1           0        2.148485   -0.462422   -0.000000
      3          1           0        1.074243    0.574962    0.000000
      4          1           0        1.074243   -0.499935   -0.000000
      5          1           0       -0.000000    0.537449    0.000000
      6          1           0       -0.000000   -0.537449    0.000000
      7          1           0       -1.074243    0.499935   -0.000000
      8          1           0       -1.074243   -0.574962    0.000000
      9          1           0       -2.148485    0.462422   -0.000000
     10          1           0       -2.148485   -0.612475    0.000000
 ---------------------------------------------------------------------
 Rotational constants (GHZ):    173.8452626     21.6966410     19.2892581
 General basis read from cards:  (5D, 7F)
 There are     5 symmetry adapted cartesian basis functions of AG  symmetry.
 There are     0 symmetry adapted cartesian basis functions of BG  symmetry.
 There are     0 symmetry adapted cartesian basis functions of AU  symmetry.
 There are     5 symmetry adapted cartesian basis functions of BU  symmetry.
 There are     5 symmetry adapted basis functions of AG  symmetry.
 There are     0 symmetry adapted basis functions of BG  symmetry.
 There are     0 symmetry adapted basis functions of AU  symmetry.
 There are     5 symmetry adapted basis functions of BU  symmetry.
    10 basis functions,   100 primitive gaussians,    10 cartesian basis functions
     5 alpha electrons        5 beta electrons
       nuclear repulsion energy        13.7486370129 Hartrees.
 NAtoms=   10 NActive=   10 NUniq=    5 SFac= 4.00D+00 NAtFMM=   60 NAOKFM=F Big=F
 Integral buffers will be    131072 words long.
 Regular integral format.
 Two-electron integral symmetry is turned on.
 One-electron integrals computed using PRISM.
 NBasis=    10 RedAO= T EigKep=  1.22D-01  NBF=     5     0     0     5
 NBsUse=    10 1.00D-06 EigRej= -1.00D+00 NBFU=     5     0     0     5
 Initial guess from the checkpoint file:  "h10.chk"
 B after Tr=     0.000000    0.000000    0.000000
         Rot=    0.507697    0.492183    0.507697    0.492183 Ang= 118.98 deg.
 Initial guess orbital symmetries:
       Occupied  (AG) (BU) (AG) (BU) (AG)
       Virtual   (BU) (BU) (AG) (AG) (BU)
 Keep R1 ints in memory in symmetry-blocked form, NReq=879315.
 Requested convergence on RMS density matrix=1.00D-08 within 128 cycles.
 Requested convergence on MAX density matrix=1.00D-06.
 Requested convergence on             energy=1.00D-06.
 No special actions if energy rises.
 SCF Done:  E(RHF) =  -4.88611194801     A.U. after    8 cycles
            NFock=  8  Conv=0.40D-08     -V/T= 1.9584
 Range of M.O.s used for correlation:     1    10
 NBasis=    10 NAE=     5 NBE=     5 NFC=     0 NFV=     0
 NROrb=     10 NOA=     5 NOB=     5 NVA=     5 NVB=     5
 Semi-Direct transformation.
 ModeAB=           4 MOrb=             5 LenV=     134107092
 LASXX=         1030 LTotXX=        1030 LenRXX=        2480
 LTotAB=        1450 MaxLAS=        1500 LenRXY=           0
 NonZer=        3510 LenScr=      655360 LnRSAI=        1500
 LnScr1=      655360 LExtra=           0 Total=      1314700
 MaxDsk=          -1 SrtSym=           T ITran=            3
 JobTyp=0 Pass  1:  I=   1 to   5.
 (rs|ai) integrals will be sorted in core.
 Spin components of T(2) and E(2):
     alpha-alpha T2 =       0.6931210909D-02 E2=     -0.9109311859D-02
     alpha-beta  T2 =       0.6146540668D-01 E2=     -0.8678587293D-01
     beta-beta   T2 =       0.6931210909D-02 E2=     -0.9109311859D-02
 ANorm=    0.1036980149D+01
 E2 =    -0.1050044967D+00 EUMP2 =    -0.49911164446574D+01
 Second order stability test of a single determinant RHF wave function:
 Stabil:  MDV=134217728
 ***********************************************************************
 Matrix         Lowest Root    Major Pairs
 ***********************************************************************
 Internal RHF     0.0738764    Stable
 RRHF --> CRHF    0.0104477    Stable
 RRHF --> RUHF   -0.1346173    5A=6B
 Not stable.
 ***********************************************************************

 **********************************************************************

            Population analysis using the SCF density.

 **********************************************************************

 Orbital symmetries:
       Occupied  (AG) (BU) (AG) (BU) (AG)
       Virtual   (BU) (BU) (AG) (AG) (BU)
 The electronic state is 1-AG.
 Alpha  occ. eigenvalues --   -0.87756  -0.74523  -0.52644  -0.46844  -0.31191
 Alpha virt. eigenvalues --   -0.01330   0.15368   0.36747   0.51324   0.90178
          Condensed to atoms (all electrons):
               1          2          3          4          5          6
     1  H    0.783042  -0.051588   0.446804  -0.156460  -0.012872  -0.056122
     2  H   -0.051588   0.819868  -0.164797   0.453067  -0.065127  -0.017466
     3  H    0.446804  -0.164797   1.037403  -0.374268   0.222270  -0.101865
     4  H   -0.156460   0.453067  -0.374268   1.042525  -0.115964   0.216768
     5  H   -0.012872  -0.065127   0.222270  -0.115964   0.849299   0.095175
     6  H   -0.056122  -0.017466  -0.101865   0.216768   0.095175   0.849299
     7  H   -0.012182   0.006889  -0.044436   0.017746   0.216768  -0.115964
     8  H    0.006311  -0.012554   0.018220  -0.044436  -0.101865   0.222270
     9  H   -0.000638   0.002819  -0.012554   0.006889  -0.017466  -0.065127
    10  H    0.002357  -0.000638   0.006311  -0.012182  -0.056122  -0.012872
               7          8          9         10
     1  H   -0.012182   0.006311  -0.000638   0.002357
     2  H    0.006889  -0.012554   0.002819  -0.000638
     3  H   -0.044436   0.018220  -0.012554   0.006311
     4  H    0.017746  -0.044436   0.006889  -0.012182
     5  H    0.216768  -0.101865  -0.017466  -0.056122
     6  H   -0.115964   0.222270  -0.065127  -0.012872
     7  H    1.042525  -0.374268   0.453067  -0.156460
     8  H   -0.374268   1.037403  -0.164797   0.446804
     9  H    0.453067  -0.164797   0.819868  -0.051588
    10  H   -0.156460   0.446804  -0.051588   0.783042
 Mulliken charges:
               1
     1  H    0.051347
     2  H    0.029526
     3  H   -0.033089
     4  H   -0.033687
     5  H   -0.014097
     6  H   -0.014097
     7  H   -0.033687
     8  H   -0.033089
     9  H    0.029526
    10  H    0.051347
 Sum of Mulliken charges =   0.00000
 Mulliken charges with hydrogens summed into heavy atoms:
               1
 Electronic spatial extent (au):  <R**2>=            122.8803
 Charge=              0.0000 electrons
 Dipole moment (field-independent basis, Debye):
    X=             -0.0000    Y=              0.0000    Z=              0.0000  Tot=              0.0000
 Quadrupole moment (field-independent basis, Debye-Ang):
   XX=            -10.0734   YY=            -17.3833   ZZ=            -12.9545
   XY=              0.5152   XZ=              0.0000   YZ=             -0.0000
 Traceless Quadrupole moment (field-independent basis, Debye-Ang):
   XX=              3.3970   YY=             -3.9129   ZZ=              0.5159
   XY=              0.5152   XZ=              0.0000   YZ=             -0.0000
 Octapole moment (field-independent basis, Debye-Ang**2):
  XXX=             -0.0000  YYY=             -0.0000  ZZZ=             -0.0000  XYY=             -0.0000
  XXY=              0.0000  XXZ=             -0.0000  XZZ=             -0.0000  YZZ=             -0.0000
  YYZ=             -0.0000  XYZ=             -0.0000
 Hexadecapole moment (field-independent basis, Debye-Ang**3):
 XXXX=           -161.4307 YYYY=            -50.2961 ZZZZ=            -15.6430 XXXY=              0.3245
 XXXZ=              0.0000 YYYX=             -3.3832 YYYZ=             -0.0000 ZZZX=             -0.0000
 ZZZY=             -0.0000 XXYY=            -47.4230 XXZZ=            -35.1901 YYZZ=            -10.7389
 XXYZ=             -0.0000 YYXZ=             -0.0000 ZZXY=             -0.9324
 N-N= 1.374863701289D+01 E-N=-3.650866446540D+01  KE= 5.098326045189D+00
 Symmetry AG   KE= 3.158880423521D+00
 Symmetry BG   KE= 0.000000000000D+00
 Symmetry AU   KE= 0.000000000000D+00
 Symmetry BU   KE= 1.939445621668D+00

 Test job not archived.
 1\1\GINC-SULU\Stability\RHF\Gen\H10\LCJ1\09-Feb-2017\0\\#rhf/gen scf(s
 ymm,tight,novaracc,noincfock,fulldiag) stable(crhf) guess=read geom=no
 crowd test\\hf stability analysis of h10 triangular lattice, y= 0.7732
 1648466098036\\0,1\H\H,1,1.0748973818\H,1,1.0748973818,2,88.\H,2,1.074
 8973818,1,92.,3,0.,0\H,3,1.0748973818,1,180.,2,0.,0\H,4,1.0748973818,2
 ,180.,1,0.,0\H,5,1.0748973818,3,180.,2,0.,0\H,6,1.0748973818,4,180.,1,
 0.,0\H,7,1.0748973818,5,180.,2,0.,0\H,8,1.0748973818,6,180.,1,0.,0\\Ve
 rsion=ES64L-G09RevE.01\State=1-AG\HF=-4.8861119\MP2=-4.9911164\RMSD=4.
 040e-09\Dipole=0.,0.,0.\Quadrupole=2.5255689,0.3835407,-2.9091096,0.,0
 .3830242,0.\PG=C02H [SGH(H10)]\\@


 In the race for quality, there is no finish line.
                               -- David T. Kearns
 Job cpu time:       0 days  0 hours  0 minutes  0.7 seconds.
 File lengths (MBytes):  RWF=     84 Int=      0 D2E=      0 Chk=      2 Scr=      2
 Normal termination of Gaussian 09 at Thu Feb  9 17:32:42 2017.
