 Entering Gaussian System, Link 0=g09
 AtFile(1): H.gbs
            H     0
            S   10   1.00
               1000.000000000000            0.000068713567
                316.227766000000            0.000169141320
                100.000000000000            0.000823394812
                 31.622776600000            0.003425569236
                 10.000000000000            0.013951996000
                  3.162277660000            0.056909313560
                  1.000000000000            0.198286399900
                  0.316227766000            0.496922426700
                  0.100000000000            0.369846276400
                  0.031622776600            0.003752720039
            ****
 Initial command:
 /projects/guscus/apps/gau/g09-e1/g09/l1.exe "/users/lcj1/gaussian/h10/2rows_uhf/ag3bu2/Gau-25236.inp" -scrdir="/users/lcj1/gaussian/h10/2rows_uhf/ag3bu2/"
 Entering Link 1 = /projects/guscus/apps/gau/g09-e1/g09/l1.exe PID=     25237.
  
 Copyright (c) 1988,1990,1992,1993,1995,1998,2003,2009,2015,
            Gaussian, Inc.  All Rights Reserved.
  
 This is part of the Gaussian(R) 09 program.  It is based on
 the Gaussian(R) 03 system (copyright 2003, Gaussian, Inc.),
 the Gaussian(R) 98 system (copyright 1998, Gaussian, Inc.),
 the Gaussian(R) 94 system (copyright 1995, Gaussian, Inc.),
 the Gaussian 92(TM) system (copyright 1992, Gaussian, Inc.),
 the Gaussian 90(TM) system (copyright 1990, Gaussian, Inc.),
 the Gaussian 88(TM) system (copyright 1988, Gaussian, Inc.),
 the Gaussian 86(TM) system (copyright 1986, Carnegie Mellon
 University), and the Gaussian 82(TM) system (copyright 1983,
 Carnegie Mellon University). Gaussian is a federally registered
 trademark of Gaussian, Inc.
  
 This software contains proprietary and confidential information,
 including trade secrets, belonging to Gaussian, Inc.
  
 This software is provided under written license and may be
 used, copied, transmitted, or stored only in accord with that
 written license.
  
 The following legend is applicable only to US Government
 contracts under FAR:
  
                    RESTRICTED RIGHTS LEGEND
  
 Use, reproduction and disclosure by the US Government is
 subject to restrictions as set forth in subparagraphs (a)
 and (c) of the Commercial Computer Software - Restricted
 Rights clause in FAR 52.227-19.
  
 Gaussian, Inc.
 340 Quinnipiac St., Bldg. 40, Wallingford CT 06492
  
  
 ---------------------------------------------------------------
 Warning -- This program may not be used in any manner that
 competes with the business of Gaussian, Inc. or will provide
 assistance to any competitor of Gaussian, Inc.  The licensee
 of this program is prohibited from giving any competitor of
 Gaussian, Inc. access to this program.  By using this program,
 the user acknowledges that Gaussian, Inc. is engaged in the
 business of creating and licensing software in the field of
 computational chemistry and represents and warrants to the
 licensee that it is not a competitor of Gaussian, Inc. and that
 it will not use this program in any manner prohibited above.
 ---------------------------------------------------------------
  

 Cite this work as:
 Gaussian 09, Revision E.01,
 M. J. Frisch, G. W. Trucks, H. B. Schlegel, G. E. Scuseria, 
 M. A. Robb, J. R. Cheeseman, G. Scalmani, V. Barone, B. Mennucci, 
 G. A. Petersson, H. Nakatsuji, M. Caricato, X. Li, H. P. Hratchian, 
 A. F. Izmaylov, J. Bloino, G. Zheng, J. L. Sonnenberg, M. Hada, 
 M. Ehara, K. Toyota, R. Fukuda, J. Hasegawa, M. Ishida, T. Nakajima, 
 Y. Honda, O. Kitao, H. Nakai, T. Vreven, J. A. Montgomery, Jr., 
 J. E. Peralta, F. Ogliaro, M. Bearpark, J. J. Heyd, E. Brothers, 
 K. N. Kudin, V. N. Staroverov, T. Keith, R. Kobayashi, J. Normand, 
 K. Raghavachari, A. Rendell, J. C. Burant, S. S. Iyengar, J. Tomasi, 
 M. Cossi, N. Rega, J. M. Millam, M. Klene, J. E. Knox, J. B. Cross, 
 V. Bakken, C. Adamo, J. Jaramillo, R. Gomperts, R. E. Stratmann, 
 O. Yazyev, A. J. Austin, R. Cammi, C. Pomelli, J. W. Ochterski, 
 R. L. Martin, K. Morokuma, V. G. Zakrzewski, G. A. Voth, 
 P. Salvador, J. J. Dannenberg, S. Dapprich, A. D. Daniels, 
 O. Farkas, J. B. Foresman, J. V. Ortiz, J. Cioslowski, 
 and D. J. Fox, Gaussian, Inc., Wallingford CT, 2013.
 
 ******************************************
 Gaussian 09:  ES64L-G09RevE.01 30-Nov-2015
                22-Feb-2017 
 ******************************************
 %chk=h10.chk
 ----------------------------------------------------------------------
 #rhf/gen scf(symm,tight,novaracc,noincfock,fulldiag) stable=opt guess=
 read geom=nocrowd test
 ----------------------------------------------------------------------
 1/38=1/1;
 2/12=1,17=6,18=5,40=1/2;
 3/5=7,11=2,16=1,25=1,30=1,116=1/1,2,3;
 4/5=1,9=4/1;
 5/5=100002,15=2,16=1,32=2,38=6/2;
 6/7=2,8=2,9=2,10=2,28=1/1;
 8/6=1,10=90,11=11/1;
 9/8=-3,42=1,46=1/14;
 5/5=100002,8=3,16=1,17=40,32=2,38=6/8(-2);
 6/7=2,8=2,9=2,10=2,28=1/1;
 99/5=1,9=1/99;
 ----------------------------------------------------------------------
 hf stability analysis of h10 triangular lattice, y= 0.5860779187036555
 5
 ----------------------------------------------------------------------
 Symbolic Z-matrix:
 Charge =  0 Multiplicity = 1
 H
 H                    1     1.14627 
 H                    1     1.14627  2     118.5 
 H                    2     1.14627  1     61.5     3     0.       0
 H                    3     1.14627  1     180.     2     0.       0
 H                    4     1.14627  2     180.     1     0.       0
 H                    5     1.14627  3     180.     2     0.       0
 H                    6     1.14627  4     180.     1     0.       0
 H                    7     1.14627  5     180.     2     0.       0
 H                    8     1.14627  6     180.     1     0.       0
 
                          Input orientation:                          
 ---------------------------------------------------------------------
 Center     Atomic      Atomic             Coordinates (Angstroms)
 Number     Number       Type             X           Y           Z
 ---------------------------------------------------------------------
      1          1           0        0.000000    0.000000    0.000000
      2          1           0        0.000000    0.000000    1.146266
      3          1           0        1.007358    0.000000   -0.546951
      4          1           0        1.007358    0.000000    0.599315
      5          1           0        2.014716    0.000000   -1.093902
      6          1           0        2.014716    0.000000    0.052364
      7          1           0        3.022075    0.000000   -1.640853
      8          1           0        3.022075    0.000000   -0.494587
      9          1           0        4.029433    0.000000   -2.187804
     10          1           0        4.029433    0.000000   -1.041537
 ---------------------------------------------------------------------
                    Distance matrix (angstroms):
                    1          2          3          4          5
     1  H    0.000000
     2  H    1.146266   0.000000
     3  H    1.146266   1.970217   0.000000
     4  H    1.172156   1.146266   1.146266   0.000000
     5  H    2.292532   3.012878   1.146266   1.970217   0.000000
     6  H    2.015397   2.292532   1.172156   1.146266   1.146266
     7  H    3.438798   4.111078   2.292532   3.012878   1.146266
     8  H    3.062279   3.438798   2.015397   2.292532   1.172156
     9  H    4.585064   5.229947   3.438798   4.111078   2.292532
    10  H    4.161866   4.585064   3.062279   3.438798   2.015397
                    6          7          8          9         10
     6  H    0.000000
     7  H    1.970217   0.000000
     8  H    1.146266   1.146266   0.000000
     9  H    3.012878   1.146266   1.970217   0.000000
    10  H    2.292532   1.172156   1.146266   1.146266   0.000000
 Stoichiometry    H10
 Framework group  C2H[SGH(H10)]
 Deg. of freedom     9
 Full point group                 C2H     NOp   4
 Largest Abelian subgroup         C2H     NOp   4
 Largest concise Abelian subgroup C2      NOp   2
                         Standard orientation:                         
 ---------------------------------------------------------------------
 Center     Atomic      Atomic             Coordinates (Angstroms)
 Number     Number       Type             X           Y           Z
 ---------------------------------------------------------------------
      1          1           0        2.014716   -0.520769    0.000000
      2          1           0        2.014716   -1.667035    0.000000
      3          1           0        1.007358    0.026182    0.000000
      4          1           0        1.007358   -1.120084    0.000000
      5          1           0        0.000000    0.573133    0.000000
      6          1           0       -0.000000   -0.573133    0.000000
      7          1           0       -1.007358    1.120084   -0.000000
      8          1           0       -1.007358   -0.026182    0.000000
      9          1           0       -2.014716    1.667035   -0.000000
     10          1           0       -2.014716    0.520769    0.000000
 ---------------------------------------------------------------------
 Rotational constants (GHZ):    203.8688631     18.5013951     16.9620633
 General basis read from cards:  (5D, 7F)
 There are     5 symmetry adapted cartesian basis functions of AG  symmetry.
 There are     0 symmetry adapted cartesian basis functions of BG  symmetry.
 There are     0 symmetry adapted cartesian basis functions of AU  symmetry.
 There are     5 symmetry adapted cartesian basis functions of BU  symmetry.
 There are     5 symmetry adapted basis functions of AG  symmetry.
 There are     0 symmetry adapted basis functions of BG  symmetry.
 There are     0 symmetry adapted basis functions of AU  symmetry.
 There are     5 symmetry adapted basis functions of BU  symmetry.
    10 basis functions,   100 primitive gaussians,    10 cartesian basis functions
     5 alpha electrons        5 beta electrons
       nuclear repulsion energy        13.2589892998 Hartrees.
 NAtoms=   10 NActive=   10 NUniq=    5 SFac= 4.00D+00 NAtFMM=   60 NAOKFM=F Big=F
 Integral buffers will be    131072 words long.
 Raffenetti 2 integral format.
 Two-electron integral symmetry is turned on.
 One-electron integrals computed using PRISM.
 NBasis=    10 RedAO= T EigKep=  1.83D-01  NBF=     5     0     0     5
 NBsUse=    10 1.00D-06 EigRej= -1.00D+00 NBFU=     5     0     0     5
 Initial guess from the checkpoint file:  "h10.chk"
 B after Tr=     0.000000    0.000000    0.000000
         Rot=    0.804098   -0.000000    0.000000    0.594496 Ang=  72.95 deg.
 Initial guess orbital symmetries:
       Occupied  (AG) (BU) (AG) (BU) (AG)
       Virtual   (BU) (BU) (AG) (BU) (AG)
 Keep R1 ints in memory in symmetry-blocked form, NReq=879189.
 Requested convergence on RMS density matrix=1.00D-08 within 128 cycles.
 Requested convergence on MAX density matrix=1.00D-06.
 Requested convergence on             energy=1.00D-06.
 No special actions if energy rises.
 SCF Done:  E(RHF) =  -4.75765125477     A.U. after   14 cycles
            NFock= 14  Conv=0.26D-08     -V/T= 1.9213

 **********************************************************************

            Population analysis using the SCF density.

 **********************************************************************

 Orbital symmetries:
       Occupied  (AG) (BU) (AG) (BU) (AG)
       Virtual   (BU) (BU) (AG) (AG) (BU)
 The electronic state is 1-AG.
 Alpha  occ. eigenvalues --   -0.85133  -0.72936  -0.53600  -0.40245  -0.24975
 Alpha virt. eigenvalues --   -0.06384   0.21827   0.24365   0.55811   0.59622
          Condensed to atoms (all electrons):
               1          2          3          4          5          6
     1  H    1.138239  -0.142827   0.497887  -0.201735  -0.047573  -0.149229
     2  H   -0.142827   0.699765  -0.131680   0.419823  -0.015721   0.027759
     3  H    0.497887  -0.131680   1.172586  -0.330202   0.163676  -0.245738
     4  H   -0.201735   0.419823  -0.330202   0.937208  -0.030216   0.223501
     5  H   -0.047573  -0.015721   0.163676  -0.030216   0.883736   0.161229
     6  H   -0.149229   0.027759  -0.245738   0.223501   0.161229   0.883736
     7  H   -0.009362   0.002129  -0.026005   0.009422   0.223501  -0.030216
     8  H    0.007765  -0.004976  -0.021938  -0.026005  -0.245738   0.163676
     9  H   -0.000642   0.000405  -0.004976   0.002129   0.027759  -0.015721
    10  H    0.006079  -0.000642   0.007765  -0.009362  -0.149229  -0.047573
               7          8          9         10
     1  H   -0.009362   0.007765  -0.000642   0.006079
     2  H    0.002129  -0.004976   0.000405  -0.000642
     3  H   -0.026005  -0.021938  -0.004976   0.007765
     4  H    0.009422  -0.026005   0.002129  -0.009362
     5  H    0.223501  -0.245738   0.027759  -0.149229
     6  H   -0.030216   0.163676  -0.015721  -0.047573
     7  H    0.937208  -0.330202   0.419823  -0.201735
     8  H   -0.330202   1.172586  -0.131680   0.497887
     9  H    0.419823  -0.131680   0.699765  -0.142827
    10  H   -0.201735   0.497887  -0.142827   1.138239
 Mulliken charges:
               1
     1  H   -0.098603
     2  H    0.145966
     3  H   -0.081375
     4  H    0.005436
     5  H    0.028575
     6  H    0.028575
     7  H    0.005436
     8  H   -0.081375
     9  H    0.145966
    10  H   -0.098603
 Sum of Mulliken charges =   0.00000
 Mulliken charges with hydrogens summed into heavy atoms:
               1
 Electronic spatial extent (au):  <R**2>=            133.9153
 Charge=              0.0000 electrons
 Dipole moment (field-independent basis, Debye):
    X=              0.0000    Y=              0.0000    Z=             -0.0000  Tot=              0.0000
 Quadrupole moment (field-independent basis, Debye-Ang):
   XX=            -12.5625   YY=            -12.5774   ZZ=            -12.9820
   XY=             -5.8804   XZ=              0.0000   YZ=              0.0000
 Traceless Quadrupole moment (field-independent basis, Debye-Ang):
   XX=              0.1448   YY=              0.1299   ZZ=             -0.2747
   XY=             -5.8804   XZ=              0.0000   YZ=              0.0000
 Octapole moment (field-independent basis, Debye-Ang**2):
  XXX=              0.0000  YYY=             -0.0000  ZZZ=             -0.0000  XYY=             -0.0000
  XXY=             -0.0000  XXZ=             -0.0000  XZZ=              0.0000  YZZ=             -0.0000
  YYZ=             -0.0000  XYZ=             -0.0000
 Hexadecapole moment (field-independent basis, Debye-Ang**3):
 XXXX=           -158.4280 YYYY=            -92.5397 ZZZZ=            -15.7331 XXXY=              8.3237
 XXXZ=              0.0000 YYYX=             31.4689 YYYZ=              0.0000 ZZZX=              0.0000
 ZZZY=              0.0000 XXYY=            -26.4855 XXZZ=            -32.0051 YYZZ=            -18.0194
 XXYZ=              0.0000 YYXZ=              0.0000 ZZXY=             12.9952
 N-N= 1.325898929983D+01 E-N=-3.565949350286D+01  KE= 5.163991468771D+00
 Symmetry AG   KE= 3.175100310123D+00
 Symmetry BG   KE= 0.000000000000D+00
 Symmetry AU   KE= 0.000000000000D+00
 Symmetry BU   KE= 1.988891158648D+00
 Range of M.O.s used for correlation:     1    10
 NBasis=    10 NAE=     5 NBE=     5 NFC=     0 NFV=     0
 NROrb=     10 NOA=     5 NOB=     5 NVA=     5 NVB=     5
 Keep R1 and R2 ints in memory in symmetry-blocked form, NReq=802982.
 Orbital symmetries:
       Occupied  (AG) (BU) (AG) (BU) (AG)
       Virtual   (BU) (BU) (AG) (AG) (BU)
    24 initial guesses have been made.
 Convergence on wavefunction:    0.001000000000000
 Iteration     1 Dimension    24 NMult     0 NNew     24
 CISAX will form    24 AO SS matrices at one time.
 New state      1 was old state      2
 Iteration     2 Dimension    48 NMult    24 NNew     24
 Iteration     3 Dimension    50 NMult    48 NNew      2
 Cease iterating as an instability has been found.
 ***********************************************************************
 Stability analysis using <AA,BB:AA,BB> singles matrix:
 ***********************************************************************

 Eigenvectors of the stability matrix:
 
 Eigenvector   1:      Triplet-BU   Eigenvalue=-0.1791011  <S**2>=2.000
       3 ->  6         0.12292
       4 ->  8        -0.15041
       5 ->  6         0.64435
       5 ->  7         0.13341
 
 Eigenvector   2:      Triplet-AG   Eigenvalue=-0.0602560  <S**2>=2.000
       2 ->  6        -0.13721
       3 ->  8        -0.14813
       4 ->  6         0.60551
       5 ->  8        -0.28082
 
 Eigenvector   3:      Singlet-BU   Eigenvalue=-0.0357456  <S**2>=0.000
       5 ->  6         0.69447
 
 Eigenvector   4:      Triplet-BU   Eigenvalue=-0.0089123  <S**2>=2.000
       1 ->  6         0.11375
       3 ->  6        -0.12619
       4 ->  9        -0.20139
       5 ->  6        -0.11062
       5 ->  7         0.62240
 
 Eigenvector   5:      Singlet-AG   Eigenvalue= 0.1147062  <S**2>=0.000
       4 ->  6         0.68520
       5 ->  8        -0.12858
 
 Eigenvector   6:      Singlet-BU   Eigenvalue= 0.2117929  <S**2>=0.000
       3 ->  6         0.50358
       5 ->  7         0.48012
 SavETr:  write IOETrn=   770 NScale= 10 NData=  16 NLR=1 NState=    6 LETran=     118.
 The wavefunction has an RHF -> UHF instability.
 Keep R1 and R2 ints in memory in symmetry-blocked form, NReq=860528.
 The two search directions are symmetric.
 Gradient too large for Newton-Raphson -- use scaled steepest descent instead.
 Gradient too large for Newton-Raphson -- use scaled steepest descent instead.
 Gradient too large for Newton-Raphson -- use scaled steepest descent instead.
     Accept linear search using points  1 and  2.
     Minimum is close to point  2 DX= -5.92D-02 DF= -1.30D-06 DXR=  3.61D-02 DFR=  2.87D-03 which will be used.
 LinEq1:  Iter=  0 NonCon=     1 RMS=1.95D-03 Max=5.72D-03 NDo=     1
 AX will form     1 AO Fock derivatives at one time.
 LinEq1:  Iter=  1 NonCon=     1 RMS=6.81D-04 Max=1.53D-03 NDo=     1
 LinEq1:  Iter=  2 NonCon=     1 RMS=1.27D-04 Max=2.92D-04 NDo=     1
 LinEq1:  Iter=  3 NonCon=     1 RMS=2.03D-05 Max=4.85D-05 NDo=     1
 LinEq1:  Iter=  4 NonCon=     1 RMS=3.49D-06 Max=6.97D-06 NDo=     1
 LinEq1:  Iter=  5 NonCon=     1 RMS=8.38D-07 Max=1.65D-06 NDo=     1
 LinEq1:  Iter=  6 NonCon=     1 RMS=1.30D-07 Max=3.28D-07 NDo=     1
 LinEq1:  Iter=  7 NonCon=     1 RMS=2.03D-08 Max=5.81D-08 NDo=     1
 LinEq1:  Iter=  8 NonCon=     1 RMS=3.30D-09 Max=1.04D-08 NDo=     1
 LinEq1:  Iter=  9 NonCon=     0 RMS=4.61D-10 Max=9.80D-10 NDo=     1
 Linear equations converged to 1.000D-09 1.000D-08 after     9 iterations.
     Minimum is close to point  2 DX=  4.42D-02 DF= -4.25D-07 DXR=  4.23D-02 DFR=  1.79D-03 which will be used.
 LinEq1:  Iter=  0 NonCon=     1 RMS=6.75D-05 Max=2.17D-04 NDo=     1
 LinEq1:  Iter=  1 NonCon=     1 RMS=1.30D-05 Max=2.72D-05 NDo=     1
 LinEq1:  Iter=  2 NonCon=     1 RMS=2.28D-06 Max=5.91D-06 NDo=     1
 LinEq1:  Iter=  3 NonCon=     1 RMS=7.45D-07 Max=1.93D-06 NDo=     1
 LinEq1:  Iter=  4 NonCon=     1 RMS=2.10D-07 Max=4.19D-07 NDo=     1
 LinEq1:  Iter=  5 NonCon=     1 RMS=3.44D-08 Max=7.69D-08 NDo=     1
 LinEq1:  Iter=  6 NonCon=     1 RMS=6.71D-09 Max=1.28D-08 NDo=     1
 LinEq1:  Iter=  7 NonCon=     1 RMS=1.00D-09 Max=2.61D-09 NDo=     1
 LinEq1:  Iter=  8 NonCon=     0 RMS=1.30D-10 Max=3.35D-10 NDo=     1
 Linear equations converged to 1.000D-09 1.000D-08 after     8 iterations.
     Minimum is close to point  2 DX=  5.29D-03 DF= -1.21D-11 DXR=  5.26D-03 DFR=  2.77D-05 which will be used.
 LinEq1:  Iter=  0 NonCon=     1 RMS=2.66D-07 Max=9.32D-07 NDo=     1
 LinEq1:  Iter=  1 NonCon=     1 RMS=5.23D-08 Max=1.08D-07 NDo=     1
 LinEq1:  Iter=  2 NonCon=     1 RMS=1.33D-08 Max=4.05D-08 NDo=     1
 LinEq1:  Iter=  3 NonCon=     1 RMS=4.10D-09 Max=1.04D-08 NDo=     1
 LinEq1:  Iter=  4 NonCon=     1 RMS=9.99D-10 Max=2.10D-09 NDo=     1
 LinEq1:  Iter=  5 NonCon=     1 RMS=1.25D-10 Max=2.51D-10 NDo=     1
 LinEq1:  Iter=  6 NonCon=     1 RMS=2.52D-11 Max=4.97D-11 NDo=     1
 LinEq1:  Iter=  7 NonCon=     0 RMS=3.12D-12 Max=7.06D-12 NDo=     1
 Linear equations converged to 9.683D-12 9.683D-11 after     7 iterations.
 Density matrix breaks symmetry, PCut= 1.00D-04
 Density matrix has no symmetry -- integrals replicated.
 Density matrix is not symmetric, so final MOs not symmetrized.
 SCF Done:  E(UHF) =  -4.89966188065     a.u. after    7 cycles
            Convg  =    0.3995D-08                    51 Fock formations.
              S**2 =  1.1431                  -V/T =  1.9429
 <Sx>= 0.0000 <Sy>= 0.0000 <Sz>= 0.0000 <S**2>= 1.1431 S= 0.6803
 <L.S>= 0.000000000000E+00
 Annihilation of the first spin contaminant:
 S**2 before annihilation     1.1431,   after     1.7342
 Range of M.O.s used for correlation:     1    10
 NBasis=    10 NAE=     5 NBE=     5 NFC=     0 NFV=     0
 NROrb=     10 NOA=     5 NOB=     5 NVA=     5 NVB=     5
 Keep R1 and R2 ints in memory in symmetry-blocked form, NReq=802982.
 Orbital symmetries:
 Alpha Orbitals:
       Occupied  (BG) (BG) (BG) (BG) (BG)
       Virtual   (BG) (BG) (BG) (BG) (BG)
 Beta  Orbitals:
       Occupied  (BG) (BG) (BG) (BG) (BG)
       Virtual   (BG) (BG) (BG) (BG) (BG)
    12 initial guesses have been made.
 Convergence on wavefunction:    0.001000000000000
 Iteration     1 Dimension    12 NMult     0 NNew     12
 CISAX will form    12 AO SS matrices at one time.
 New state      1 was old state      3
 Iteration     2 Dimension    24 NMult    12 NNew     12
 Iteration     3 Dimension    27 NMult    24 NNew      3
 Iteration     4 Dimension    30 NMult    27 NNew      3
 Iteration     5 Dimension    33 NMult    30 NNew      3
 ***********************************************************************
 Stability analysis using <AA,BB:AA,BB> singles matrix:
 ***********************************************************************

 Eigenvectors of the stability matrix:
 
 Eigenvector   1:  2.661-AG   Eigenvalue= 0.0555755  <S**2>=1.520
      4A ->  6A        0.66407
      4A ->  9A       -0.11318
      5A ->  6A       -0.12508
      4B ->  6B        0.66407
      4B ->  9B       -0.11318
      5B ->  6B       -0.12508
 SavETr:  write IOETrn=   770 NScale= 10 NData=  16 NLR=1 NState=    1 LETran=      28.
 The wavefunction is stable under the perturbations considered.
 The wavefunction is already stable.

 **********************************************************************

            Population analysis using the SCF density.

 **********************************************************************

 Orbital symmetries:
 Alpha Orbitals:
       Occupied  (BG) (BG) (BG) (BG) (BG)
       Virtual   (BG) (BG) (BG) (BG) (BG)
 Beta  Orbitals:
       Occupied  (BG) (BG) (BG) (BG) (BG)
       Virtual   (BG) (BG) (BG) (BG) (BG)
 Unable to determine electronic state:  partially filled degenerate orbitals.
 Alpha  occ. eigenvalues --   -0.85031  -0.73992  -0.56257  -0.37211  -0.35170
 Alpha virt. eigenvalues --    0.04159   0.21038   0.28296   0.55237   0.61458
  Beta  occ. eigenvalues --   -0.85031  -0.73992  -0.56257  -0.37211  -0.35170
  Beta virt. eigenvalues --    0.04159   0.21038   0.28296   0.55237   0.61458
          Condensed to atoms (all electrons):
               1          2          3          4          5          6
     1  H    0.912634   0.154944   0.144292  -0.115384   0.004612  -0.129187
     2  H    0.154944   0.919786  -0.134169   0.076384  -0.004554  -0.029575
     3  H    0.144292  -0.134169   1.138674  -0.033933   0.175532  -0.069180
     4  H   -0.115384   0.076384  -0.033933   0.865730  -0.108949   0.271627
     5  H    0.004612  -0.004554   0.175532  -0.108949   0.978525  -0.072785
     6  H   -0.129187  -0.029575  -0.069180   0.271627  -0.072785   0.978525
     7  H    0.004523   0.002367  -0.010902  -0.016102   0.271627  -0.108949
     8  H   -0.001513   0.008578  -0.137492  -0.010902  -0.069180   0.175532
     9  H   -0.000431  -0.000279   0.008578   0.002367  -0.029575  -0.004554
    10  H    0.001142  -0.000431  -0.001513   0.004523  -0.129187   0.004612
               7          8          9         10
     1  H    0.004523  -0.001513  -0.000431   0.001142
     2  H    0.002367   0.008578  -0.000279  -0.000431
     3  H   -0.010902  -0.137492   0.008578  -0.001513
     4  H   -0.016102  -0.010902   0.002367   0.004523
     5  H    0.271627  -0.069180  -0.029575  -0.129187
     6  H   -0.108949   0.175532  -0.004554   0.004612
     7  H    0.865730  -0.033933   0.076384  -0.115384
     8  H   -0.033933   1.138674  -0.134169   0.144292
     9  H    0.076384  -0.134169   0.919786   0.154944
    10  H   -0.115384   0.144292   0.154944   0.912634
          Atomic-Atomic Spin Densities.
               1          2          3          4          5          6
     1  H   -0.634940  -0.119866   0.103739   0.177740  -0.015515   0.057943
     2  H   -0.119866   0.663800  -0.089386   0.075608   0.009965   0.007696
     3  H    0.103739  -0.089386   0.510254   0.081966  -0.212183  -0.069084
     4  H    0.177740   0.075608   0.081966  -0.627317   0.059831  -0.185315
     5  H   -0.015515   0.009965  -0.212183   0.059831  -0.160035   0.000000
     6  H    0.057943   0.007696  -0.069084  -0.185315   0.000000   0.160035
     7  H   -0.001900   0.002026  -0.020377   0.000000   0.185315  -0.059831
     8  H   -0.015769  -0.001088   0.000000   0.020377   0.069084   0.212183
     9  H    0.001185   0.000000   0.001088  -0.002026  -0.007696  -0.009965
    10  H    0.000000  -0.001185   0.015769   0.001900  -0.057943   0.015515
               7          8          9         10
     1  H   -0.001900  -0.015769   0.001185   0.000000
     2  H    0.002026  -0.001088   0.000000  -0.001185
     3  H   -0.020377   0.000000   0.001088   0.015769
     4  H    0.000000   0.020377  -0.002026   0.001900
     5  H    0.185315   0.069084  -0.007696  -0.057943
     6  H   -0.059831   0.212183  -0.009965   0.015515
     7  H    0.627317  -0.081966  -0.075608  -0.177740
     8  H   -0.081966  -0.510254   0.089386  -0.103739
     9  H   -0.075608   0.089386  -0.663800   0.119866
    10  H   -0.177740  -0.103739   0.119866   0.634940
 Mulliken charges and spin densities:
               1          2
     1  H    0.024368  -0.447383
     2  H    0.006947   0.547569
     3  H   -0.079888   0.321786
     4  H    0.064639  -0.397237
     5  H   -0.016066  -0.129177
     6  H   -0.016066   0.129177
     7  H    0.064639   0.397237
     8  H   -0.079888  -0.321786
     9  H    0.006947  -0.547569
    10  H    0.024368   0.447383
 Sum of Mulliken charges =   0.00000  -0.00000
 Mulliken charges and spin densities with hydrogens summed into heavy atoms:
               1          2
 Electronic spatial extent (au):  <R**2>=            136.0970
 Charge=              0.0000 electrons
 Dipole moment (field-independent basis, Debye):
    X=             -0.0000    Y=              0.0000    Z=             -0.0000  Tot=              0.0000
 Quadrupole moment (field-independent basis, Debye-Ang):
   XX=            -14.2497   YY=            -13.8947   ZZ=            -12.9120
   XY=             -1.3069   XZ=              0.0000   YZ=              0.0000
 Traceless Quadrupole moment (field-independent basis, Debye-Ang):
   XX=             -0.5642   YY=             -0.2092   ZZ=              0.7735
   XY=             -1.3069   XZ=              0.0000   YZ=              0.0000
 Octapole moment (field-independent basis, Debye-Ang**2):
  XXX=             -0.0000  YYY=              0.0000  ZZZ=             -0.0000  XYY=             -0.0000
  XXY=              0.0000  XXZ=             -0.0000  XZZ=              0.0000  YZZ=              0.0000
  YYZ=             -0.0000  XYZ=             -0.0000
 Hexadecapole moment (field-independent basis, Debye-Ang**3):
 XXXX=           -193.1799 YYYY=            -93.5709 ZZZZ=            -15.5776 XXXY=             46.0874
 XXXZ=              0.0000 YYYX=             43.3911 YYYZ=              0.0000 ZZZX=              0.0000
 ZZZY=              0.0000 XXYY=            -46.9229 XXZZ=            -32.7253 YYZZ=            -18.0417
 XXYZ=              0.0000 YYXZ=              0.0000 ZZXY=             14.2757
 N-N= 1.325898929983D+01 E-N=-3.576019382871D+01  KE= 5.196116672998D+00
 Symmetry AG   KE= 2.113343810309D+00
 Symmetry BG   KE= 0.000000000000D+00
 Symmetry AU   KE= 0.000000000000D+00
 Symmetry BU   KE= 3.082772862689D+00
                          Isotropic Fermi Contact Couplings
        Atom                 a.u.       MegaHertz       Gauss      10(-4) cm-1
     1  H(1)              -0.17394    -388.74021    -138.71217    -129.66978
     2  H(1)               0.19420     434.03263     154.87363     144.77770
     3  H(1)               0.13929     311.30195     111.08027     103.83915
     4  H(1)              -0.17067    -381.43853    -136.10675    -127.23420
     5  H(1)              -0.04439     -99.20310     -35.39813     -33.09059
     6  H(1)               0.04439      99.20310      35.39813      33.09059
     7  H(1)               0.17067     381.43853     136.10675     127.23420
     8  H(1)              -0.13929    -311.30195    -111.08027    -103.83915
     9  H(1)              -0.19420    -434.03263    -154.87363    -144.77770
    10  H(1)               0.17394     388.74021     138.71217     129.66978
 --------------------------------------------------------
       Center         ----  Spin Dipole Couplings  ----
                      3XX-RR        3YY-RR        3ZZ-RR
 --------------------------------------------------------
     1   Atom       -0.008269      0.054281     -0.046012
     2   Atom       -0.001570     -0.051304      0.052874
     3   Atom       -0.029194     -0.029023      0.058216
     4   Atom       -0.021387      0.063944     -0.042557
     5   Atom        0.016810      0.016820     -0.033629
     6   Atom       -0.016810     -0.016820      0.033629
     7   Atom        0.021387     -0.063944      0.042557
     8   Atom        0.029194      0.029023     -0.058216
     9   Atom        0.001570      0.051304     -0.052874
    10   Atom        0.008269     -0.054281      0.046012
 --------------------------------------------------------
                        XY            XZ            YZ
 --------------------------------------------------------
     1   Atom       -0.059676     -0.000000     -0.000000
     2   Atom        0.007389     -0.000000      0.000000
     3   Atom        0.029203     -0.000000     -0.000000
     4   Atom       -0.060921     -0.000000      0.000000
     5   Atom       -0.060387      0.000000     -0.000000
     6   Atom        0.060387      0.000000     -0.000000
     7   Atom        0.060921     -0.000000      0.000000
     8   Atom       -0.029203     -0.000000      0.000000
     9   Atom       -0.007389      0.000000     -0.000000
    10   Atom        0.059676      0.000000      0.000000
 --------------------------------------------------------


 ---------------------------------------------------------------------------------
              Anisotropic Spin Dipole Couplings in Principal Axis System
 ---------------------------------------------------------------------------------

       Atom             a.u.   MegaHertz   Gauss  10(-4) cm-1        Axes

              Baa    -0.0460   -24.550    -8.760    -8.189  0.0000  0.0000  1.0000
     1 H(1)   Bbb    -0.0444   -23.673    -8.447    -7.896  0.8556  0.5176 -0.0000
              Bcc     0.0904    48.223    17.207    16.085 -0.5176  0.8556  0.0000
 
              Baa    -0.0524   -27.947    -9.972    -9.322 -0.1439  0.9896  0.0000
     2 H(1)   Bbb    -0.0005    -0.264    -0.094    -0.088  0.9896  0.1439  0.0000
              Bcc     0.0529    28.211    10.066     9.410  0.0000  0.0000  1.0000
 
              Baa    -0.0583   -31.112   -11.102   -10.378  0.7081 -0.7061  0.0000
     3 H(1)   Bbb     0.0001     0.051     0.018     0.017  0.7061  0.7081 -0.0000
              Bcc     0.0582    31.061    11.084    10.361  0.0000  0.0000  1.0000
 
              Baa    -0.0531   -28.330   -10.109    -9.450  0.8870  0.4617  0.0000
     4 H(1)   Bbb    -0.0426   -22.707    -8.102    -7.574  0.0000  0.0000  1.0000
              Bcc     0.0957    51.036    18.211    17.024 -0.4617  0.8870  0.0000
 
              Baa    -0.0436   -23.248    -8.296    -7.755  0.7071  0.7071  0.0000
     5 H(1)   Bbb    -0.0336   -17.943    -6.403    -5.985  0.0000  0.0000  1.0000
              Bcc     0.0772    41.191    14.698    13.740 -0.7071  0.7071  0.0000
 
              Baa    -0.0772   -41.191   -14.698   -13.740 -0.7071  0.7071  0.0000
     6 H(1)   Bbb     0.0336    17.943     6.403     5.985  0.0000  0.0000  1.0000
              Bcc     0.0436    23.248     8.296     7.755  0.7071  0.7071  0.0000
 
              Baa    -0.0957   -51.036   -18.211   -17.024 -0.4617  0.8870  0.0000
     7 H(1)   Bbb     0.0426    22.707     8.102     7.574  0.0000  0.0000  1.0000
              Bcc     0.0531    28.330    10.109     9.450  0.8870  0.4617  0.0000
 
              Baa    -0.0582   -31.061   -11.084   -10.361  0.0000  0.0000  1.0000
     8 H(1)   Bbb    -0.0001    -0.051    -0.018    -0.017  0.7061  0.7081  0.0000
              Bcc     0.0583    31.112    11.102    10.378  0.7081 -0.7061  0.0000
 
              Baa    -0.0529   -28.211   -10.066    -9.410  0.0000  0.0000  1.0000
     9 H(1)   Bbb     0.0005     0.264     0.094     0.088  0.9896  0.1439  0.0000
              Bcc     0.0524    27.947     9.972     9.322 -0.1439  0.9896  0.0000
 
              Baa    -0.0904   -48.223   -17.207   -16.085 -0.5176  0.8556  0.0000
    10 H(1)   Bbb     0.0444    23.673     8.447     7.896  0.8556  0.5176 -0.0000
              Bcc     0.0460    24.550     8.760     8.189  0.0000  0.0000  1.0000
 

 ---------------------------------------------------------------------------------


 Test job not archived.
 1\1\GINC-SULU\Stability\UHF\Gen\H10\LCJ1\22-Feb-2017\0\\#rhf/gen scf(s
 ymm,tight,novaracc,noincfock,fulldiag) stable=opt guess=read geom=nocr
 owd test\\hf stability analysis of h10 triangular lattice, y= 0.586077
 91870365555\\0,1\H\H,1,1.1462660457\H,1,1.1462660457,2,118.5\H,2,1.146
 2660457,1,61.5,3,0.,0\H,3,1.1462660457,1,180.,2,0.,0\H,4,1.1462660457,
 2,180.,1,0.,0\H,5,1.1462660457,3,180.,2,0.,0\H,6,1.1462660457,4,180.,1
 ,0.,0\H,7,1.1462660457,5,180.,2,0.,0\H,8,1.1462660457,6,180.,1,0.,0\\V
 ersion=ES64L-G09RevE.01\State=1-AG\HF=-4.8996619\S2=1.143054\S2-1=0.\S
 2A=1.734187\RMSD=2.561e-09\Dipole=0.,0.,0.\Quadrupole=-0.4194861,0.575
 0504,-0.1555643,0.,-0.9716439,0.\PG=C02H [SGH(H10)]\\@


 NOBODY LOSES ALL THE TIME
 I HAD AN UNCLE NAMED
 SOL WHO WAS A BORN FAILURE AND
 NEARLY EVERYBODY SAID HE SHOULD HAVE GONE
 INTO VAUDEVILLE PERHAPS BECAUSE MY UNCLE SOL COULD
 SING MCCANN HE WAS A DIVER ON XMAS EVE LIKE HELL ITSELF WHICH
 MAY OR MAY NOT ACCOUNT FOR THE FACT THAT MY UNCLE
 SOL INDULGED IN THAT POSSIBLY MOST INEXCUSABLE
 OF ALL TO USE A HIGHFALOOTIN PHRASE
 LUXURIES THAT IS OR TO
 WIT FARMING AND BE
 IT NEEDLESSLY
 ADDED
 MY UNCLE SOL'S FARM     
 FAILED BECAUSE THE CHICKENS
 ATE THE VEGETABLES SO
 MY UNCLE SOL HAD A
 CHICKEN FARM TILL THE
 SKUNKS ATE THE CHICKENS WHEN 
 MY UNCLE SOL
 HAD A SKUNK FARM BUT
 THE SKUNKS CAUGHT COLD AND
 DIED AND SO
 MY UNCLE SOL IMITATED THE
 SKUNKS IN A SUBTLE MANNER
 OR BY DROWNING HIMSELF IN THE WATERTANK
 BUT SOMEBODY WHO'D GIVEN MY UNCLE SOL A VICTOR     
 VICTROLA AND RECORDS WHILE HE LIVED PRESENTED TO
 HIM UPON THE AUSPICIOUS OCCASION OF HIS DECEASE A
 SCRUMPTIOUS NOT TO MENTION SPLENDIFEROUS FUNERAL WITH
 TALL BOYS IN BLACK GLOVES AND FLOWERS AND EVERYTHING AND
 I REMEMBER WE ALL CRIED LIKE THE MISSOURI
 WHEN MY UNCLE SOL'S COFFIN LURCHED BECAUSE     
 SOMEBODY PRESSED A BUTTON
 (AND DOWN WENT
 MY UNCLE
 SOL
 AND STARTED A WORM FARM)
           E. E. CUMMINGS
 Job cpu time:       0 days  0 hours  0 minutes  1.2 seconds.
 File lengths (MBytes):  RWF=     77 Int=      0 D2E=      0 Chk=      2 Scr=      2
 Normal termination of Gaussian 09 at Wed Feb 22 12:34:35 2017.
