 Entering Gaussian System, Link 0=g09
 AtFile(1): H.gbs
            H     0
            S   10   1.00
               1000.000000000000            0.000068713567
                316.227766000000            0.000169141320
                100.000000000000            0.000823394812
                 31.622776600000            0.003425569236
                 10.000000000000            0.013951996000
                  3.162277660000            0.056909313560
                  1.000000000000            0.198286399900
                  0.316227766000            0.496922426700
                  0.100000000000            0.369846276400
                  0.031622776600            0.003752720039
            ****
 Initial command:
 /projects/guscus/apps/gau/g09-e1/g09/l1.exe "/users/lcj1/gaussian/h10/2rows_uhf/ag3bu2/Gau-31817.inp" -scrdir="/users/lcj1/gaussian/h10/2rows_uhf/ag3bu2/"
 Entering Link 1 = /projects/guscus/apps/gau/g09-e1/g09/l1.exe PID=     31818.
  
 Copyright (c) 1988,1990,1992,1993,1995,1998,2003,2009,2015,
            Gaussian, Inc.  All Rights Reserved.
  
 This is part of the Gaussian(R) 09 program.  It is based on
 the Gaussian(R) 03 system (copyright 2003, Gaussian, Inc.),
 the Gaussian(R) 98 system (copyright 1998, Gaussian, Inc.),
 the Gaussian(R) 94 system (copyright 1995, Gaussian, Inc.),
 the Gaussian 92(TM) system (copyright 1992, Gaussian, Inc.),
 the Gaussian 90(TM) system (copyright 1990, Gaussian, Inc.),
 the Gaussian 88(TM) system (copyright 1988, Gaussian, Inc.),
 the Gaussian 86(TM) system (copyright 1986, Carnegie Mellon
 University), and the Gaussian 82(TM) system (copyright 1983,
 Carnegie Mellon University). Gaussian is a federally registered
 trademark of Gaussian, Inc.
  
 This software contains proprietary and confidential information,
 including trade secrets, belonging to Gaussian, Inc.
  
 This software is provided under written license and may be
 used, copied, transmitted, or stored only in accord with that
 written license.
  
 The following legend is applicable only to US Government
 contracts under FAR:
  
                    RESTRICTED RIGHTS LEGEND
  
 Use, reproduction and disclosure by the US Government is
 subject to restrictions as set forth in subparagraphs (a)
 and (c) of the Commercial Computer Software - Restricted
 Rights clause in FAR 52.227-19.
  
 Gaussian, Inc.
 340 Quinnipiac St., Bldg. 40, Wallingford CT 06492
  
  
 ---------------------------------------------------------------
 Warning -- This program may not be used in any manner that
 competes with the business of Gaussian, Inc. or will provide
 assistance to any competitor of Gaussian, Inc.  The licensee
 of this program is prohibited from giving any competitor of
 Gaussian, Inc. access to this program.  By using this program,
 the user acknowledges that Gaussian, Inc. is engaged in the
 business of creating and licensing software in the field of
 computational chemistry and represents and warrants to the
 licensee that it is not a competitor of Gaussian, Inc. and that
 it will not use this program in any manner prohibited above.
 ---------------------------------------------------------------
  

 Cite this work as:
 Gaussian 09, Revision E.01,
 M. J. Frisch, G. W. Trucks, H. B. Schlegel, G. E. Scuseria, 
 M. A. Robb, J. R. Cheeseman, G. Scalmani, V. Barone, B. Mennucci, 
 G. A. Petersson, H. Nakatsuji, M. Caricato, X. Li, H. P. Hratchian, 
 A. F. Izmaylov, J. Bloino, G. Zheng, J. L. Sonnenberg, M. Hada, 
 M. Ehara, K. Toyota, R. Fukuda, J. Hasegawa, M. Ishida, T. Nakajima, 
 Y. Honda, O. Kitao, H. Nakai, T. Vreven, J. A. Montgomery, Jr., 
 J. E. Peralta, F. Ogliaro, M. Bearpark, J. J. Heyd, E. Brothers, 
 K. N. Kudin, V. N. Staroverov, T. Keith, R. Kobayashi, J. Normand, 
 K. Raghavachari, A. Rendell, J. C. Burant, S. S. Iyengar, J. Tomasi, 
 M. Cossi, N. Rega, J. M. Millam, M. Klene, J. E. Knox, J. B. Cross, 
 V. Bakken, C. Adamo, J. Jaramillo, R. Gomperts, R. E. Stratmann, 
 O. Yazyev, A. J. Austin, R. Cammi, C. Pomelli, J. W. Ochterski, 
 R. L. Martin, K. Morokuma, V. G. Zakrzewski, G. A. Voth, 
 P. Salvador, J. J. Dannenberg, S. Dapprich, A. D. Daniels, 
 O. Farkas, J. B. Foresman, J. V. Ortiz, J. Cioslowski, 
 and D. J. Fox, Gaussian, Inc., Wallingford CT, 2013.
 
 ******************************************
 Gaussian 09:  ES64L-G09RevE.01 30-Nov-2015
                22-Feb-2017 
 ******************************************
 %chk=h10.chk
 ----------------------------------------------------------------------
 #rhf/gen scf(symm,tight,novaracc,noincfock,fulldiag) stable=opt guess=
 read geom=nocrowd test
 ----------------------------------------------------------------------
 1/38=1/1;
 2/12=1,17=6,18=5,40=1/2;
 3/5=7,11=2,16=1,25=1,30=1,116=1/1,2,3;
 4/5=1,9=4/1;
 5/5=100002,15=2,16=1,32=2,38=6/2;
 6/7=2,8=2,9=2,10=2,28=1/1;
 8/6=1,10=90,11=11/1;
 9/8=-3,42=1,46=1/14;
 5/5=100002,8=3,16=1,17=40,32=2,38=6/8(-2);
 6/7=2,8=2,9=2,10=2,28=1/1;
 99/5=1,9=1/99;
 ----------------------------------------------------------------------
 hf stability analysis of h10 triangular lattice, y= 0.7434330289905593
 0
 ----------------------------------------------------------------------
 Symbolic Z-matrix:
 Charge =  0 Multiplicity = 1
 H
 H                    1     1.07508 
 H                    1     1.07508  2     92.5 
 H                    2     1.07508  1     87.5     3     0.       0
 H                    3     1.07508  1     180.     2     0.       0
 H                    4     1.07508  2     180.     1     0.       0
 H                    5     1.07508  3     180.     2     0.       0
 H                    6     1.07508  4     180.     1     0.       0
 H                    7     1.07508  5     180.     2     0.       0
 H                    8     1.07508  6     180.     1     0.       0
 
                          Input orientation:                          
 ---------------------------------------------------------------------
 Center     Atomic      Atomic             Coordinates (Angstroms)
 Number     Number       Type             X           Y           Z
 ---------------------------------------------------------------------
      1          1           0        0.000000    0.000000    0.000000
      2          1           0        0.000000    0.000000    1.075082
      3          1           0        1.074058    0.000000   -0.046894
      4          1           0        1.074058    0.000000    1.028187
      5          1           0        2.148117    0.000000   -0.093789
      6          1           0        2.148117    0.000000    0.981293
      7          1           0        3.222175    0.000000   -0.140683
      8          1           0        3.222175    0.000000    0.934398
      9          1           0        4.296234    0.000000   -0.187578
     10          1           0        4.296234    0.000000    0.887504
 ---------------------------------------------------------------------
                    Distance matrix (angstroms):
                    1          2          3          4          5
     1  H    0.000000
     2  H    1.075082   0.000000
     3  H    1.075082   1.553201   0.000000
     4  H    1.486866   1.075082   1.075082   0.000000
     5  H    2.150163   2.445540   1.075082   1.553201   0.000000
     6  H    2.361640   2.150163   1.486866   1.075082   1.075082
     7  H    3.225245   3.443907   2.150163   2.445540   1.075082
     8  H    3.354924   3.225245   2.361640   2.150163   1.486866
     9  H    4.300327   4.477938   3.225245   3.443907   2.150163
    10  H    4.386945   4.300327   3.354924   3.225245   2.361640
                    6          7          8          9         10
     6  H    0.000000
     7  H    1.553201   0.000000
     8  H    1.075082   1.075082   0.000000
     9  H    2.445540   1.075082   1.553201   0.000000
    10  H    2.150163   1.486866   1.075082   1.075082   0.000000
 Stoichiometry    H10
 Framework group  C2H[SGH(H10)]
 Deg. of freedom     9
 Full point group                 C2H     NOp   4
 Largest Abelian subgroup         C2H     NOp   4
 Largest concise Abelian subgroup C2      NOp   2
                         Standard orientation:                         
 ---------------------------------------------------------------------
 Center     Atomic      Atomic             Coordinates (Angstroms)
 Number     Number       Type             X           Y           Z
 ---------------------------------------------------------------------
      1          1           0        2.148117    0.443752   -0.000000
      2          1           0        2.148117   -0.631330   -0.000000
      3          1           0        1.074058    0.490646   -0.000000
      4          1           0        1.074058   -0.584435   -0.000000
      5          1           0       -0.000000    0.537541   -0.000000
      6          1           0       -0.000000   -0.537541   -0.000000
      7          1           0       -1.074058    0.584435    0.000000
      8          1           0       -1.074058   -0.490646    0.000000
      9          1           0       -2.148117    0.631330    0.000000
     10          1           0       -2.148117   -0.443752    0.000000
 ---------------------------------------------------------------------
 Rotational constants (GHZ):    173.9218784     21.6870834     19.2826456
 General basis read from cards:  (5D, 7F)
 There are     5 symmetry adapted cartesian basis functions of AG  symmetry.
 There are     0 symmetry adapted cartesian basis functions of BG  symmetry.
 There are     0 symmetry adapted cartesian basis functions of AU  symmetry.
 There are     5 symmetry adapted cartesian basis functions of BU  symmetry.
 There are     5 symmetry adapted basis functions of AG  symmetry.
 There are     0 symmetry adapted basis functions of BG  symmetry.
 There are     0 symmetry adapted basis functions of AU  symmetry.
 There are     5 symmetry adapted basis functions of BU  symmetry.
    10 basis functions,   100 primitive gaussians,    10 cartesian basis functions
     5 alpha electrons        5 beta electrons
       nuclear repulsion energy        13.7472852860 Hartrees.
 NAtoms=   10 NActive=   10 NUniq=    5 SFac= 4.00D+00 NAtFMM=   60 NAOKFM=F Big=F
 Integral buffers will be    131072 words long.
 Raffenetti 2 integral format.
 Two-electron integral symmetry is turned on.
 One-electron integrals computed using PRISM.
 NBasis=    10 RedAO= T EigKep=  1.22D-01  NBF=     5     0     0     5
 NBsUse=    10 1.00D-06 EigRej= -1.00D+00 NBFU=     5     0     0     5
 Initial guess from the checkpoint file:  "h10.chk"
 B after Tr=     0.000000    0.000000   -0.000000
         Rot=    0.911943   -0.000000    0.000000    0.410317 Ang=  48.45 deg.
 Initial guess orbital symmetries:
       Occupied  (AG) (BU) (AG) (BU) (AG)
       Virtual   (BU) (BU) (AG) (BU) (AG)
 Keep R1 ints in memory in symmetry-blocked form, NReq=879399.
 Requested convergence on RMS density matrix=1.00D-08 within 128 cycles.
 Requested convergence on MAX density matrix=1.00D-06.
 Requested convergence on             energy=1.00D-06.
 No special actions if energy rises.
 SCF Done:  E(RHF) =  -4.88580042703     A.U. after   13 cycles
            NFock= 13  Conv=0.39D-08     -V/T= 1.9583

 **********************************************************************

            Population analysis using the SCF density.

 **********************************************************************

 Orbital symmetries:
       Occupied  (AG) (BU) (AG) (BU) (AG)
       Virtual   (BU) (BU) (AG) (AG) (BU)
 The electronic state is 1-AG.
 Alpha  occ. eigenvalues --   -0.87748  -0.74518  -0.52647  -0.46825  -0.31173
 Alpha virt. eigenvalues --   -0.01351   0.15393   0.36699   0.51348   0.90068
          Condensed to atoms (all electrons):
               1          2          3          4          5          6
     1  H    0.824729  -0.051758   0.453864  -0.165881  -0.018023  -0.066319
     2  H   -0.051758   0.778704  -0.155463   0.446037  -0.055060  -0.012280
     3  H    0.453864  -0.155463   1.043221  -0.374201   0.216072  -0.117813
     4  H   -0.165881   0.446037  -0.374201   1.036793  -0.100185   0.222947
     5  H   -0.018023  -0.055060   0.216072  -0.100185   0.849454   0.095253
     6  H   -0.066319  -0.012280  -0.117813   0.222947   0.095253   0.849454
     7  H   -0.012587   0.006235  -0.044386   0.018233   0.222947  -0.100185
     8  H    0.006957  -0.012122   0.017637  -0.044386  -0.117813   0.216072
     9  H   -0.000638   0.002302  -0.012122   0.006235  -0.012280  -0.055060
    10  H    0.002879  -0.000638   0.006957  -0.012587  -0.066319  -0.018023
               7          8          9         10
     1  H   -0.012587   0.006957  -0.000638   0.002879
     2  H    0.006235  -0.012122   0.002302  -0.000638
     3  H   -0.044386   0.017637  -0.012122   0.006957
     4  H    0.018233  -0.044386   0.006235  -0.012587
     5  H    0.222947  -0.117813  -0.012280  -0.066319
     6  H   -0.100185   0.216072  -0.055060  -0.018023
     7  H    1.036793  -0.374201   0.446037  -0.165881
     8  H   -0.374201   1.043221  -0.155463   0.453864
     9  H    0.446037  -0.155463   0.778704  -0.051758
    10  H   -0.165881   0.453864  -0.051758   0.824729
 Mulliken charges:
               1
     1  H    0.026776
     2  H    0.054043
     3  H   -0.033767
     4  H   -0.033006
     5  H   -0.014046
     6  H   -0.014046
     7  H   -0.033006
     8  H   -0.033767
     9  H    0.054043
    10  H    0.026776
 Sum of Mulliken charges =  -0.00000
 Mulliken charges with hydrogens summed into heavy atoms:
               1
 Electronic spatial extent (au):  <R**2>=            122.9054
 Charge=             -0.0000 electrons
 Dipole moment (field-independent basis, Debye):
    X=             -0.0000    Y=              0.0000    Z=              0.0000  Tot=              0.0000
 Quadrupole moment (field-independent basis, Debye-Ang):
   XX=            -10.0787   YY=            -17.3689   ZZ=            -12.9547
   XY=             -0.6438   XZ=             -0.0000   YZ=              0.0000
 Traceless Quadrupole moment (field-independent basis, Debye-Ang):
   XX=              3.3887   YY=             -3.9015   ZZ=              0.5128
   XY=             -0.6438   XZ=             -0.0000   YZ=              0.0000
 Octapole moment (field-independent basis, Debye-Ang**2):
  XXX=             -0.0000  YYY=             -0.0000  ZZZ=             -0.0000  XYY=             -0.0000
  XXY=             -0.0000  XXZ=             -0.0000  XZZ=             -0.0000  YZZ=             -0.0000
  YYZ=             -0.0000  XYZ=             -0.0000
 Hexadecapole moment (field-independent basis, Debye-Ang**3):
 XXXX=           -161.4241 YYYY=            -50.4289 ZZZZ=            -15.6433 XXXY=             -0.4030
 XXXZ=              0.0000 YYYX=              4.2237 YYYZ=             -0.0000 ZZZX=              0.0000
 ZZZY=             -0.0000 XXYY=            -47.3398 XXZZ=            -35.1808 YYZZ=            -10.7578
 XXYZ=              0.0000 YYXZ=              0.0000 ZZXY=              1.1654
 N-N= 1.374728528596D+01 E-N=-3.650641218662D+01  KE= 5.098471252362D+00
 Symmetry AG   KE= 3.158904278164D+00
 Symmetry BG   KE= 0.000000000000D+00
 Symmetry AU   KE= 0.000000000000D+00
 Symmetry BU   KE= 1.939566974198D+00
 Range of M.O.s used for correlation:     1    10
 NBasis=    10 NAE=     5 NBE=     5 NFC=     0 NFV=     0
 NROrb=     10 NOA=     5 NOB=     5 NVA=     5 NVB=     5
 Keep R1 and R2 ints in memory in symmetry-blocked form, NReq=802982.
 Orbital symmetries:
       Occupied  (AG) (BU) (AG) (BU) (AG)
       Virtual   (BU) (BU) (AG) (AG) (BU)
    24 initial guesses have been made.
 Convergence on wavefunction:    0.001000000000000
 Iteration     1 Dimension    24 NMult     0 NNew     24
 CISAX will form    24 AO SS matrices at one time.
 New state      1 was old state      2
 Iteration     2 Dimension    48 NMult    24 NNew     24
 Iteration     3 Dimension    50 NMult    48 NNew      2
 Cease iterating as an instability has been found.
 ***********************************************************************
 Stability analysis using <AA,BB:AA,BB> singles matrix:
 ***********************************************************************

 Eigenvectors of the stability matrix:
 
 Eigenvector   1:      Triplet-BU   Eigenvalue=-0.1347258  <S**2>=2.000
       2 ->  9         0.11533
       3 ->  7        -0.20007
       4 ->  8        -0.17951
       5 ->  6         0.63878
 
 Eigenvector   2:      Triplet-AG   Eigenvalue= 0.0375708  <S**2>=2.000
       2 ->  7         0.10656
       4 ->  6         0.61930
       5 ->  8        -0.29454
 
 Eigenvector   3:      Triplet-BU   Eigenvalue= 0.0388506  <S**2>=2.000
       1 ->  6         0.10507
       2 ->  8        -0.10889
       3 ->  6        -0.36703
       4 ->  9         0.15477
       5 ->  7         0.56002
 
 Eigenvector   4:      Singlet-BU   Eigenvalue= 0.0733644  <S**2>=0.000
       5 ->  6         0.69496
 
 Eigenvector   5:      Singlet-BU   Eigenvalue= 0.1704824  <S**2>=0.000
       3 ->  6         0.47408
       5 ->  7         0.51363
 
 Eigenvector   6:      Singlet-AG   Eigenvalue= 0.2234615  <S**2>=0.000
       4 ->  6         0.70410
 SavETr:  write IOETrn=   770 NScale= 10 NData=  16 NLR=1 NState=    6 LETran=     118.
 The wavefunction has an RHF -> UHF instability.
 Keep R1 and R2 ints in memory in symmetry-blocked form, NReq=860738.
 The two search directions are symmetric.
 Gradient too large for Newton-Raphson -- use scaled steepest descent instead.
 Gradient too large for Newton-Raphson -- use scaled steepest descent instead.
 LinEq1:  Iter=  0 NonCon=     1 RMS=9.66D-04 Max=3.57D-03 NDo=     1
 AX will form     1 AO Fock derivatives at one time.
 LinEq1:  Iter=  1 NonCon=     1 RMS=3.58D-04 Max=1.12D-03 NDo=     1
 LinEq1:  Iter=  2 NonCon=     1 RMS=4.68D-05 Max=1.18D-04 NDo=     1
 LinEq1:  Iter=  3 NonCon=     1 RMS=5.26D-06 Max=1.85D-05 NDo=     1
 LinEq1:  Iter=  4 NonCon=     1 RMS=7.52D-07 Max=1.82D-06 NDo=     1
 LinEq1:  Iter=  5 NonCon=     1 RMS=7.92D-08 Max=2.04D-07 NDo=     1
 LinEq1:  Iter=  6 NonCon=     1 RMS=1.00D-08 Max=2.37D-08 NDo=     1
 LinEq1:  Iter=  7 NonCon=     1 RMS=1.33D-09 Max=3.65D-09 NDo=     1
 LinEq1:  Iter=  8 NonCon=     0 RMS=1.22D-10 Max=4.30D-10 NDo=     1
 Linear equations converged to 1.000D-09 1.000D-08 after     8 iterations.
     Accept linear search using points  1 and  2.
     Minimum is close to point  2 DX= -1.44D-03 DF= -1.38D-10 DXR=  1.44D-03 DFR=  2.08D-06 which will be used.
 LinEq1:  Iter=  0 NonCon=     1 RMS=4.59D-06 Max=1.15D-05 NDo=     1
 LinEq1:  Iter=  1 NonCon=     1 RMS=1.31D-06 Max=3.32D-06 NDo=     1
 LinEq1:  Iter=  2 NonCon=     1 RMS=2.35D-07 Max=5.49D-07 NDo=     1
 LinEq1:  Iter=  3 NonCon=     1 RMS=2.47D-08 Max=7.97D-08 NDo=     1
 LinEq1:  Iter=  4 NonCon=     1 RMS=3.67D-09 Max=8.61D-09 NDo=     1
 LinEq1:  Iter=  5 NonCon=     1 RMS=4.11D-10 Max=1.03D-09 NDo=     1
 LinEq1:  Iter=  6 NonCon=     0 RMS=5.52D-11 Max=1.43D-10 NDo=     1
 Linear equations converged to 2.915D-10 2.915D-09 after     6 iterations.
 Density matrix breaks symmetry, PCut= 1.00D-04
 Density matrix has no symmetry -- integrals replicated.
 Density matrix is not symmetric, so final MOs not symmetrized.
 SCF Done:  E(UHF) =  -4.96164860764     a.u. after    5 cycles
            Convg  =    0.6331D-08                    37 Fock formations.
              S**2 =  1.3769                  -V/T =  1.9333
 <Sx>= 0.0000 <Sy>= 0.0000 <Sz>= 0.0000 <S**2>= 1.3769 S= 0.7755
 <L.S>= 0.000000000000E+00
 Annihilation of the first spin contaminant:
 S**2 before annihilation     1.3769,   after     2.9324
 Range of M.O.s used for correlation:     1    10
 NBasis=    10 NAE=     5 NBE=     5 NFC=     0 NFV=     0
 NROrb=     10 NOA=     5 NOB=     5 NVA=     5 NVB=     5
 Keep R1 and R2 ints in memory in symmetry-blocked form, NReq=802982.
 Orbital symmetries:
 Alpha Orbitals:
       Occupied  (BG) (BG) (BG) (BG) (BG)
       Virtual   (BG) (BG) (BG) (BG) (BG)
 Beta  Orbitals:
       Occupied  (BG) (BG) (BG) (BG) (BG)
       Virtual   (BG) (BG) (BG) (BG) (BG)
    12 initial guesses have been made.
 Convergence on wavefunction:    0.001000000000000
 Iteration     1 Dimension    12 NMult     0 NNew     12
 CISAX will form    12 AO SS matrices at one time.
 New state      1 was old state      2
 Iteration     2 Dimension    24 NMult    12 NNew     12
 Iteration     3 Dimension    27 NMult    24 NNew      3
 Iteration     4 Dimension    30 NMult    27 NNew      3
 Iteration     5 Dimension    33 NMult    30 NNew      3
 ***********************************************************************
 Stability analysis using <AA,BB:AA,BB> singles matrix:
 ***********************************************************************

 Eigenvectors of the stability matrix:
 
 Eigenvector   1:  1.967-AG   Eigenvalue= 0.1449823  <S**2>=0.717
      4A ->  7A        0.22697
      5A ->  6A        0.65899
      4B ->  7B       -0.22697
      5B ->  6B       -0.65899
 SavETr:  write IOETrn=   770 NScale= 10 NData=  16 NLR=1 NState=    1 LETran=      28.
 The wavefunction is stable under the perturbations considered.
 The wavefunction is already stable.

 **********************************************************************

            Population analysis using the SCF density.

 **********************************************************************

 Orbital symmetries:
 Alpha Orbitals:
       Occupied  (BG) (BG) (BG) (BG) (BG)
       Virtual   (BG) (BG) (BG) (BG) (BG)
 Beta  Orbitals:
       Occupied  (BG) (BG) (BG) (BG) (BG)
       Virtual   (BG) (BG) (BG) (BG) (BG)
 Unable to determine electronic state:  partially filled degenerate orbitals.
 Alpha  occ. eigenvalues --   -0.87351  -0.74987  -0.55777  -0.45609  -0.39026
 Alpha virt. eigenvalues --    0.07129   0.19888   0.37687   0.52751   0.91390
  Beta  occ. eigenvalues --   -0.87351  -0.74987  -0.55777  -0.45609  -0.39026
  Beta virt. eigenvalues --    0.07129   0.19888   0.37687   0.52751   0.91390
          Condensed to atoms (all electrons):
               1          2          3          4          5          6
     1  H    0.906043   0.133062   0.167064  -0.168574  -0.016501  -0.052363
     2  H    0.133062   0.886063  -0.161183   0.158593  -0.041612  -0.017028
     3  H    0.167064  -0.161183   1.091071  -0.086836   0.211121  -0.120393
     4  H   -0.168574   0.158593  -0.086836   1.078088  -0.114937   0.223057
     5  H   -0.016501  -0.041612   0.211121  -0.114937   0.917286   0.012964
     6  H   -0.052363  -0.017028  -0.120393   0.223057   0.012964   0.917286
     7  H    0.001374   0.006491  -0.040688  -0.031617   0.223057  -0.114937
     8  H    0.007033   0.001884  -0.038767  -0.040688  -0.120393   0.211121
     9  H   -0.000757   0.000499   0.001884   0.006491  -0.017028  -0.041612
    10  H    0.000761  -0.000757   0.007033   0.001374  -0.052363  -0.016501
               7          8          9         10
     1  H    0.001374   0.007033  -0.000757   0.000761
     2  H    0.006491   0.001884   0.000499  -0.000757
     3  H   -0.040688  -0.038767   0.001884   0.007033
     4  H   -0.031617  -0.040688   0.006491   0.001374
     5  H    0.223057  -0.120393  -0.017028  -0.052363
     6  H   -0.114937   0.211121  -0.041612  -0.016501
     7  H    1.078088  -0.086836   0.158593  -0.168574
     8  H   -0.086836   1.091071  -0.161183   0.167064
     9  H    0.158593  -0.161183   0.886063   0.133062
    10  H   -0.168574   0.167064   0.133062   0.906043
          Atomic-Atomic Spin Densities.
               1          2          3          4          5          6
     1  H    0.751035   0.011095   0.005934  -0.168666  -0.011484  -0.004036
     2  H    0.011095  -0.742612   0.157864  -0.030489  -0.000098   0.011182
     3  H    0.005934   0.157864  -0.869469  -0.001406   0.021469   0.080324
     4  H   -0.168666  -0.030489  -0.001406   0.867004  -0.076345   0.016580
     5  H   -0.011484  -0.000098   0.021469  -0.076345   0.577612   0.000000
     6  H   -0.004036   0.011182   0.080324   0.016580   0.000000  -0.577612
     7  H   -0.000311  -0.008869   0.059967   0.000000  -0.016580   0.076345
     8  H    0.010398   0.000950   0.000000  -0.059967  -0.080324  -0.021469
     9  H   -0.001425   0.000000  -0.000950   0.008869  -0.011182   0.000098
    10  H   -0.000000   0.001425  -0.010398   0.000311   0.004036   0.011484
               7          8          9         10
     1  H   -0.000311   0.010398  -0.001425  -0.000000
     2  H   -0.008869   0.000950   0.000000   0.001425
     3  H    0.059967   0.000000  -0.000950  -0.010398
     4  H    0.000000  -0.059967   0.008869   0.000311
     5  H   -0.016580  -0.080324  -0.011182   0.004036
     6  H    0.076345  -0.021469   0.000098   0.011484
     7  H   -0.867004   0.001406   0.030489   0.168666
     8  H    0.001406   0.869469  -0.157864  -0.005934
     9  H    0.030489  -0.157864   0.742612  -0.011095
    10  H    0.168666  -0.005934  -0.011095  -0.751035
 Mulliken charges and spin densities:
               1          2
     1  H    0.022859   0.592541
     2  H    0.033989  -0.599552
     3  H   -0.030305  -0.556665
     4  H   -0.024950   0.555890
     5  H   -0.001593   0.407104
     6  H   -0.001593  -0.407104
     7  H   -0.024950  -0.555890
     8  H   -0.030305   0.556665
     9  H    0.033989   0.599552
    10  H    0.022859  -0.592541
 Sum of Mulliken charges =  -0.00000  -0.00000
 Mulliken charges and spin densities with hydrogens summed into heavy atoms:
               1          2
 Electronic spatial extent (au):  <R**2>=            123.5774
 Charge=             -0.0000 electrons
 Dipole moment (field-independent basis, Debye):
    X=              0.0000    Y=             -0.0000    Z=              0.0000  Tot=              0.0000
 Quadrupole moment (field-independent basis, Debye-Ang):
   XX=            -12.9637   YY=            -15.5516   ZZ=            -12.7907
   XY=             -0.3199   XZ=              0.0000   YZ=              0.0000
 Traceless Quadrupole moment (field-independent basis, Debye-Ang):
   XX=              0.8050   YY=             -1.7829   ZZ=              0.9780
   XY=             -0.3199   XZ=              0.0000   YZ=              0.0000
 Octapole moment (field-independent basis, Debye-Ang**2):
  XXX=              0.0000  YYY=             -0.0000  ZZZ=             -0.0000  XYY=             -0.0000
  XXY=             -0.0000  XXZ=             -0.0000  XZZ=             -0.0000  YZZ=             -0.0000
  YYZ=             -0.0000  XYZ=             -0.0000
 Hexadecapole moment (field-independent basis, Debye-Ang**3):
 XXXX=           -204.0386 YYYY=            -45.7733 ZZZZ=            -15.3359 XXXY=              2.6267
 XXXZ=              0.0000 YYYX=              3.9385 YYYZ=             -0.0000 ZZZX=              0.0000
 ZZZY=             -0.0000 XXYY=            -43.0702 XXZZ=            -35.7399 YYZZ=            -10.0295
 XXYZ=             -0.0000 YYXZ=              0.0000 ZZXY=              1.2392
 N-N= 1.374728528596D+01 E-N=-3.667909742415D+01  KE= 5.316211158003D+00
 Symmetry AG   KE= 2.533662479103D+00
 Symmetry BG   KE= 0.000000000000D+00
 Symmetry AU   KE= 0.000000000000D+00
 Symmetry BU   KE= 2.782548678900D+00
                          Isotropic Fermi Contact Couplings
        Atom                 a.u.       MegaHertz       Gauss      10(-4) cm-1
     1  H(1)               0.21670     484.31319     172.81498     161.54949
     2  H(1)              -0.21636    -483.54084    -172.53939    -161.29186
     3  H(1)              -0.23949    -535.24837    -190.98992    -178.53964
     4  H(1)               0.23906     534.29074     190.64821     178.22021
     5  H(1)               0.16182     361.66437     129.05084     120.63825
     6  H(1)              -0.16182    -361.66437    -129.05084    -120.63825
     7  H(1)              -0.23906    -534.29074    -190.64821    -178.22021
     8  H(1)               0.23949     535.24837     190.98992     178.53964
     9  H(1)               0.21636     483.54084     172.53939     161.29186
    10  H(1)              -0.21670    -484.31319    -172.81498    -161.54949
 --------------------------------------------------------
       Center         ----  Spin Dipole Couplings  ----
                      3XX-RR        3YY-RR        3ZZ-RR
 --------------------------------------------------------
     1   Atom       -0.036377     -0.036807      0.073184
     2   Atom        0.035601      0.037336     -0.072937
     3   Atom        0.095510     -0.000219     -0.095291
     4   Atom       -0.092005     -0.002359      0.094365
     5   Atom       -0.126794      0.040531      0.086262
     6   Atom        0.126794     -0.040531     -0.086262
     7   Atom        0.092005      0.002359     -0.094365
     8   Atom       -0.095510      0.000219      0.095291
     9   Atom       -0.035601     -0.037336      0.072937
    10   Atom        0.036377      0.036807     -0.073184
 --------------------------------------------------------
                        XY            XZ            YZ
 --------------------------------------------------------
     1   Atom        0.038664      0.000000     -0.000000
     2   Atom        0.027957     -0.000000     -0.000000
     3   Atom        0.003147     -0.000000     -0.000000
     4   Atom        0.023515      0.000000      0.000000
     5   Atom        0.012588      0.000000     -0.000000
     6   Atom       -0.012588     -0.000000     -0.000000
     7   Atom       -0.023515     -0.000000      0.000000
     8   Atom       -0.003147      0.000000      0.000000
     9   Atom       -0.027957      0.000000      0.000000
    10   Atom       -0.038664     -0.000000      0.000000
 --------------------------------------------------------


 ---------------------------------------------------------------------------------
              Anisotropic Spin Dipole Couplings in Principal Axis System
 ---------------------------------------------------------------------------------

       Atom             a.u.   MegaHertz   Gauss  10(-4) cm-1        Axes

              Baa    -0.0753   -40.153   -14.328   -13.394 -0.7051  0.7091  0.0000
     1 H(1)   Bbb     0.0021     1.106     0.394     0.369  0.7091  0.7051  0.0000
              Bcc     0.0732    39.048    13.933    13.025  0.0000  0.0000  1.0000
 
              Baa    -0.0729   -38.916   -13.886   -12.981  0.0000  0.0000  1.0000
     2 H(1)   Bbb     0.0085     4.534     1.618     1.513  0.7180 -0.6961  0.0000
              Bcc     0.0644    34.381    12.268    11.468  0.6961  0.7180  0.0000
 
              Baa    -0.0953   -50.843   -18.142   -16.959  0.0000  0.0000  1.0000
     3 H(1)   Bbb    -0.0003    -0.172    -0.061    -0.057 -0.0328  0.9995 -0.0000
              Bcc     0.0956    51.015    18.203    17.017  0.9995  0.0328  0.0000
 
              Baa    -0.0978   -52.181   -18.619   -17.406  0.9710 -0.2392  0.0000
     4 H(1)   Bbb     0.0034     1.832     0.654     0.611  0.2392  0.9710 -0.0000
              Bcc     0.0944    50.349    17.966    16.794  0.0000  0.0000  1.0000
 
              Baa    -0.1277   -68.153   -24.319   -22.734  0.9972 -0.0746  0.0000
     5 H(1)   Bbb     0.0415    22.128     7.896     7.381  0.0746  0.9972  0.0000
              Bcc     0.0863    46.025    16.423    15.352  0.0000  0.0000  1.0000
 
              Baa    -0.0863   -46.025   -16.423   -15.352  0.0000  0.0000  1.0000
     6 H(1)   Bbb    -0.0415   -22.128    -7.896    -7.381  0.0746  0.9972 -0.0000
              Bcc     0.1277    68.153    24.319    22.734  0.9972 -0.0746  0.0000
 
              Baa    -0.0944   -50.349   -17.966   -16.794  0.0000  0.0000  1.0000
     7 H(1)   Bbb    -0.0034    -1.832    -0.654    -0.611  0.2392  0.9710  0.0000
              Bcc     0.0978    52.181    18.619    17.406  0.9710 -0.2392  0.0000
 
              Baa    -0.0956   -51.015   -18.203   -17.017  0.9995  0.0328  0.0000
     8 H(1)   Bbb     0.0003     0.172     0.061     0.057 -0.0328  0.9995  0.0000
              Bcc     0.0953    50.843    18.142    16.959  0.0000  0.0000  1.0000
 
              Baa    -0.0644   -34.381   -12.268   -11.468  0.6961  0.7180  0.0000
     9 H(1)   Bbb    -0.0085    -4.534    -1.618    -1.513  0.7180 -0.6961  0.0000
              Bcc     0.0729    38.916    13.886    12.981  0.0000  0.0000  1.0000
 
              Baa    -0.0732   -39.048   -13.933   -13.025  0.0000  0.0000  1.0000
    10 H(1)   Bbb    -0.0021    -1.106    -0.394    -0.369  0.7091  0.7051  0.0000
              Bcc     0.0753    40.153    14.328    13.394 -0.7051  0.7091  0.0000
 

 ---------------------------------------------------------------------------------


 Test job not archived.
 1\1\GINC-SULU\Stability\UHF\Gen\H10\LCJ1\22-Feb-2017\0\\#rhf/gen scf(s
 ymm,tight,novaracc,noincfock,fulldiag) stable=opt guess=read geom=nocr
 owd test\\hf stability analysis of h10 triangular lattice, y= 0.743433
 02899055930\\0,1\H\H,1,1.0750816724\H,1,1.0750816724,2,92.5\H,2,1.0750
 816724,1,87.5,3,0.,0\H,3,1.0750816724,1,180.,2,0.,0\H,4,1.0750816724,2
 ,180.,1,0.,0\H,5,1.0750816724,3,180.,2,0.,0\H,6,1.0750816724,4,180.,1,
 0.,0\H,7,1.0750816724,5,180.,2,0.,0\H,8,1.0750816724,6,180.,1,0.,0\\Ve
 rsion=ES64L-G09RevE.01\State=1-AG\HF=-4.9616486\S2=1.376867\S2-1=0.\S2
 A=2.932359\RMSD=3.865e-09\Dipole=0.,0.,0.\Quadrupole=0.5984614,0.72711
 6,-1.3255774,0.,-0.2378288,0.\PG=C02H [SGH(H10)]\\@


 THERE'S NOTHING SO GREAT AS THE GREAT OUTDOORS.

                                       -- ZIGGY
 Job cpu time:       0 days  0 hours  0 minutes  1.2 seconds.
 File lengths (MBytes):  RWF=     77 Int=      0 D2E=      0 Chk=      2 Scr=      2
 Normal termination of Gaussian 09 at Wed Feb 22 12:37:30 2017.
