 Entering Gaussian System, Link 0=g09
 AtFile(1): H.gbs
            H     0
            S   10   1.00
               1000.000000000000            0.000068713567
                316.227766000000            0.000169141320
                100.000000000000            0.000823394812
                 31.622776600000            0.003425569236
                 10.000000000000            0.013951996000
                  3.162277660000            0.056909313560
                  1.000000000000            0.198286399900
                  0.316227766000            0.496922426700
                  0.100000000000            0.369846276400
                  0.031622776600            0.003752720039
            ****
 Initial command:
 /projects/guscus/apps/gau/g09-e1/g09/l1.exe "/users/lcj1/gaussian/h10/2rows_uhf/ag3bu2/Gau-4191.inp" -scrdir="/users/lcj1/gaussian/h10/2rows_uhf/ag3bu2/"
 Entering Link 1 = /projects/guscus/apps/gau/g09-e1/g09/l1.exe PID=      4192.
  
 Copyright (c) 1988,1990,1992,1993,1995,1998,2003,2009,2015,
            Gaussian, Inc.  All Rights Reserved.
  
 This is part of the Gaussian(R) 09 program.  It is based on
 the Gaussian(R) 03 system (copyright 2003, Gaussian, Inc.),
 the Gaussian(R) 98 system (copyright 1998, Gaussian, Inc.),
 the Gaussian(R) 94 system (copyright 1995, Gaussian, Inc.),
 the Gaussian 92(TM) system (copyright 1992, Gaussian, Inc.),
 the Gaussian 90(TM) system (copyright 1990, Gaussian, Inc.),
 the Gaussian 88(TM) system (copyright 1988, Gaussian, Inc.),
 the Gaussian 86(TM) system (copyright 1986, Carnegie Mellon
 University), and the Gaussian 82(TM) system (copyright 1983,
 Carnegie Mellon University). Gaussian is a federally registered
 trademark of Gaussian, Inc.
  
 This software contains proprietary and confidential information,
 including trade secrets, belonging to Gaussian, Inc.
  
 This software is provided under written license and may be
 used, copied, transmitted, or stored only in accord with that
 written license.
  
 The following legend is applicable only to US Government
 contracts under FAR:
  
                    RESTRICTED RIGHTS LEGEND
  
 Use, reproduction and disclosure by the US Government is
 subject to restrictions as set forth in subparagraphs (a)
 and (c) of the Commercial Computer Software - Restricted
 Rights clause in FAR 52.227-19.
  
 Gaussian, Inc.
 340 Quinnipiac St., Bldg. 40, Wallingford CT 06492
  
  
 ---------------------------------------------------------------
 Warning -- This program may not be used in any manner that
 competes with the business of Gaussian, Inc. or will provide
 assistance to any competitor of Gaussian, Inc.  The licensee
 of this program is prohibited from giving any competitor of
 Gaussian, Inc. access to this program.  By using this program,
 the user acknowledges that Gaussian, Inc. is engaged in the
 business of creating and licensing software in the field of
 computational chemistry and represents and warrants to the
 licensee that it is not a competitor of Gaussian, Inc. and that
 it will not use this program in any manner prohibited above.
 ---------------------------------------------------------------
  

 Cite this work as:
 Gaussian 09, Revision E.01,
 M. J. Frisch, G. W. Trucks, H. B. Schlegel, G. E. Scuseria, 
 M. A. Robb, J. R. Cheeseman, G. Scalmani, V. Barone, B. Mennucci, 
 G. A. Petersson, H. Nakatsuji, M. Caricato, X. Li, H. P. Hratchian, 
 A. F. Izmaylov, J. Bloino, G. Zheng, J. L. Sonnenberg, M. Hada, 
 M. Ehara, K. Toyota, R. Fukuda, J. Hasegawa, M. Ishida, T. Nakajima, 
 Y. Honda, O. Kitao, H. Nakai, T. Vreven, J. A. Montgomery, Jr., 
 J. E. Peralta, F. Ogliaro, M. Bearpark, J. J. Heyd, E. Brothers, 
 K. N. Kudin, V. N. Staroverov, T. Keith, R. Kobayashi, J. Normand, 
 K. Raghavachari, A. Rendell, J. C. Burant, S. S. Iyengar, J. Tomasi, 
 M. Cossi, N. Rega, J. M. Millam, M. Klene, J. E. Knox, J. B. Cross, 
 V. Bakken, C. Adamo, J. Jaramillo, R. Gomperts, R. E. Stratmann, 
 O. Yazyev, A. J. Austin, R. Cammi, C. Pomelli, J. W. Ochterski, 
 R. L. Martin, K. Morokuma, V. G. Zakrzewski, G. A. Voth, 
 P. Salvador, J. J. Dannenberg, S. Dapprich, A. D. Daniels, 
 O. Farkas, J. B. Foresman, J. V. Ortiz, J. Cioslowski, 
 and D. J. Fox, Gaussian, Inc., Wallingford CT, 2013.
 
 ******************************************
 Gaussian 09:  ES64L-G09RevE.01 30-Nov-2015
                22-Feb-2017 
 ******************************************
 %chk=h10.chk
 ----------------------------------------------------------------------
 #rhf/gen scf(symm,tight,novaracc,noincfock,fulldiag) stable=opt guess=
 read geom=nocrowd test
 ----------------------------------------------------------------------
 1/38=1/1;
 2/12=1,17=6,18=5,40=1/2;
 3/5=7,11=2,16=1,25=1,30=1,116=1/1,2,3;
 4/5=1,9=4/1;
 5/5=100002,15=2,16=1,32=2,38=6/2;
 6/7=2,8=2,9=2,10=2,28=1/1;
 8/6=1,10=90,11=11/1;
 9/8=-3,42=1,46=1/14;
 5/5=100002,8=3,16=1,17=40,32=2,38=6/8(-2);
 6/7=2,8=2,9=2,10=2,28=1/1;
 99/5=1,9=1/99;
 ----------------------------------------------------------------------
 hf stability analysis of h10 triangular lattice, y= 0.8753112166669652
 1
 ----------------------------------------------------------------------
 Symbolic Z-matrix:
 Charge =  0 Multiplicity = 1
 H
 H                    1     1.09601 
 H                    1     1.09601  2     74. 
 H                    2     1.09601  1     106.     3     0.       0
 H                    3     1.09601  1     180.     2     0.       0
 H                    4     1.09601  2     180.     1     0.       0
 H                    5     1.09601  3     180.     2     0.       0
 H                    6     1.09601  4     180.     1     0.       0
 H                    7     1.09601  5     180.     2     0.       0
 H                    8     1.09601  6     180.     1     0.       0
 
                          Input orientation:                          
 ---------------------------------------------------------------------
 Center     Atomic      Atomic             Coordinates (Angstroms)
 Number     Number       Type             X           Y           Z
 ---------------------------------------------------------------------
      1          1           0        0.000000    0.000000    0.000000
      2          1           0        0.000000    0.000000    1.096008
      3          1           0        1.053551    0.000000    0.302101
      4          1           0        1.053551    0.000000    1.398109
      5          1           0        2.107102    0.000000    0.604202
      6          1           0        2.107102    0.000000    1.700210
      7          1           0        3.160653    0.000000    0.906303
      8          1           0        3.160653    0.000000    2.002311
      9          1           0        4.214203    0.000000    1.208403
     10          1           0        4.214203    0.000000    2.304412
 ---------------------------------------------------------------------
                    Distance matrix (angstroms):
                    1          2          3          4          5
     1  H    0.000000
     2  H    1.096008   0.000000
     3  H    1.096008   1.319189   0.000000
     4  H    1.750622   1.096008   1.096008   0.000000
     5  H    2.192017   2.163736   1.096008   1.319189   0.000000
     6  H    2.707507   2.192017   1.750622   1.096008   1.096008
     7  H    3.288025   3.166341   2.192017   2.163736   1.096008
     8  H    3.741520   3.288025   2.707507   2.192017   1.750622
     9  H    4.384033   4.215702   3.288025   3.166341   2.192017
    10  H    4.803106   4.384033   3.741520   3.288025   2.707507
                    6          7          8          9         10
     6  H    0.000000
     7  H    1.319189   0.000000
     8  H    1.096008   1.096008   0.000000
     9  H    2.163736   1.096008   1.319189   0.000000
    10  H    2.192017   1.750622   1.096008   1.096008   0.000000
 Stoichiometry    H10
 Framework group  C2H[SGH(H10)]
 Deg. of freedom     9
 Full point group                 C2H     NOp   4
 Largest Abelian subgroup         C2H     NOp   4
 Largest concise Abelian subgroup C2      NOp   2
                         Standard orientation:                         
 ---------------------------------------------------------------------
 Center     Atomic      Atomic             Coordinates (Angstroms)
 Number     Number       Type             X           Y           Z
 ---------------------------------------------------------------------
      1          1           0        2.107102    1.152206   -0.000000
      2          1           0        2.107102    0.056198   -0.000000
      3          1           0        1.053551    0.850105   -0.000000
      4          1           0        1.053551   -0.245903   -0.000000
      5          1           0        0.000000    0.548004    0.000000
      6          1           0       -0.000000   -0.548004    0.000000
      7          1           0       -1.053551    0.245903   -0.000000
      8          1           0       -1.053551   -0.850105   -0.000000
      9          1           0       -2.107102   -0.056198   -0.000000
     10          1           0       -2.107102   -1.152206   -0.000000
 ---------------------------------------------------------------------
 Rotational constants (GHZ):    182.6471445     20.6510655     18.5533269
 General basis read from cards:  (5D, 7F)
 There are     5 symmetry adapted cartesian basis functions of AG  symmetry.
 There are     0 symmetry adapted cartesian basis functions of BG  symmetry.
 There are     0 symmetry adapted cartesian basis functions of AU  symmetry.
 There are     5 symmetry adapted cartesian basis functions of BU  symmetry.
 There are     5 symmetry adapted basis functions of AG  symmetry.
 There are     0 symmetry adapted basis functions of BG  symmetry.
 There are     0 symmetry adapted basis functions of AU  symmetry.
 There are     5 symmetry adapted basis functions of BU  symmetry.
    10 basis functions,   100 primitive gaussians,    10 cartesian basis functions
     5 alpha electrons        5 beta electrons
       nuclear repulsion energy        13.5968636735 Hartrees.
 NAtoms=   10 NActive=   10 NUniq=    5 SFac= 4.00D+00 NAtFMM=   60 NAOKFM=F Big=F
 Integral buffers will be    131072 words long.
 Raffenetti 2 integral format.
 Two-electron integral symmetry is turned on.
 One-electron integrals computed using PRISM.
 NBasis=    10 RedAO= T EigKep=  1.40D-01  NBF=     5     0     0     5
 NBsUse=    10 1.00D-06 EigRej= -1.00D+00 NBFU=     5     0     0     5
 Initial guess from the checkpoint file:  "h10.chk"
 B after Tr=     0.000000    0.000000   -0.000000
         Rot=    0.962300   -0.000000    0.000000    0.271990 Ang=  31.57 deg.
 Initial guess orbital symmetries:
       Occupied  (AG) (BU) (AG) (BU) (AG)
       Virtual   (BU) (BU) (AG) (BU) (AG)
 Keep R1 ints in memory in symmetry-blocked form, NReq=879371.
 Requested convergence on RMS density matrix=1.00D-08 within 128 cycles.
 Requested convergence on MAX density matrix=1.00D-06.
 Requested convergence on             energy=1.00D-06.
 No special actions if energy rises.
 SCF Done:  E(RHF) =  -4.84944513070     A.U. after   15 cycles
            NFock= 15  Conv=0.96D-09     -V/T= 1.9480

 **********************************************************************

            Population analysis using the SCF density.

 **********************************************************************

 Orbital symmetries:
       Occupied  (AG) (BU) (AG) (BU) (AG)
       Virtual   (BU) (BU) (AG) (AG) (BU)
 The electronic state is 1-AG.
 Alpha  occ. eigenvalues --   -0.86860  -0.73990  -0.52974  -0.44782  -0.29170
 Alpha virt. eigenvalues --   -0.03364   0.17839   0.32054   0.53394   0.78961
          Condensed to atoms (all electrons):
               1          2          3          4          5          6
     1  H    0.688747  -0.072720   0.427616  -0.133721   0.005523  -0.031240
     2  H   -0.072720   0.976125  -0.196463   0.476568  -0.104571  -0.032080
     3  H    0.427616  -0.196463   1.014075  -0.365634   0.238075  -0.060393
     4  H   -0.133721   0.476568  -0.365634   1.075657  -0.176711   0.196224
     5  H    0.005523  -0.104571   0.238075  -0.176711   0.865907   0.106300
     6  H   -0.031240  -0.032080  -0.060393   0.196224   0.106300   0.865907
     7  H   -0.009462   0.008209  -0.038781   0.008675   0.196224  -0.176711
     8  H    0.004046  -0.012234   0.015593  -0.038781  -0.060393   0.238075
     9  H   -0.000639   0.004617  -0.012234   0.008209  -0.032080  -0.104571
    10  H    0.001081  -0.000639   0.004046  -0.009462  -0.031240   0.005523
               7          8          9         10
     1  H   -0.009462   0.004046  -0.000639   0.001081
     2  H    0.008209  -0.012234   0.004617  -0.000639
     3  H   -0.038781   0.015593  -0.012234   0.004046
     4  H    0.008675  -0.038781   0.008209  -0.009462
     5  H    0.196224  -0.060393  -0.032080  -0.031240
     6  H   -0.176711   0.238075  -0.104571   0.005523
     7  H    1.075657  -0.365634   0.476568  -0.133721
     8  H   -0.365634   1.014075  -0.196463   0.427616
     9  H    0.476568  -0.196463   0.976125  -0.072720
    10  H   -0.133721   0.427616  -0.072720   0.688747
 Mulliken charges:
               1
     1  H    0.120770
     2  H   -0.046813
     3  H   -0.025900
     4  H   -0.041024
     5  H   -0.007033
     6  H   -0.007033
     7  H   -0.041024
     8  H   -0.025900
     9  H   -0.046813
    10  H    0.120770
 Sum of Mulliken charges =  -0.00000
 Mulliken charges with hydrogens summed into heavy atoms:
               1
 Electronic spatial extent (au):  <R**2>=            125.8392
 Charge=             -0.0000 electrons
 Dipole moment (field-independent basis, Debye):
    X=              0.0000    Y=              0.0000    Z=             -0.0000  Tot=              0.0000
 Quadrupole moment (field-independent basis, Debye-Ang):
   XX=            -10.7017   YY=            -15.7699   ZZ=            -12.9665
   XY=              3.9770   XZ=             -0.0000   YZ=             -0.0000
 Traceless Quadrupole moment (field-independent basis, Debye-Ang):
   XX=              2.4443   YY=             -2.6239   ZZ=              0.1795
   XY=              3.9770   XZ=             -0.0000   YZ=             -0.0000
 Octapole moment (field-independent basis, Debye-Ang**2):
  XXX=             -0.0000  YYY=             -0.0000  ZZZ=              0.0000  XYY=              0.0000
  XXY=              0.0000  XXZ=              0.0000  XZZ=             -0.0000  YZZ=             -0.0000
  YYZ=              0.0000  XYZ=             -0.0000
 Hexadecapole moment (field-independent basis, Debye-Ang**3):
 XXXX=           -160.5975 YYYY=            -64.3508 ZZZZ=            -15.6784 XXXY=              0.6787
 XXXZ=              0.0000 YYYX=            -23.3888 YYYZ=              0.0000 ZZZX=              0.0000
 ZZZY=              0.0000 XXYY=            -38.7513 XXZZ=            -34.1627 YYZZ=            -12.8931
 XXYZ=             -0.0000 YYXZ=              0.0000 ZZXY=             -7.3813
 N-N= 1.359686367348D+01 E-N=-3.625281391194D+01  KE= 5.115712408967D+00
 Symmetry AG   KE= 3.162132642969D+00
 Symmetry BG   KE= 0.000000000000D+00
 Symmetry AU   KE= 0.000000000000D+00
 Symmetry BU   KE= 1.953579765998D+00
 Range of M.O.s used for correlation:     1    10
 NBasis=    10 NAE=     5 NBE=     5 NFC=     0 NFV=     0
 NROrb=     10 NOA=     5 NOB=     5 NVA=     5 NVB=     5
 Keep R1 and R2 ints in memory in symmetry-blocked form, NReq=802982.
 Orbital symmetries:
       Occupied  (AG) (BU) (AG) (BU) (AG)
       Virtual   (BU) (BU) (AG) (AG) (BU)
    24 initial guesses have been made.
 Convergence on wavefunction:    0.001000000000000
 Iteration     1 Dimension    24 NMult     0 NNew     24
 CISAX will form    24 AO SS matrices at one time.
 New state      1 was old state      2
 Iteration     2 Dimension    48 NMult    24 NNew     24
 Iteration     3 Dimension    50 NMult    48 NNew      2
 Cease iterating as an instability has been found.
 ***********************************************************************
 Stability analysis using <AA,BB:AA,BB> singles matrix:
 ***********************************************************************

 Eigenvectors of the stability matrix:
 
 Eigenvector   1:      Triplet-BU   Eigenvalue=-0.1472512  <S**2>=2.000
       3 ->  6         0.12985
       3 ->  7        -0.15403
       4 ->  8        -0.16066
       5 ->  6         0.62559
       5 ->  7         0.14148
 
 Eigenvector   2:      Triplet-AG   Eigenvalue= 0.0078362  <S**2>=2.000
       2 ->  6        -0.10032
       3 ->  8        -0.10355
       4 ->  6         0.61616
       5 ->  8        -0.27569
 
 Eigenvector   3:      Triplet-BU   Eigenvalue= 0.0270107  <S**2>=2.000
       1 ->  6         0.10562
       3 ->  6        -0.28944
       4 ->  9        -0.16638
       5 ->  7         0.58721
 
 Eigenvector   4:      Singlet-BU   Eigenvalue= 0.0287224  <S**2>=0.000
       5 ->  6         0.68965
 
 Eigenvector   5:      Singlet-AG   Eigenvalue= 0.1854560  <S**2>=0.000
       4 ->  6         0.69711
 
 Eigenvector   6:      Singlet-BU   Eigenvalue= 0.1918136  <S**2>=0.000
       3 ->  6         0.47600
       5 ->  7         0.50381
 SavETr:  write IOETrn=   770 NScale= 10 NData=  16 NLR=1 NState=    6 LETran=     118.
 The wavefunction has an RHF -> UHF instability.
 Keep R1 and R2 ints in memory in symmetry-blocked form, NReq=860710.
 The two search directions are symmetric.
 Gradient too large for Newton-Raphson -- use scaled steepest descent instead.
 Gradient too large for Newton-Raphson -- use scaled steepest descent instead.
 LinEq1:  Iter=  0 NonCon=     1 RMS=1.48D-03 Max=4.98D-03 NDo=     1
 AX will form     1 AO Fock derivatives at one time.
 LinEq1:  Iter=  1 NonCon=     1 RMS=5.42D-04 Max=1.48D-03 NDo=     1
 LinEq1:  Iter=  2 NonCon=     1 RMS=8.67D-05 Max=2.28D-04 NDo=     1
 LinEq1:  Iter=  3 NonCon=     1 RMS=1.21D-05 Max=3.33D-05 NDo=     1
 LinEq1:  Iter=  4 NonCon=     1 RMS=1.93D-06 Max=3.94D-06 NDo=     1
 LinEq1:  Iter=  5 NonCon=     1 RMS=1.88D-07 Max=4.55D-07 NDo=     1
 LinEq1:  Iter=  6 NonCon=     1 RMS=2.45D-08 Max=4.59D-08 NDo=     1
 LinEq1:  Iter=  7 NonCon=     1 RMS=3.72D-09 Max=1.04D-08 NDo=     1
 LinEq1:  Iter=  8 NonCon=     0 RMS=6.02D-10 Max=1.46D-09 NDo=     1
 Linear equations converged to 1.000D-09 1.000D-08 after     8 iterations.
     Minimum is close to point  2 DX=  7.33D-03 DF= -8.75D-09 DXR=  7.28D-03 DFR=  5.30D-05 which will be used.
 LinEq1:  Iter=  0 NonCon=     1 RMS=1.47D-05 Max=4.06D-05 NDo=     1
 LinEq1:  Iter=  1 NonCon=     1 RMS=2.77D-06 Max=6.06D-06 NDo=     1
 LinEq1:  Iter=  2 NonCon=     1 RMS=6.18D-07 Max=1.41D-06 NDo=     1
 LinEq1:  Iter=  3 NonCon=     1 RMS=1.03D-07 Max=2.62D-07 NDo=     1
 LinEq1:  Iter=  4 NonCon=     1 RMS=1.31D-08 Max=2.65D-08 NDo=     1
 LinEq1:  Iter=  5 NonCon=     1 RMS=1.80D-09 Max=6.58D-09 NDo=     1
 LinEq1:  Iter=  6 NonCon=     0 RMS=2.87D-10 Max=5.57D-10 NDo=     1
 Linear equations converged to 7.561D-10 7.561D-09 after     6 iterations.
 Density matrix breaks symmetry, PCut= 1.00D-04
 Density matrix has no symmetry -- integrals replicated.
 Density matrix is not symmetric, so final MOs not symmetrized.
 SCF Done:  E(UHF) =  -4.94167969147     a.u. after    5 cycles
            Convg  =    0.6879D-07                    38 Fock formations.
              S**2 =  1.3658                  -V/T =  1.9334
 <Sx>= 0.0000 <Sy>= 0.0000 <Sz>= 0.0000 <S**2>= 1.3658 S= 0.7712
 <L.S>= 0.000000000000E+00
 Annihilation of the first spin contaminant:
 S**2 before annihilation     1.3658,   after     2.8020
 Range of M.O.s used for correlation:     1    10
 NBasis=    10 NAE=     5 NBE=     5 NFC=     0 NFV=     0
 NROrb=     10 NOA=     5 NOB=     5 NVA=     5 NVB=     5
 Keep R1 and R2 ints in memory in symmetry-blocked form, NReq=802982.
 Orbital symmetries:
 Alpha Orbitals:
       Occupied  (BG) (BG) (BG) (BG) (BG)
       Virtual   (BG) (BG) (BG) (BG) (BG)
 Beta  Orbitals:
       Occupied  (BG) (BG) (BG) (BG) (BG)
       Virtual   (BG) (BG) (BG) (BG) (BG)
    12 initial guesses have been made.
 Convergence on wavefunction:    0.001000000000000
 Iteration     1 Dimension    12 NMult     0 NNew     12
 CISAX will form    12 AO SS matrices at one time.
 New state      1 was old state      2
 Iteration     2 Dimension    24 NMult    12 NNew     12
 Iteration     3 Dimension    27 NMult    24 NNew      3
 Iteration     4 Dimension    30 NMult    27 NNew      3
 ***********************************************************************
 Stability analysis using <AA,BB:AA,BB> singles matrix:
 ***********************************************************************

 Eigenvectors of the stability matrix:
 
 Eigenvector   1:  2.068-AG   Eigenvalue= 0.1036795  <S**2>=0.820
      3A ->  8A        0.10938
      4A ->  7A       -0.20541
      5A ->  6A       -0.64969
      3B ->  8B       -0.10938
      4B ->  7B        0.20541
      5B ->  6B        0.64969
 SavETr:  write IOETrn=   770 NScale= 10 NData=  16 NLR=1 NState=    1 LETran=      28.
 The wavefunction is stable under the perturbations considered.
 The wavefunction is already stable.

 **********************************************************************

            Population analysis using the SCF density.

 **********************************************************************

 Orbital symmetries:
 Alpha Orbitals:
       Occupied  (BG) (BG) (BG) (BG) (BG)
       Virtual   (BG) (BG) (BG) (BG) (BG)
 Beta  Orbitals:
       Occupied  (BG) (BG) (BG) (BG) (BG)
       Virtual   (BG) (BG) (BG) (BG) (BG)
 Unable to determine electronic state:  partially filled degenerate orbitals.
 Alpha  occ. eigenvalues --   -0.86571  -0.74666  -0.56074  -0.43181  -0.37660
 Alpha virt. eigenvalues --    0.05727   0.21548   0.33549   0.54234   0.80263
  Beta  occ. eigenvalues --   -0.86571  -0.74666  -0.56074  -0.43181  -0.37660
  Beta virt. eigenvalues --    0.05727   0.21548   0.33549   0.54234   0.80263
          Condensed to atoms (all electrons):
               1          2          3          4          5          6
     1  H    0.861533   0.144841   0.117668  -0.142587  -0.019280  -0.019083
     2  H    0.144841   0.956192  -0.176705   0.169317  -0.089817  -0.011066
     3  H    0.117668  -0.176705   1.013832  -0.064305   0.257631  -0.105472
     4  H   -0.142587   0.169317  -0.064305   1.115484  -0.126086   0.183748
     5  H   -0.019280  -0.089817   0.257631  -0.126086   0.941200  -0.002786
     6  H   -0.019083  -0.011066  -0.105472   0.183748  -0.002786   0.941200
     7  H    0.004696   0.006406  -0.031775  -0.073051   0.183748  -0.126086
     8  H    0.004428   0.001780  -0.021064  -0.031775  -0.105472   0.257631
     9  H   -0.000679   0.001392   0.001780   0.006406  -0.011066  -0.089817
    10  H   -0.000051  -0.000679   0.004428   0.004696  -0.019083  -0.019280
               7          8          9         10
     1  H    0.004696   0.004428  -0.000679  -0.000051
     2  H    0.006406   0.001780   0.001392  -0.000679
     3  H   -0.031775  -0.021064   0.001780   0.004428
     4  H   -0.073051  -0.031775   0.006406   0.004696
     5  H    0.183748  -0.105472  -0.011066  -0.019083
     6  H   -0.126086   0.257631  -0.089817  -0.019280
     7  H    1.115484  -0.064305   0.169317  -0.142587
     8  H   -0.064305   1.013832  -0.176705   0.117668
     9  H    0.169317  -0.176705   0.956192   0.144841
    10  H   -0.142587   0.117668   0.144841   0.861533
          Atomic-Atomic Spin Densities.
               1          2          3          4          5          6
     1  H    0.708830  -0.074379   0.085859  -0.127869  -0.003015   0.007202
     2  H   -0.074379  -0.745070   0.192086   0.066407   0.022214   0.003474
     3  H    0.085859   0.192086  -0.811147   0.014263  -0.115857   0.069141
     4  H   -0.127869   0.066407   0.014263   0.819687  -0.092195  -0.127165
     5  H   -0.003015   0.022214  -0.115857  -0.092195   0.490863   0.000000
     6  H    0.007202   0.003474   0.069141  -0.127165   0.000000  -0.490863
     7  H   -0.002127  -0.014458   0.049591  -0.000000   0.127165   0.092195
     8  H    0.005108  -0.001361   0.000000  -0.049591  -0.069141   0.115857
     9  H   -0.001403   0.000000   0.001361   0.014458  -0.003474  -0.022214
    10  H   -0.000000   0.001403  -0.005108   0.002127  -0.007202   0.003015
               7          8          9         10
     1  H   -0.002127   0.005108  -0.001403  -0.000000
     2  H   -0.014458  -0.001361   0.000000   0.001403
     3  H    0.049591   0.000000   0.001361  -0.005108
     4  H   -0.000000  -0.049591   0.014458   0.002127
     5  H    0.127165  -0.069141  -0.003474  -0.007202
     6  H    0.092195   0.115857  -0.022214   0.003015
     7  H   -0.819687  -0.014263  -0.066407   0.127869
     8  H   -0.014263   0.811147  -0.192086  -0.085859
     9  H   -0.066407  -0.192086   0.745070   0.074379
    10  H    0.127869  -0.085859   0.074379  -0.708830
 Mulliken charges and spin densities:
               1          2
     1  H    0.048515   0.598206
     2  H   -0.001660  -0.549684
     3  H    0.003980  -0.519811
     4  H   -0.041847   0.520125
     5  H   -0.008989   0.349357
     6  H   -0.008989  -0.349357
     7  H   -0.041847  -0.520125
     8  H    0.003980   0.519811
     9  H   -0.001660   0.549684
    10  H    0.048515  -0.598206
 Sum of Mulliken charges =  -0.00000  -0.00000
 Mulliken charges and spin densities with hydrogens summed into heavy atoms:
               1          2
 Electronic spatial extent (au):  <R**2>=            126.9944
 Charge=             -0.0000 electrons
 Dipole moment (field-independent basis, Debye):
    X=              0.0000    Y=              0.0000    Z=             -0.0000  Tot=              0.0000
 Quadrupole moment (field-independent basis, Debye-Ang):
   XX=            -13.5203   YY=            -14.6519   ZZ=            -12.8196
   XY=              1.6706   XZ=              0.0000   YZ=             -0.0000
 Traceless Quadrupole moment (field-independent basis, Debye-Ang):
   XX=              0.1436   YY=             -0.9879   ZZ=              0.8443
   XY=              1.6706   XZ=              0.0000   YZ=             -0.0000
 Octapole moment (field-independent basis, Debye-Ang**2):
  XXX=              0.0000  YYY=              0.0000  ZZZ=              0.0000  XYY=              0.0000
  XXY=              0.0000  XXZ=              0.0000  XZZ=              0.0000  YZZ=              0.0000
  YYZ=              0.0000  XYZ=             -0.0000
 Hexadecapole moment (field-independent basis, Debye-Ang**3):
 XXXX=           -203.0374 YYYY=            -59.2588 ZZZZ=            -15.3961 XXXY=            -19.9402
 XXXZ=              0.0000 YYYX=            -23.7866 YYYZ=              0.0000 ZZZX=              0.0000
 ZZZY=              0.0000 XXYY=            -41.2754 XXZZ=            -34.8207 YYZZ=            -12.3001
 XXYZ=              0.0000 YYXZ=              0.0000 ZZXY=             -7.9419
 N-N= 1.359686367348D+01 E-N=-3.640849181161D+01  KE= 5.294435003926D+00
 Symmetry AG   KE= 2.430124264169D+00
 Symmetry BG   KE= 0.000000000000D+00
 Symmetry AU   KE= 0.000000000000D+00
 Symmetry BU   KE= 2.864310739757D+00
                          Isotropic Fermi Contact Couplings
        Atom                 a.u.       MegaHertz       Gauss      10(-4) cm-1
     1  H(1)               0.21005     469.44010     167.50789     156.58836
     2  H(1)              -0.20866    -466.34409    -166.40316    -155.55564
     3  H(1)              -0.22342    -499.33621    -178.17557    -166.56063
     4  H(1)               0.22453     501.80704     179.05722     167.38481
     5  H(1)               0.13711     306.43765     109.34457     102.21660
     6  H(1)              -0.13711    -306.43765    -109.34457    -102.21660
     7  H(1)              -0.22453    -501.80704    -179.05722    -167.38481
     8  H(1)               0.22342     499.33621     178.17557     166.56063
     9  H(1)               0.20866     466.34409     166.40316     155.55564
    10  H(1)              -0.21005    -469.44010    -167.50789    -156.58836
 --------------------------------------------------------
       Center         ----  Spin Dipole Couplings  ----
                      3XX-RR        3YY-RR        3ZZ-RR
 --------------------------------------------------------
     1   Atom       -0.020690     -0.045864      0.066554
     2   Atom        0.023069      0.044273     -0.067342
     3   Atom        0.048352      0.031944     -0.080295
     4   Atom       -0.071972     -0.014811      0.086784
     5   Atom       -0.089339      0.016392      0.072946
     6   Atom        0.089339     -0.016392     -0.072946
     7   Atom        0.071972      0.014811     -0.086784
     8   Atom       -0.048352     -0.031944      0.080295
     9   Atom       -0.023069     -0.044273      0.067342
    10   Atom        0.020690      0.045864     -0.066554
 --------------------------------------------------------
                        XY            XZ            YZ
 --------------------------------------------------------
     1   Atom        0.004139      0.000000      0.000000
     2   Atom        0.063936     -0.000000     -0.000000
     3   Atom        0.066456     -0.000000     -0.000000
     4   Atom       -0.040337      0.000000      0.000000
     5   Atom       -0.068283      0.000000      0.000000
     6   Atom        0.068283      0.000000      0.000000
     7   Atom        0.040337      0.000000      0.000000
     8   Atom       -0.066456     -0.000000     -0.000000
     9   Atom       -0.063936     -0.000000     -0.000000
    10   Atom       -0.004139      0.000000     -0.000000
 --------------------------------------------------------


 ---------------------------------------------------------------------------------
              Anisotropic Spin Dipole Couplings in Principal Axis System
 ---------------------------------------------------------------------------------

       Atom             a.u.   MegaHertz   Gauss  10(-4) cm-1        Axes

              Baa    -0.0465   -24.825    -8.858    -8.281 -0.1582  0.9874  0.0000
     1 H(1)   Bbb    -0.0200   -10.685    -3.813    -3.564  0.9874  0.1582 -0.0000
              Bcc     0.0666    35.510    12.671    11.845  0.0000  0.0000  1.0000
 
              Baa    -0.0673   -35.930   -12.821   -11.985  0.0000  0.0000  1.0000
     2 H(1)   Bbb    -0.0311   -16.614    -5.928    -5.542  0.7628 -0.6467  0.0000
              Bcc     0.0985    52.544    18.749    17.527  0.6467  0.7628  0.0000
 
              Baa    -0.0803   -42.842   -15.287   -14.291  0.0000  0.0000  1.0000
     3 H(1)   Bbb    -0.0268   -14.306    -5.105    -4.772 -0.6624  0.7492  0.0000
              Bcc     0.1071    57.148    20.392    19.063  0.7492  0.6624  0.0000
 
              Baa    -0.0928   -49.529   -17.673   -16.521  0.8883  0.4593  0.0000
     4 H(1)   Bbb     0.0060     3.225     1.151     1.076 -0.4593  0.8883  0.0000
              Bcc     0.0868    46.304    16.522    15.445  0.0000  0.0000  1.0000
 
              Baa    -0.1228   -65.536   -23.385   -21.860  0.8978  0.4404  0.0000
     5 H(1)   Bbb     0.0499    26.615     9.497     8.878 -0.4404  0.8978 -0.0000
              Bcc     0.0729    38.921    13.888    12.983  0.0000  0.0000  1.0000
 
              Baa    -0.0729   -38.921   -13.888   -12.983  0.0000  0.0000  1.0000
     6 H(1)   Bbb    -0.0499   -26.615    -9.497    -8.878 -0.4404  0.8978 -0.0000
              Bcc     0.1228    65.536    23.385    21.860  0.8978  0.4404  0.0000
 
              Baa    -0.0868   -46.304   -16.522   -15.445  0.0000  0.0000  1.0000
     7 H(1)   Bbb    -0.0060    -3.225    -1.151    -1.076 -0.4593  0.8883  0.0000
              Bcc     0.0928    49.529    17.673    16.521  0.8883  0.4593  0.0000
 
              Baa    -0.1071   -57.148   -20.392   -19.063  0.7492  0.6624  0.0000
     8 H(1)   Bbb     0.0268    14.306     5.105     4.772 -0.6624  0.7492 -0.0000
              Bcc     0.0803    42.842    15.287    14.291  0.0000  0.0000  1.0000
 
              Baa    -0.0985   -52.544   -18.749   -17.527  0.6467  0.7628  0.0000
     9 H(1)   Bbb     0.0311    16.614     5.928     5.542  0.7628 -0.6467  0.0000
              Bcc     0.0673    35.930    12.821    11.985  0.0000  0.0000  1.0000
 
              Baa    -0.0666   -35.510   -12.671   -11.845  0.0000  0.0000  1.0000
    10 H(1)   Bbb     0.0200    10.685     3.813     3.564  0.9874  0.1582  0.0000
              Bcc     0.0465    24.825     8.858     8.281 -0.1582  0.9874  0.0000
 

 ---------------------------------------------------------------------------------


 Test job not archived.
 1\1\GINC-SULU\Stability\UHF\Gen\H10\LCJ1\22-Feb-2017\0\\#rhf/gen scf(s
 ymm,tight,novaracc,noincfock,fulldiag) stable=opt guess=read geom=nocr
 owd test\\hf stability analysis of h10 triangular lattice, y= 0.875311
 21666696521\\0,1\H\H,1,1.0960083651\H,1,1.0960083651,2,74.\H,2,1.09600
 83651,1,106.,3,0.,0\H,3,1.0960083651,1,180.,2,0.,0\H,4,1.0960083651,2,
 180.,1,0.,0\H,5,1.0960083651,3,180.,2,0.,0\H,6,1.0960083651,4,180.,1,0
 .,0\H,7,1.0960083651,5,180.,2,0.,0\H,8,1.0960083651,6,180.,1,0.,0\\Ver
 sion=ES64L-G09RevE.01\State=1-AG\HF=-4.9416797\S2=1.365847\S2-1=0.\S2A
 =2.802048\RMSD=9.583e-10\Dipole=0.,0.,0.\Quadrupole=0.1067764,0.627733
 7,-0.7345101,0.,1.242034,0.\PG=C02H [SGH(H10)]\\@


 ORIGINALITY CONSISTS NOT IN SAYING WHAT NO ONE HAS EVER SAID BEFORE, 
 BUT IN SAYING WHAT YOU THINK YOUR SELF.

                                    -- JAMES F. STEPHEN
 Job cpu time:       0 days  0 hours  0 minutes  1.2 seconds.
 File lengths (MBytes):  RWF=     77 Int=      0 D2E=      0 Chk=      2 Scr=      2
 Normal termination of Gaussian 09 at Wed Feb 22 12:39:36 2017.
