 Entering Gaussian System, Link 0=g09
 AtFile(1): H.gbs
            H     0
            S   10   1.00
               1000.000000000000            0.000068713567
                316.227766000000            0.000169141320
                100.000000000000            0.000823394812
                 31.622776600000            0.003425569236
                 10.000000000000            0.013951996000
                  3.162277660000            0.056909313560
                  1.000000000000            0.198286399900
                  0.316227766000            0.496922426700
                  0.100000000000            0.369846276400
                  0.031622776600            0.003752720039
            ****
 Initial command:
 /projects/guscus/apps/gau/g09-e1/g09/l1.exe "/users/lcj1/gaussian/h10/2rows_uhf/ag3bu2/Gau-18375.inp" -scrdir="/users/lcj1/gaussian/h10/2rows_uhf/ag3bu2/"
 Entering Link 1 = /projects/guscus/apps/gau/g09-e1/g09/l1.exe PID=     18376.
  
 Copyright (c) 1988,1990,1992,1993,1995,1998,2003,2009,2015,
            Gaussian, Inc.  All Rights Reserved.
  
 This is part of the Gaussian(R) 09 program.  It is based on
 the Gaussian(R) 03 system (copyright 2003, Gaussian, Inc.),
 the Gaussian(R) 98 system (copyright 1998, Gaussian, Inc.),
 the Gaussian(R) 94 system (copyright 1995, Gaussian, Inc.),
 the Gaussian 92(TM) system (copyright 1992, Gaussian, Inc.),
 the Gaussian 90(TM) system (copyright 1990, Gaussian, Inc.),
 the Gaussian 88(TM) system (copyright 1988, Gaussian, Inc.),
 the Gaussian 86(TM) system (copyright 1986, Carnegie Mellon
 University), and the Gaussian 82(TM) system (copyright 1983,
 Carnegie Mellon University). Gaussian is a federally registered
 trademark of Gaussian, Inc.
  
 This software contains proprietary and confidential information,
 including trade secrets, belonging to Gaussian, Inc.
  
 This software is provided under written license and may be
 used, copied, transmitted, or stored only in accord with that
 written license.
  
 The following legend is applicable only to US Government
 contracts under FAR:
  
                    RESTRICTED RIGHTS LEGEND
  
 Use, reproduction and disclosure by the US Government is
 subject to restrictions as set forth in subparagraphs (a)
 and (c) of the Commercial Computer Software - Restricted
 Rights clause in FAR 52.227-19.
  
 Gaussian, Inc.
 340 Quinnipiac St., Bldg. 40, Wallingford CT 06492
  
  
 ---------------------------------------------------------------
 Warning -- This program may not be used in any manner that
 competes with the business of Gaussian, Inc. or will provide
 assistance to any competitor of Gaussian, Inc.  The licensee
 of this program is prohibited from giving any competitor of
 Gaussian, Inc. access to this program.  By using this program,
 the user acknowledges that Gaussian, Inc. is engaged in the
 business of creating and licensing software in the field of
 computational chemistry and represents and warrants to the
 licensee that it is not a competitor of Gaussian, Inc. and that
 it will not use this program in any manner prohibited above.
 ---------------------------------------------------------------
  

 Cite this work as:
 Gaussian 09, Revision E.01,
 M. J. Frisch, G. W. Trucks, H. B. Schlegel, G. E. Scuseria, 
 M. A. Robb, J. R. Cheeseman, G. Scalmani, V. Barone, B. Mennucci, 
 G. A. Petersson, H. Nakatsuji, M. Caricato, X. Li, H. P. Hratchian, 
 A. F. Izmaylov, J. Bloino, G. Zheng, J. L. Sonnenberg, M. Hada, 
 M. Ehara, K. Toyota, R. Fukuda, J. Hasegawa, M. Ishida, T. Nakajima, 
 Y. Honda, O. Kitao, H. Nakai, T. Vreven, J. A. Montgomery, Jr., 
 J. E. Peralta, F. Ogliaro, M. Bearpark, J. J. Heyd, E. Brothers, 
 K. N. Kudin, V. N. Staroverov, T. Keith, R. Kobayashi, J. Normand, 
 K. Raghavachari, A. Rendell, J. C. Burant, S. S. Iyengar, J. Tomasi, 
 M. Cossi, N. Rega, J. M. Millam, M. Klene, J. E. Knox, J. B. Cross, 
 V. Bakken, C. Adamo, J. Jaramillo, R. Gomperts, R. E. Stratmann, 
 O. Yazyev, A. J. Austin, R. Cammi, C. Pomelli, J. W. Ochterski, 
 R. L. Martin, K. Morokuma, V. G. Zakrzewski, G. A. Voth, 
 P. Salvador, J. J. Dannenberg, S. Dapprich, A. D. Daniels, 
 O. Farkas, J. B. Foresman, J. V. Ortiz, J. Cioslowski, 
 and D. J. Fox, Gaussian, Inc., Wallingford CT, 2013.
 
 ******************************************
 Gaussian 09:  ES64L-G09RevE.01 30-Nov-2015
                22-Feb-2017 
 ******************************************
 %chk=h10.chk
 ----------------------------------------------------------------------
 #rhf/gen scf(symm,tight,novaracc,noincfock,fulldiag) stable=opt guess=
 read geom=nocrowd test
 ----------------------------------------------------------------------
 1/38=1/1;
 2/12=1,17=6,18=5,40=1/2;
 3/5=7,11=2,16=1,25=1,30=1,116=1/1,2,3;
 4/5=1,9=4/1;
 5/5=100002,15=2,16=1,32=2,38=6/2;
 6/7=2,8=2,9=2,10=2,28=1/1;
 8/6=1,10=90,11=11/1;
 9/8=-3,42=1,46=1/14;
 5/5=100002,8=3,16=1,17=40,32=2,38=6/8(-2);
 6/7=2,8=2,9=2,10=2,28=1/1;
 99/5=1,9=1/99;
 ----------------------------------------------------------------------
 hf stability analysis of h10 triangular lattice, y= 0.4266589340790049
 6
 ----------------------------------------------------------------------
 Symbolic Z-matrix:
 Charge =  0 Multiplicity = 1
 H
 H                    1     1.41886 
 H                    1     1.41886  2     145. 
 H                    2     1.41886  1     35.      3     0.       0
 H                    3     1.41886  1     180.     2     0.       0
 H                    4     1.41886  2     180.     1     0.       0
 H                    5     1.41886  3     180.     2     0.       0
 H                    6     1.41886  4     180.     1     0.       0
 H                    7     1.41886  5     180.     2     0.       0
 H                    8     1.41886  6     180.     1     0.       0
 
                          Input orientation:                          
 ---------------------------------------------------------------------
 Center     Atomic      Atomic             Coordinates (Angstroms)
 Number     Number       Type             X           Y           Z
 ---------------------------------------------------------------------
      1          1           0        0.000000    0.000000    0.000000
      2          1           0        0.000000    0.000000    1.418858
      3          1           0        0.813824    0.000000   -1.162261
      4          1           0        0.813824    0.000000    0.256598
      5          1           0        1.627647    0.000000   -2.324521
      6          1           0        1.627647    0.000000   -0.905663
      7          1           0        2.441471    0.000000   -3.486782
      8          1           0        2.441471    0.000000   -2.067924
      9          1           0        3.255295    0.000000   -4.649043
     10          1           0        3.255295    0.000000   -3.230184
 ---------------------------------------------------------------------
                    Distance matrix (angstroms):
                    1          2          3          4          5
     1  H    0.000000
     2  H    1.418858   0.000000
     3  H    1.418858   2.706378   0.000000
     4  H    0.853318   1.418858   1.418858   0.000000
     5  H    2.837717   4.081927   1.418858   2.706378   0.000000
     6  H    1.862649   2.837717   0.853318   1.418858   1.418858
     7  H    4.256575   5.479607   2.837717   4.081927   1.418858
     8  H    3.199545   4.256575   1.862649   2.837717   0.853318
     9  H    5.675433   6.885954   4.256575   5.479607   2.837717
    10  H    4.585961   5.675433   3.199545   4.256575   1.862649
                    6          7          8          9         10
     6  H    0.000000
     7  H    2.706378   0.000000
     8  H    1.418858   1.418858   0.000000
     9  H    4.081927   1.418858   2.706378   0.000000
    10  H    2.837717   0.853318   1.418858   1.418858   0.000000
 Stoichiometry    H10
 Framework group  C2H[SGH(H10)]
 Deg. of freedom     9
 Full point group                 C2H     NOp   4
 Largest Abelian subgroup         C2H     NOp   4
 Largest concise Abelian subgroup C2      NOp   2
                         Standard orientation:                         
 ---------------------------------------------------------------------
 Center     Atomic      Atomic             Coordinates (Angstroms)
 Number     Number       Type             X           Y           Z
 ---------------------------------------------------------------------
      1          1           0        1.627647   -1.615092    0.000000
      2          1           0        1.627647   -3.033951    0.000000
      3          1           0        0.813824   -0.452832    0.000000
      4          1           0        0.813824   -1.871690    0.000000
      5          1           0       -0.000000    0.709429    0.000000
      6          1           0       -0.000000   -0.709429   -0.000000
      7          1           0       -0.813824    1.871690    0.000000
      8          1           0       -0.813824    0.452832    0.000000
      9          1           0       -1.627647    3.033951    0.000000
     10          1           0       -1.627647    1.615092    0.000000
 ---------------------------------------------------------------------
 Rotational constants (GHZ):    329.2534464     11.4557903     11.0706081
 General basis read from cards:  (5D, 7F)
 There are     5 symmetry adapted cartesian basis functions of AG  symmetry.
 There are     0 symmetry adapted cartesian basis functions of BG  symmetry.
 There are     0 symmetry adapted cartesian basis functions of AU  symmetry.
 There are     5 symmetry adapted cartesian basis functions of BU  symmetry.
 There are     5 symmetry adapted basis functions of AG  symmetry.
 There are     0 symmetry adapted basis functions of BG  symmetry.
 There are     0 symmetry adapted basis functions of AU  symmetry.
 There are     5 symmetry adapted basis functions of BU  symmetry.
    10 basis functions,   100 primitive gaussians,    10 cartesian basis functions
     5 alpha electrons        5 beta electrons
       nuclear repulsion energy        11.8711808506 Hartrees.
 NAtoms=   10 NActive=   10 NUniq=    5 SFac= 4.00D+00 NAtFMM=   60 NAOKFM=F Big=F
 Integral buffers will be    131072 words long.
 Raffenetti 2 integral format.
 Two-electron integral symmetry is turned on.
 One-electron integrals computed using PRISM.
 NBasis=    10 RedAO= T EigKep=  1.80D-01  NBF=     5     0     0     5
 NBsUse=    10 1.00D-06 EigRej= -1.00D+00 NBFU=     5     0     0     5
 Initial guess from the checkpoint file:  "h10.chk"
 B after Tr=     0.000000    0.000000   -0.000000
         Rot=    0.647921    0.000000   -0.000000    0.761707 Ang=  99.23 deg.
 Initial guess orbital symmetries:
       Occupied  (AG) (BU) (AG) (BU) (AG)
       Virtual   (BU) (BU) (AG) (BU) (AG)
 Keep R1 ints in memory in symmetry-blocked form, NReq=875829.
 Requested convergence on RMS density matrix=1.00D-08 within 128 cycles.
 Requested convergence on MAX density matrix=1.00D-06.
 Requested convergence on             energy=1.00D-06.
 No special actions if energy rises.
 SCF Done:  E(RHF) =  -4.78178100531     A.U. after   12 cycles
            NFock= 12  Conv=0.82D-08     -V/T= 1.9065

 **********************************************************************

            Population analysis using the SCF density.

 **********************************************************************

 Orbital symmetries:
       Occupied  (AG) (BU) (AG) (BU) (AG)
       Virtual   (BU) (BU) (AG) (BU) (AG)
 The electronic state is 1-AG.
 Alpha  occ. eigenvalues --   -0.81998  -0.73240  -0.59990  -0.43263  -0.11721
 Alpha virt. eigenvalues --    0.00563   0.10009   0.22524   0.40553   0.57004
          Condensed to atoms (all electrons):
               1          2          3          4          5          6
     1  H    0.774590  -0.103938  -0.080189   0.473362  -0.009569  -0.110185
     2  H   -0.103938   1.390922  -0.035950  -0.037797   0.005540   0.001006
     3  H   -0.080189  -0.035950   0.842743  -0.043588  -0.145144   0.533190
     4  H    0.473362  -0.037797  -0.043588   0.634526  -0.012280  -0.119063
     5  H   -0.009569   0.005540  -0.145144  -0.012280   0.863875  -0.046851
     6  H   -0.110185   0.001006   0.533190  -0.119063  -0.046851   0.863875
     7  H    0.001480  -0.000353   0.002385   0.001519  -0.119063  -0.012280
     8  H    0.005362   0.001091  -0.112454   0.002385   0.533190  -0.145144
     9  H   -0.000405   0.000089   0.001091  -0.000353   0.001006   0.005540
    10  H    0.001137  -0.000405   0.005362   0.001480  -0.110185  -0.009569
               7          8          9         10
     1  H    0.001480   0.005362  -0.000405   0.001137
     2  H   -0.000353   0.001091   0.000089  -0.000405
     3  H    0.002385  -0.112454   0.001091   0.005362
     4  H    0.001519   0.002385  -0.000353   0.001480
     5  H   -0.119063   0.533190   0.001006  -0.110185
     6  H   -0.012280  -0.145144   0.005540  -0.009569
     7  H    0.634526  -0.043588  -0.037797   0.473362
     8  H   -0.043588   0.842743  -0.035950  -0.080189
     9  H   -0.037797  -0.035950   1.390922  -0.103938
    10  H    0.473362  -0.080189  -0.103938   0.774590
 Mulliken charges:
               1
     1  H    0.048356
     2  H   -0.220204
     3  H    0.032555
     4  H    0.099811
     5  H    0.039482
     6  H    0.039482
     7  H    0.099811
     8  H    0.032555
     9  H   -0.220204
    10  H    0.048356
 Sum of Mulliken charges =   0.00000
 Mulliken charges with hydrogens summed into heavy atoms:
               1
 Electronic spatial extent (au):  <R**2>=            207.1511
 Charge=              0.0000 electrons
 Dipole moment (field-independent basis, Debye):
    X=             -0.0000    Y=              0.0000    Z=             -0.0000  Tot=              0.0000
 Quadrupole moment (field-independent basis, Debye-Ang):
   XX=            -16.3764   YY=            -31.8724   ZZ=            -12.8101
   XY=             10.9323   XZ=              0.0000   YZ=             -0.0000
 Traceless Quadrupole moment (field-independent basis, Debye-Ang):
   XX=              3.9765   YY=            -11.5194   ZZ=              7.5429
   XY=             10.9323   XZ=              0.0000   YZ=             -0.0000
 Octapole moment (field-independent basis, Debye-Ang**2):
  XXX=             -0.0000  YYY=              0.0000  ZZZ=             -0.0000  XYY=             -0.0000
  XXY=              0.0000  XXZ=             -0.0000  XZZ=             -0.0000  YZZ=              0.0000
  YYZ=             -0.0000  XYZ=              0.0000
 Hexadecapole moment (field-independent basis, Debye-Ang**3):
 XXXX=           -132.8514 YYYY=           -525.1706 ZZZZ=            -15.4052 XXXY=            111.4228
 XXXZ=              0.0000 YYYX=            205.6097 YYYZ=             -0.0000 ZZZX=              0.0000
 ZZZY=             -0.0000 XXYY=           -132.8413 XXZZ=            -23.3426 YYZZ=            -52.4014
 XXYZ=             -0.0000 YYXZ=              0.0000 ZZXY=             27.7994
 N-N= 1.187118085062D+01 E-N=-3.317681242430D+01  KE= 5.275121080056D+00
 Symmetry AG   KE= 3.055483455819D+00
 Symmetry BG   KE= 0.000000000000D+00
 Symmetry AU   KE= 0.000000000000D+00
 Symmetry BU   KE= 2.219637624238D+00
 Range of M.O.s used for correlation:     1    10
 NBasis=    10 NAE=     5 NBE=     5 NFC=     0 NFV=     0
 NROrb=     10 NOA=     5 NOB=     5 NVA=     5 NVB=     5
 Keep R1 and R2 ints in memory in symmetry-blocked form, NReq=802982.
 Orbital symmetries:
       Occupied  (AG) (BU) (AG) (BU) (AG)
       Virtual   (BU) (BU) (AG) (BU) (AG)
    24 initial guesses have been made.
 Convergence on wavefunction:    0.001000000000000
 Iteration     1 Dimension    24 NMult     0 NNew     24
 CISAX will form    24 AO SS matrices at one time.
 New state      1 was old state      2
 Iteration     2 Dimension    48 NMult    24 NNew     24
 Iteration     3 Dimension    50 NMult    48 NNew      2
 ***********************************************************************
 Stability analysis using <AA,BB:AA,BB> singles matrix:
 ***********************************************************************

 Eigenvectors of the stability matrix:
 
 Eigenvector   1:      Triplet-BU   Eigenvalue=-0.4128314  <S**2>=2.000
       5 ->  6         0.68800
       5 ->  7         0.14769
 SavETr:  write IOETrn=   770 NScale= 10 NData=  16 NLR=1 NState=    1 LETran=      28.
 The wavefunction has an RHF -> UHF instability.
 Keep R1 and R2 ints in memory in symmetry-blocked form, NReq=857168.
 The two search directions are symmetric.
 Gradient too large for Newton-Raphson -- use scaled steepest descent instead.
     Accept linear search using points  4 and  5.
 Gradient too large for Newton-Raphson -- use scaled steepest descent instead.
 LinEq1:  Iter=  0 NonCon=     1 RMS=1.59D-03 Max=5.03D-03 NDo=     1
 AX will form     1 AO Fock derivatives at one time.
 LinEq1:  Iter=  1 NonCon=     1 RMS=3.61D-04 Max=8.92D-04 NDo=     1
 LinEq1:  Iter=  2 NonCon=     1 RMS=7.63D-05 Max=1.60D-04 NDo=     1
 LinEq1:  Iter=  3 NonCon=     1 RMS=8.97D-06 Max=2.27D-05 NDo=     1
 LinEq1:  Iter=  4 NonCon=     1 RMS=2.36D-06 Max=6.20D-06 NDo=     1
 LinEq1:  Iter=  5 NonCon=     1 RMS=4.21D-07 Max=1.03D-06 NDo=     1
 LinEq1:  Iter=  6 NonCon=     1 RMS=6.45D-08 Max=1.57D-07 NDo=     1
 LinEq1:  Iter=  7 NonCon=     1 RMS=5.54D-09 Max=1.34D-08 NDo=     1
 LinEq1:  Iter=  8 NonCon=     0 RMS=6.13D-10 Max=1.27D-09 NDo=     1
 Linear equations converged to 1.000D-09 1.000D-08 after     8 iterations.
     Accept linear search using points  1 and  2.
     Minimum is close to point  2 DX= -2.77D-03 DF= -1.18D-09 DXR=  2.77D-03 DFR=  7.71D-06 which will be used.
 LinEq1:  Iter=  0 NonCon=     1 RMS=5.47D-06 Max=1.93D-05 NDo=     1
 LinEq1:  Iter=  1 NonCon=     1 RMS=1.46D-06 Max=3.27D-06 NDo=     1
 LinEq1:  Iter=  2 NonCon=     1 RMS=3.20D-07 Max=8.27D-07 NDo=     1
 LinEq1:  Iter=  3 NonCon=     1 RMS=3.64D-08 Max=9.93D-08 NDo=     1
 LinEq1:  Iter=  4 NonCon=     1 RMS=7.50D-09 Max=1.68D-08 NDo=     1
 LinEq1:  Iter=  5 NonCon=     1 RMS=1.51D-09 Max=4.07D-09 NDo=     1
 LinEq1:  Iter=  6 NonCon=     0 RMS=2.23D-10 Max=5.41D-10 NDo=     1
 Linear equations converged to 2.485D-10 2.485D-09 after     6 iterations.
 LinEq1:  Iter=  0 NonCon=     1 RMS=3.16D-08 Max=7.67D-08 NDo=     1
 LinEq1:  Iter=  1 NonCon=     1 RMS=5.07D-09 Max=1.11D-08 NDo=     1
 LinEq1:  Iter=  2 NonCon=     1 RMS=9.63D-10 Max=2.01D-09 NDo=     1
 LinEq1:  Iter=  3 NonCon=     1 RMS=2.42D-10 Max=8.22D-10 NDo=     1
 LinEq1:  Iter=  4 NonCon=     1 RMS=3.02D-11 Max=6.40D-11 NDo=     1
 LinEq1:  Iter=  5 NonCon=     1 RMS=8.24D-12 Max=1.83D-11 NDo=     1
 LinEq1:  Iter=  6 NonCon=     0 RMS=1.35D-12 Max=4.83D-12 NDo=     1
 Linear equations converged to 1.712D-12 1.712D-11 after     6 iterations.
 Density matrix breaks symmetry, PCut= 1.00D-04
 Density matrix has no symmetry -- integrals replicated.
 Density matrix is not symmetric, so final MOs not symmetrized.
 SCF Done:  E(UHF) =  -4.98996996391     a.u. after    6 cycles
            Convg  =    0.7540D-09                    44 Fock formations.
              S**2 =  1.0280                  -V/T =  1.9057
 <Sx>= 0.0000 <Sy>= 0.0000 <Sz>= 0.0000 <S**2>= 1.0280 S= 0.6305
 <L.S>= 0.000000000000E+00
 Annihilation of the first spin contaminant:
 S**2 before annihilation     1.0280,   after     0.2432
 Range of M.O.s used for correlation:     1    10
 NBasis=    10 NAE=     5 NBE=     5 NFC=     0 NFV=     0
 NROrb=     10 NOA=     5 NOB=     5 NVA=     5 NVB=     5
 Keep R1 and R2 ints in memory in symmetry-blocked form, NReq=802982.
 Orbital symmetries:
 Alpha Orbitals:
       Occupied  (BG) (BG) (BG) (BG) (BG)
       Virtual   (BG) (BG) (BG) (BG) (BG)
 Beta  Orbitals:
       Occupied  (BG) (BG) (BG) (BG) (BG)
       Virtual   (BG) (BG) (BG) (BG) (BG)
    12 initial guesses have been made.
 Convergence on wavefunction:    0.001000000000000
 Iteration     1 Dimension    12 NMult     0 NNew     12
 CISAX will form    12 AO SS matrices at one time.
 Iteration     2 Dimension    24 NMult    12 NNew     12
 Iteration     3 Dimension    27 NMult    24 NNew      3
 Iteration     4 Dimension    30 NMult    27 NNew      3
 ***********************************************************************
 Stability analysis using <AA,BB:AA,BB> singles matrix:
 ***********************************************************************

 Eigenvectors of the stability matrix:
 
 Eigenvector   1:  3.420-AG   Eigenvalue= 0.0190318  <S**2>=2.674
      1A -> 10A       -0.12227
      2A ->  9A       -0.10160
      3A ->  8A        0.13531
      4A ->  6A        0.32986
      4A ->  8A        0.10918
      5A ->  6A       -0.53887
      1B -> 10B        0.12227
      2B ->  9B        0.10160
      3B ->  8B       -0.13531
      4B ->  6B       -0.32986
      4B ->  8B       -0.10918
      5B ->  6B        0.53887
 SavETr:  write IOETrn=   770 NScale= 10 NData=  16 NLR=1 NState=    1 LETran=      28.
 The wavefunction is stable under the perturbations considered.
 The wavefunction is already stable.

 **********************************************************************

            Population analysis using the SCF density.

 **********************************************************************

 Orbital symmetries:
 Alpha Orbitals:
       Occupied  (BG) (BG) (BG) (BG) (BG)
       Virtual   (BG) (BG) (BG) (BG) (BG)
 Beta  Orbitals:
       Occupied  (BG) (BG) (BG) (BG) (BG)
       Virtual   (BG) (BG) (BG) (BG) (BG)
 Unable to determine electronic state:  partially filled degenerate orbitals.
 Alpha  occ. eigenvalues --   -0.77977  -0.70758  -0.59034  -0.44227  -0.31442
 Alpha virt. eigenvalues --    0.13408   0.22764   0.25808   0.43611   0.61461
  Beta  occ. eigenvalues --   -0.77977  -0.70758  -0.59034  -0.44227  -0.31442
  Beta virt. eigenvalues --    0.13408   0.22764   0.25808   0.43611   0.61461
          Condensed to atoms (all electrons):
               1          2          3          4          5          6
     1  H    0.915664  -0.147016  -0.157541   0.528196   0.009514  -0.134183
     2  H   -0.147016   1.292091  -0.006930  -0.075056   0.000546   0.006494
     3  H   -0.157541  -0.006930   0.897458  -0.089838  -0.174515   0.616873
     4  H    0.528196  -0.075056  -0.089838   0.693751   0.001241  -0.134623
     5  H    0.009514   0.000546  -0.174515   0.001241   0.946413  -0.135539
     6  H   -0.134183   0.006494   0.616873  -0.134623  -0.135539   0.946413
     7  H   -0.000053  -0.000025   0.004997   0.000327  -0.134623   0.001241
     8  H    0.008958   0.000103  -0.124067   0.004997   0.616873  -0.174515
     9  H   -0.000022   0.000004   0.000103  -0.000025   0.006494   0.000546
    10  H   -0.000338  -0.000022   0.008958  -0.000053  -0.134183   0.009514
               7          8          9         10
     1  H   -0.000053   0.008958  -0.000022  -0.000338
     2  H   -0.000025   0.000103   0.000004  -0.000022
     3  H    0.004997  -0.124067   0.000103   0.008958
     4  H    0.000327   0.004997  -0.000025  -0.000053
     5  H   -0.134623   0.616873   0.006494  -0.134183
     6  H    0.001241  -0.174515   0.000546   0.009514
     7  H    0.693751  -0.089838  -0.075056   0.528196
     8  H   -0.089838   0.897458  -0.006930  -0.157541
     9  H   -0.075056  -0.006930   1.292091  -0.147016
    10  H    0.528196  -0.157541  -0.147016   0.915664
          Atomic-Atomic Spin Densities.
               1          2          3          4          5          6
     1  H   -0.335943   0.210450   0.007852  -0.081328  -0.001433   0.044360
     2  H    0.210450  -1.239707  -0.009918   0.138457   0.000745  -0.018794
     3  H    0.007852  -0.009918   0.146990  -0.019583  -0.029635  -0.003070
     4  H   -0.081328   0.138457  -0.019583   0.045787   0.000409   0.017824
     5  H   -0.001433   0.000745  -0.029635   0.000409   0.184096  -0.000000
     6  H    0.044360  -0.018794  -0.003070   0.017824  -0.000000  -0.184096
     7  H    0.000035  -0.000007   0.000300  -0.000000  -0.017824  -0.000409
     8  H   -0.002907   0.000792  -0.000000  -0.000300   0.003070   0.029635
     9  H    0.000034   0.000000  -0.000792   0.000007   0.018794  -0.000745
    10  H   -0.000000  -0.000034   0.002907  -0.000035  -0.044360   0.001433
               7          8          9         10
     1  H    0.000035  -0.002907   0.000034  -0.000000
     2  H   -0.000007   0.000792   0.000000  -0.000034
     3  H    0.000300  -0.000000  -0.000792   0.002907
     4  H   -0.000000  -0.000300   0.000007  -0.000035
     5  H   -0.017824   0.003070   0.018794  -0.044360
     6  H   -0.000409   0.029635  -0.000745   0.001433
     7  H   -0.045787   0.019583  -0.138457   0.081328
     8  H    0.019583  -0.146990   0.009918  -0.007852
     9  H   -0.138457   0.009918   1.239707  -0.210450
    10  H    0.081328  -0.007852  -0.210450   0.335943
 Mulliken charges and spin densities:
               1          2
     1  H   -0.023177  -0.158881
     2  H   -0.070187  -0.918016
     3  H    0.024502   0.095052
     4  H    0.071083   0.101237
     5  H   -0.002221   0.113860
     6  H   -0.002221  -0.113860
     7  H    0.071083  -0.101237
     8  H    0.024502  -0.095052
     9  H   -0.070187   0.918016
    10  H   -0.023177   0.158881
 Sum of Mulliken charges =  -0.00000  -0.00000
 Mulliken charges and spin densities with hydrogens summed into heavy atoms:
               1          2
 Electronic spatial extent (au):  <R**2>=            198.1956
 Charge=             -0.0000 electrons
 Dipole moment (field-independent basis, Debye):
    X=              0.0000    Y=             -0.0000    Z=             -0.0000  Tot=              0.0000
 Quadrupole moment (field-independent basis, Debye-Ang):
   XX=            -14.4246   YY=            -21.9793   ZZ=            -12.6097
   XY=              6.3304   XZ=              0.0000   YZ=             -0.0000
 Traceless Quadrupole moment (field-independent basis, Debye-Ang):
   XX=              1.9133   YY=             -5.6414   ZZ=              3.7282
   XY=              6.3304   XZ=              0.0000   YZ=             -0.0000
 Octapole moment (field-independent basis, Debye-Ang**2):
  XXX=             -0.0000  YYY=             -0.0000  ZZZ=             -0.0000  XYY=              0.0000
  XXY=             -0.0000  XXZ=             -0.0000  XZZ=              0.0000  YZZ=             -0.0000
  YYZ=             -0.0000  XYZ=              0.0000
 Hexadecapole moment (field-independent basis, Debye-Ang**3):
 XXXX=           -123.5407 YYYY=           -400.0587 ZZZZ=            -15.0242 XXXY=             94.0651
 XXXZ=              0.0000 YYYX=            145.8759 YYYZ=             -0.0000 ZZZX=              0.0000
 ZZZY=             -0.0000 XXYY=           -101.3494 XXZZ=            -22.4595 YYZZ=            -49.0416
 XXYZ=             -0.0000 YYXZ=              0.0000 ZZXY=             26.1692
 N-N= 1.187118085062D+01 E-N=-3.356284759371D+01  KE= 5.509309511099D+00
 Symmetry AG   KE= 2.361675775044D+00
 Symmetry BG   KE= 0.000000000000D+00
 Symmetry AU   KE= 0.000000000000D+00
 Symmetry BU   KE= 3.147633736055D+00
                          Isotropic Fermi Contact Couplings
        Atom                 a.u.       MegaHertz       Gauss      10(-4) cm-1
     1  H(1)              -0.09310    -208.06697     -74.24347     -69.40367
     2  H(1)              -0.35288    -788.67550    -281.41902    -263.07383
     3  H(1)               0.03987      89.10480      31.79481      29.72216
     4  H(1)               0.01246      27.85332       9.93876       9.29087
     5  H(1)               0.04987     111.45547      39.77008      37.17754
     6  H(1)              -0.04987    -111.45547     -39.77008     -37.17754
     7  H(1)              -0.01246     -27.85332      -9.93876      -9.29087
     8  H(1)              -0.03987     -89.10480     -31.79481     -29.72216
     9  H(1)               0.35288     788.67550     281.41902     263.07383
    10  H(1)               0.09310     208.06697      74.24347      69.40367
 --------------------------------------------------------
       Center         ----  Spin Dipole Couplings  ----
                      3XX-RR        3YY-RR        3ZZ-RR
 --------------------------------------------------------
     1   Atom        0.020996     -0.038031      0.017036
     2   Atom       -0.002203      0.015521     -0.013318
     3   Atom       -0.025364      0.001460      0.023904
     4   Atom       -0.044539     -0.008687      0.053227
     5   Atom       -0.008749     -0.001132      0.009880
     6   Atom        0.008749      0.001132     -0.009880
     7   Atom        0.044539      0.008687     -0.053227
     8   Atom        0.025364     -0.001460     -0.023904
     9   Atom        0.002203     -0.015521      0.013318
    10   Atom       -0.020996      0.038031     -0.017036
 --------------------------------------------------------
                        XY            XZ            YZ
 --------------------------------------------------------
     1   Atom        0.003879     -0.000000      0.000000
     2   Atom       -0.014275     -0.000000      0.000000
     3   Atom        0.001991     -0.000000     -0.000000
     4   Atom        0.007967     -0.000000      0.000000
     5   Atom       -0.017485      0.000000      0.000000
     6   Atom        0.017485      0.000000      0.000000
     7   Atom       -0.007967     -0.000000      0.000000
     8   Atom       -0.001991     -0.000000      0.000000
     9   Atom        0.014275      0.000000     -0.000000
    10   Atom       -0.003879      0.000000     -0.000000
 --------------------------------------------------------


 ---------------------------------------------------------------------------------
              Anisotropic Spin Dipole Couplings in Principal Axis System
 ---------------------------------------------------------------------------------

       Atom             a.u.   MegaHertz   Gauss  10(-4) cm-1        Axes

              Baa    -0.0383   -20.427    -7.289    -6.814 -0.0653  0.9979  0.0000
     1 H(1)   Bbb     0.0170     9.089     3.243     3.032  0.0000  0.0000  1.0000
              Bcc     0.0212    11.338     4.046     3.782  0.9979  0.0653  0.0000
 
              Baa    -0.0133    -7.106    -2.536    -2.370  0.0000  0.0000  1.0000
     2 H(1)   Bbb    -0.0101    -5.412    -1.931    -1.805  0.8739  0.4861  0.0000
              Bcc     0.0235    12.518     4.467     4.175 -0.4861  0.8739  0.0000
 
              Baa    -0.0255   -13.611    -4.857    -4.540  0.9973 -0.0736  0.0000
     3 H(1)   Bbb     0.0016     0.857     0.306     0.286  0.0736  0.9973 -0.0000
              Bcc     0.0239    12.754     4.551     4.254  0.0000  0.0000  1.0000
 
              Baa    -0.0462   -24.666    -8.801    -8.228  0.9782 -0.2076  0.0000
     4 H(1)   Bbb    -0.0070    -3.733    -1.332    -1.245  0.2076  0.9782  0.0000
              Bcc     0.0532    28.399    10.134     9.473  0.0000  0.0000  1.0000
 
              Baa    -0.0228   -12.184    -4.347    -4.064  0.7787  0.6274  0.0000
     5 H(1)   Bbb     0.0099     5.272     1.881     1.758  0.0000  0.0000  1.0000
              Bcc     0.0130     6.912     2.466     2.306 -0.6274  0.7787 -0.0000
 
              Baa    -0.0130    -6.912    -2.466    -2.306 -0.6274  0.7787  0.0000
     6 H(1)   Bbb    -0.0099    -5.272    -1.881    -1.758  0.0000  0.0000  1.0000
              Bcc     0.0228    12.184     4.347     4.064  0.7787  0.6274  0.0000
 
              Baa    -0.0532   -28.399   -10.134    -9.473  0.0000  0.0000  1.0000
     7 H(1)   Bbb     0.0070     3.733     1.332     1.245  0.2076  0.9782  0.0000
              Bcc     0.0462    24.666     8.801     8.228  0.9782 -0.2076  0.0000
 
              Baa    -0.0239   -12.754    -4.551    -4.254  0.0000  0.0000  1.0000
     8 H(1)   Bbb    -0.0016    -0.857    -0.306    -0.286  0.0736  0.9973  0.0000
              Bcc     0.0255    13.611     4.857     4.540  0.9973 -0.0736  0.0000
 
              Baa    -0.0235   -12.518    -4.467    -4.175 -0.4861  0.8739  0.0000
     9 H(1)   Bbb     0.0101     5.412     1.931     1.805  0.8739  0.4861  0.0000
              Bcc     0.0133     7.106     2.536     2.370  0.0000  0.0000  1.0000
 
              Baa    -0.0212   -11.338    -4.046    -3.782  0.9979  0.0653  0.0000
    10 H(1)   Bbb    -0.0170    -9.089    -3.243    -3.032  0.0000  0.0000  1.0000
              Bcc     0.0383    20.427     7.289     6.814 -0.0653  0.9979  0.0000
 

 ---------------------------------------------------------------------------------


 Test job not archived.
 1\1\GINC-SULU\Stability\UHF\Gen\H10\LCJ1\22-Feb-2017\0\\#rhf/gen scf(s
 ymm,tight,novaracc,noincfock,fulldiag) stable=opt guess=read geom=nocr
 owd test\\hf stability analysis of h10 triangular lattice, y= 0.426658
 93407900496\\0,1\H\H,1,1.4188583103\H,1,1.4188583103,2,145.\H,2,1.4188
 583103,1,35.,3,0.,0\H,3,1.4188583103,1,180.,2,0.,0\H,4,1.4188583103,2,
 180.,1,0.,0\H,5,1.4188583103,3,180.,2,0.,0\H,6,1.4188583103,4,180.,1,0
 .,0\H,7,1.4188583103,5,180.,2,0.,0\H,8,1.4188583103,6,180.,1,0.,0\\Ver
 sion=ES64L-G09RevE.01\State=1-AG\HF=-4.98997\S2=1.028018\S2-1=0.\S2A=0
 .243216\RMSD=8.238e-09\Dipole=0.,0.,0.\Quadrupole=1.4224715,2.7717997,
 -4.1942713,0.,4.7064872,0.\PG=C02H [SGH(H10)]\\@


 A BIRD IN THE HAND IS SAFER THAN ONE OVERHEAD.

                       -- NEWTON'S SEVENTH LAW
 Job cpu time:       0 days  0 hours  0 minutes  1.2 seconds.
 File lengths (MBytes):  RWF=     77 Int=      0 D2E=      0 Chk=      2 Scr=      2
 Normal termination of Gaussian 09 at Wed Feb 22 12:31:27 2017.
