 Entering Gaussian System, Link 0=g09
 AtFile(1): H.gbs
            H     0
            S   10   1.00
               1000.000000000000            0.000068713567
                316.227766000000            0.000169141320
                100.000000000000            0.000823394812
                 31.622776600000            0.003425569236
                 10.000000000000            0.013951996000
                  3.162277660000            0.056909313560
                  1.000000000000            0.198286399900
                  0.316227766000            0.496922426700
                  0.100000000000            0.369846276400
                  0.031622776600            0.003752720039
            ****
 Initial command:
 /projects/guscus/apps/gau/g09-e1/g09/l1.exe "/users/lcj1/gaussian/h10/2rows_uhf/ag3bu2/Gau-31312.inp" -scrdir="/users/lcj1/gaussian/h10/2rows_uhf/ag3bu2/"
 Entering Link 1 = /projects/guscus/apps/gau/g09-e1/g09/l1.exe PID=     31313.
  
 Copyright (c) 1988,1990,1992,1993,1995,1998,2003,2009,2015,
            Gaussian, Inc.  All Rights Reserved.
  
 This is part of the Gaussian(R) 09 program.  It is based on
 the Gaussian(R) 03 system (copyright 2003, Gaussian, Inc.),
 the Gaussian(R) 98 system (copyright 1998, Gaussian, Inc.),
 the Gaussian(R) 94 system (copyright 1995, Gaussian, Inc.),
 the Gaussian 92(TM) system (copyright 1992, Gaussian, Inc.),
 the Gaussian 90(TM) system (copyright 1990, Gaussian, Inc.),
 the Gaussian 88(TM) system (copyright 1988, Gaussian, Inc.),
 the Gaussian 86(TM) system (copyright 1986, Carnegie Mellon
 University), and the Gaussian 82(TM) system (copyright 1983,
 Carnegie Mellon University). Gaussian is a federally registered
 trademark of Gaussian, Inc.
  
 This software contains proprietary and confidential information,
 including trade secrets, belonging to Gaussian, Inc.
  
 This software is provided under written license and may be
 used, copied, transmitted, or stored only in accord with that
 written license.
  
 The following legend is applicable only to US Government
 contracts under FAR:
  
                    RESTRICTED RIGHTS LEGEND
  
 Use, reproduction and disclosure by the US Government is
 subject to restrictions as set forth in subparagraphs (a)
 and (c) of the Commercial Computer Software - Restricted
 Rights clause in FAR 52.227-19.
  
 Gaussian, Inc.
 340 Quinnipiac St., Bldg. 40, Wallingford CT 06492
  
  
 ---------------------------------------------------------------
 Warning -- This program may not be used in any manner that
 competes with the business of Gaussian, Inc. or will provide
 assistance to any competitor of Gaussian, Inc.  The licensee
 of this program is prohibited from giving any competitor of
 Gaussian, Inc. access to this program.  By using this program,
 the user acknowledges that Gaussian, Inc. is engaged in the
 business of creating and licensing software in the field of
 computational chemistry and represents and warrants to the
 licensee that it is not a competitor of Gaussian, Inc. and that
 it will not use this program in any manner prohibited above.
 ---------------------------------------------------------------
  

 Cite this work as:
 Gaussian 09, Revision E.01,
 M. J. Frisch, G. W. Trucks, H. B. Schlegel, G. E. Scuseria, 
 M. A. Robb, J. R. Cheeseman, G. Scalmani, V. Barone, B. Mennucci, 
 G. A. Petersson, H. Nakatsuji, M. Caricato, X. Li, H. P. Hratchian, 
 A. F. Izmaylov, J. Bloino, G. Zheng, J. L. Sonnenberg, M. Hada, 
 M. Ehara, K. Toyota, R. Fukuda, J. Hasegawa, M. Ishida, T. Nakajima, 
 Y. Honda, O. Kitao, H. Nakai, T. Vreven, J. A. Montgomery, Jr., 
 J. E. Peralta, F. Ogliaro, M. Bearpark, J. J. Heyd, E. Brothers, 
 K. N. Kudin, V. N. Staroverov, T. Keith, R. Kobayashi, J. Normand, 
 K. Raghavachari, A. Rendell, J. C. Burant, S. S. Iyengar, J. Tomasi, 
 M. Cossi, N. Rega, J. M. Millam, M. Klene, J. E. Knox, J. B. Cross, 
 V. Bakken, C. Adamo, J. Jaramillo, R. Gomperts, R. E. Stratmann, 
 O. Yazyev, A. J. Austin, R. Cammi, C. Pomelli, J. W. Ochterski, 
 R. L. Martin, K. Morokuma, V. G. Zakrzewski, G. A. Voth, 
 P. Salvador, J. J. Dannenberg, S. Dapprich, A. D. Daniels, 
 O. Farkas, J. B. Foresman, J. V. Ortiz, J. Cioslowski, 
 and D. J. Fox, Gaussian, Inc., Wallingford CT, 2013.
 
 ******************************************
 Gaussian 09:  ES64L-G09RevE.01 30-Nov-2015
                22-Feb-2017 
 ******************************************
 %chk=h10.chk
 ----------------------------------------------------------------------
 #rhf/gen scf(symm,tight,novaracc,noincfock,fulldiag) stable=opt guess=
 read geom=nocrowd test
 ----------------------------------------------------------------------
 1/38=1/1;
 2/12=1,17=6,18=5,40=1/2;
 3/5=7,11=2,16=1,25=1,30=1,116=1/1,2,3;
 4/5=1,9=4/1;
 5/5=100002,15=2,16=1,32=2,38=6/2;
 6/7=2,8=2,9=2,10=2,28=1/1;
 8/6=1,10=90,11=11/1;
 9/8=-3,42=1,46=1/14;
 5/5=100002,8=3,16=1,17=40,32=2,38=6/8(-2);
 6/7=2,8=2,9=2,10=2,28=1/1;
 99/5=1,9=1/99;
 ----------------------------------------------------------------------
 hf stability analysis of h10 triangular lattice, y= 0.7305457695626856
 9
 ----------------------------------------------------------------------
 Symbolic Z-matrix:
 Charge =  0 Multiplicity = 1
 H
 H                    1     1.07623 
 H                    1     1.07623  2     94.5 
 H                    2     1.07623  1     85.5     3     0.       0
 H                    3     1.07623  1     180.     2     0.       0
 H                    4     1.07623  2     180.     1     0.       0
 H                    5     1.07623  3     180.     2     0.       0
 H                    6     1.07623  4     180.     1     0.       0
 H                    7     1.07623  5     180.     2     0.       0
 H                    8     1.07623  6     180.     1     0.       0
 
                          Input orientation:                          
 ---------------------------------------------------------------------
 Center     Atomic      Atomic             Coordinates (Angstroms)
 Number     Number       Type             X           Y           Z
 ---------------------------------------------------------------------
      1          1           0        0.000000    0.000000    0.000000
      2          1           0        0.000000    0.000000    1.076230
      3          1           0        1.072912    0.000000   -0.084440
      4          1           0        1.072912    0.000000    0.991790
      5          1           0        2.145825    0.000000   -0.168880
      6          1           0        2.145825    0.000000    0.907350
      7          1           0        3.218737    0.000000   -0.253320
      8          1           0        3.218737    0.000000    0.822910
      9          1           0        4.291650    0.000000   -0.337760
     10          1           0        4.291650    0.000000    0.738470
 ---------------------------------------------------------------------
                    Distance matrix (angstroms):
                    1          2          3          4          5
     1  H    0.000000
     2  H    1.076230   0.000000
     3  H    1.076230   1.580600   0.000000
     4  H    1.461092   1.076230   1.076230   0.000000
     5  H    2.152460   2.480900   1.076230   1.580600   0.000000
     6  H    2.329774   2.152460   1.461092   1.076230   1.076230
     7  H    3.228690   3.482524   2.152460   2.480900   1.076230
     8  H    3.322266   3.228690   2.329774   2.152460   1.461092
     9  H    4.304920   4.518586   3.228690   3.482524   2.152460
    10  H    4.354721   4.304920   3.322266   3.228690   2.329774
                    6          7          8          9         10
     6  H    0.000000
     7  H    1.580600   0.000000
     8  H    1.076230   1.076230   0.000000
     9  H    2.480900   1.076230   1.580600   0.000000
    10  H    2.152460   1.461092   1.076230   1.076230   0.000000
 Stoichiometry    H10
 Framework group  C2H[SGH(H10)]
 Deg. of freedom     9
 Full point group                 C2H     NOp   4
 Largest Abelian subgroup         C2H     NOp   4
 Largest concise Abelian subgroup C2      NOp   2
                         Standard orientation:                         
 ---------------------------------------------------------------------
 Center     Atomic      Atomic             Coordinates (Angstroms)
 Number     Number       Type             X           Y           Z
 ---------------------------------------------------------------------
      1          1           0        2.145825    0.369235   -0.000000
      2          1           0        2.145825   -0.706995   -0.000000
      3          1           0        1.072912    0.453675   -0.000000
      4          1           0        1.072912   -0.622555   -0.000000
      5          1           0       -0.000000    0.538115    0.000000
      6          1           0       -0.000000   -0.538115    0.000000
      7          1           0       -1.072912    0.622555   -0.000000
      8          1           0       -1.072912   -0.453675   -0.000000
      9          1           0       -2.145825    0.706995   -0.000000
     10          1           0       -2.145825   -0.369235   -0.000000
 ---------------------------------------------------------------------
 Rotational constants (GHZ):    174.3993652     21.6277065     19.2415173
 General basis read from cards:  (5D, 7F)
 There are     5 symmetry adapted cartesian basis functions of AG  symmetry.
 There are     0 symmetry adapted cartesian basis functions of BG  symmetry.
 There are     0 symmetry adapted cartesian basis functions of AU  symmetry.
 There are     5 symmetry adapted cartesian basis functions of BU  symmetry.
 There are     5 symmetry adapted basis functions of AG  symmetry.
 There are     0 symmetry adapted basis functions of BG  symmetry.
 There are     0 symmetry adapted basis functions of AU  symmetry.
 There are     5 symmetry adapted basis functions of BU  symmetry.
    10 basis functions,   100 primitive gaussians,    10 cartesian basis functions
     5 alpha electrons        5 beta electrons
       nuclear repulsion energy        13.7388730659 Hartrees.
 NAtoms=   10 NActive=   10 NUniq=    5 SFac= 4.00D+00 NAtFMM=   60 NAOKFM=F Big=F
 Integral buffers will be    131072 words long.
 Raffenetti 2 integral format.
 Two-electron integral symmetry is turned on.
 One-electron integrals computed using PRISM.
 NBasis=    10 RedAO= T EigKep=  1.23D-01  NBF=     5     0     0     5
 NBsUse=    10 1.00D-06 EigRej= -1.00D+00 NBFU=     5     0     0     5
 Initial guess from the checkpoint file:  "h10.chk"
 B after Tr=     0.000000    0.000000   -0.000000
         Rot=    0.905204   -0.000000    0.000000    0.424977 Ang=  50.30 deg.
 Initial guess orbital symmetries:
       Occupied  (AG) (BU) (AG) (BU) (AG)
       Virtual   (BU) (BU) (AG) (BU) (AG)
 Keep R1 ints in memory in symmetry-blocked form, NReq=879399.
 Requested convergence on RMS density matrix=1.00D-08 within 128 cycles.
 Requested convergence on MAX density matrix=1.00D-06.
 Requested convergence on             energy=1.00D-06.
 No special actions if energy rises.
 SCF Done:  E(RHF) =  -4.88385555315     A.U. after   13 cycles
            NFock= 13  Conv=0.43D-08     -V/T= 1.9577

 **********************************************************************

            Population analysis using the SCF density.

 **********************************************************************

 Orbital symmetries:
       Occupied  (AG) (BU) (AG) (BU) (AG)
       Virtual   (BU) (BU) (AG) (AG) (BU)
 The electronic state is 1-AG.
 Alpha  occ. eigenvalues --   -0.87697  -0.74488  -0.52668  -0.46711  -0.31058
 Alpha virt. eigenvalues --   -0.01481   0.15547   0.36399   0.51496   0.89390
          Condensed to atoms (all electrons):
               1          2          3          4          5          6
     1  H    0.844727  -0.052822   0.457080  -0.170295  -0.020218  -0.071238
     2  H   -0.052822   0.761972  -0.151589   0.443007  -0.050952  -0.009871
     3  H    0.457080  -0.151589   1.046207  -0.373787   0.213273  -0.125416
     4  H   -0.170295   0.443007  -0.373787   1.034347  -0.093630   0.225620
     5  H   -0.020218  -0.050952   0.213273  -0.093630   0.850418   0.095746
     6  H   -0.071238  -0.009871  -0.125416   0.225620   0.095746   0.850418
     7  H   -0.012688   0.005925  -0.044073   0.018193   0.225620  -0.093630
     8  H    0.007217  -0.011854   0.017077  -0.044073  -0.125416   0.213273
     9  H   -0.000638   0.002088  -0.011854   0.005925  -0.009871  -0.050952
    10  H    0.003125  -0.000638   0.007217  -0.012688  -0.071238  -0.020218
               7          8          9         10
     1  H   -0.012688   0.007217  -0.000638   0.003125
     2  H    0.005925  -0.011854   0.002088  -0.000638
     3  H   -0.044073   0.017077  -0.011854   0.007217
     4  H    0.018193  -0.044073   0.005925  -0.012688
     5  H    0.225620  -0.125416  -0.009871  -0.071238
     6  H   -0.093630   0.213273  -0.050952  -0.020218
     7  H    1.034347  -0.373787   0.443007  -0.170295
     8  H   -0.373787   1.046207  -0.151589   0.457080
     9  H    0.443007  -0.151589   0.761972  -0.052822
    10  H   -0.170295   0.457080  -0.052822   0.844727
 Mulliken charges:
               1
     1  H    0.015750
     2  H    0.064734
     3  H   -0.034136
     4  H   -0.032619
     5  H   -0.013729
     6  H   -0.013729
     7  H   -0.032619
     8  H   -0.034136
     9  H    0.064734
    10  H    0.015750
 Sum of Mulliken charges =   0.00000
 Mulliken charges with hydrogens summed into heavy atoms:
               1
 Electronic spatial extent (au):  <R**2>=            123.0622
 Charge=              0.0000 electrons
 Dipole moment (field-independent basis, Debye):
    X=             -0.0000    Y=             -0.0000    Z=             -0.0000  Tot=              0.0000
 Quadrupole moment (field-independent basis, Debye-Ang):
   XX=            -10.1114   YY=            -17.2794   ZZ=            -12.9554
   XY=             -1.1570   XZ=              0.0000   YZ=             -0.0000
 Traceless Quadrupole moment (field-independent basis, Debye-Ang):
   XX=              3.3373   YY=             -3.8306   ZZ=              0.4934
   XY=             -1.1570   XZ=              0.0000   YZ=             -0.0000
 Octapole moment (field-independent basis, Debye-Ang**2):
  XXX=             -0.0000  YYY=             -0.0000  ZZZ=              0.0000  XYY=             -0.0000
  XXY=             -0.0000  XXZ=              0.0000  XZZ=              0.0000  YZZ=             -0.0000
  YYZ=              0.0000  XYZ=              0.0000
 Hexadecapole moment (field-independent basis, Debye-Ang**3):
 XXXX=           -161.3824 YYYY=            -51.2526 ZZZZ=            -15.6454 XXXY=             -0.6963
 XXXZ=             -0.0000 YYYX=              7.5428 YYYZ=              0.0000 ZZZX=             -0.0000
 ZZZY=              0.0000 XXYY=            -46.8242 XXZZ=            -35.1230 YYZZ=            -10.8757
 XXYZ=             -0.0000 YYXZ=             -0.0000 ZZXY=              2.0965
 N-N= 1.373887306590D+01 E-N=-3.649238508420D+01  KE= 5.099378643888D+00
 Symmetry AG   KE= 3.159054665227D+00
 Symmetry BG   KE= 0.000000000000D+00
 Symmetry AU   KE= 0.000000000000D+00
 Symmetry BU   KE= 1.940323978660D+00
 Range of M.O.s used for correlation:     1    10
 NBasis=    10 NAE=     5 NBE=     5 NFC=     0 NFV=     0
 NROrb=     10 NOA=     5 NOB=     5 NVA=     5 NVB=     5
 Keep R1 and R2 ints in memory in symmetry-blocked form, NReq=802982.
 Orbital symmetries:
       Occupied  (AG) (BU) (AG) (BU) (AG)
       Virtual   (BU) (BU) (AG) (AG) (BU)
    24 initial guesses have been made.
 Convergence on wavefunction:    0.001000000000000
 Iteration     1 Dimension    24 NMult     0 NNew     24
 CISAX will form    24 AO SS matrices at one time.
 New state      1 was old state      2
 Iteration     2 Dimension    48 NMult    24 NNew     24
 Iteration     3 Dimension    50 NMult    48 NNew      2
 ***********************************************************************
 Stability analysis using <AA,BB:AA,BB> singles matrix:
 ***********************************************************************

 Eigenvectors of the stability matrix:
 
 Eigenvector   1:      Triplet-BU   Eigenvalue=-0.1354026  <S**2>=2.000
       2 ->  9        -0.11338
       3 ->  7         0.19673
       4 ->  8        -0.17783
       5 ->  6         0.63725
 
 Eigenvector   2:      Triplet-AG   Eigenvalue= 0.0359013  <S**2>=2.000
       2 ->  7        -0.10443
       4 ->  6         0.61901
       5 ->  8        -0.29272
 
 Eigenvector   3:      Triplet-BU   Eigenvalue= 0.0382544  <S**2>=2.000
       1 ->  6        -0.10494
       2 ->  8         0.10748
       3 ->  6         0.36313
       4 ->  9         0.15504
       5 ->  7         0.56134
 
 Eigenvector   4:      Singlet-BU   Eigenvalue= 0.0702525  <S**2>=0.000
       5 ->  6         0.69360
 
 Eigenvector   5:      Singlet-BU   Eigenvalue= 0.1722506  <S**2>=0.000
       3 ->  6        -0.47307
       5 ->  7         0.51278
 
 Eigenvector   6:      Singlet-AG   Eigenvalue= 0.2211803  <S**2>=0.000
       4 ->  6         0.70362
 SavETr:  write IOETrn=   770 NScale= 10 NData=  16 NLR=1 NState=    6 LETran=     118.
 The wavefunction has an RHF -> UHF instability.
 Keep R1 and R2 ints in memory in symmetry-blocked form, NReq=860738.
 The two search directions are symmetric.
 Gradient too large for Newton-Raphson -- use scaled steepest descent instead.
 Gradient too large for Newton-Raphson -- use scaled steepest descent instead.
 LinEq1:  Iter=  0 NonCon=     1 RMS=9.92D-04 Max=3.64D-03 NDo=     1
 AX will form     1 AO Fock derivatives at one time.
 LinEq1:  Iter=  1 NonCon=     1 RMS=3.66D-04 Max=1.14D-03 NDo=     1
 LinEq1:  Iter=  2 NonCon=     1 RMS=4.85D-05 Max=1.23D-04 NDo=     1
 LinEq1:  Iter=  3 NonCon=     1 RMS=5.27D-06 Max=1.74D-05 NDo=     1
 LinEq1:  Iter=  4 NonCon=     1 RMS=8.16D-07 Max=1.82D-06 NDo=     1
 LinEq1:  Iter=  5 NonCon=     1 RMS=9.01D-08 Max=2.34D-07 NDo=     1
 LinEq1:  Iter=  6 NonCon=     1 RMS=1.13D-08 Max=2.74D-08 NDo=     1
 LinEq1:  Iter=  7 NonCon=     1 RMS=1.61D-09 Max=4.04D-09 NDo=     1
 LinEq1:  Iter=  8 NonCon=     0 RMS=2.01D-10 Max=6.27D-10 NDo=     1
 Linear equations converged to 1.000D-09 1.000D-08 after     8 iterations.
     Accept linear search using points  1 and  2.
     Minimum is close to point  2 DX= -1.12D-03 DF= -8.83D-11 DXR=  1.12D-03 DFR=  1.26D-06 which will be used.
 LinEq1:  Iter=  0 NonCon=     1 RMS=4.68D-06 Max=1.22D-05 NDo=     1
 LinEq1:  Iter=  1 NonCon=     1 RMS=1.33D-06 Max=3.17D-06 NDo=     1
 LinEq1:  Iter=  2 NonCon=     1 RMS=2.51D-07 Max=5.46D-07 NDo=     1
 LinEq1:  Iter=  3 NonCon=     1 RMS=2.79D-08 Max=8.36D-08 NDo=     1
 LinEq1:  Iter=  4 NonCon=     1 RMS=4.15D-09 Max=9.69D-09 NDo=     1
 LinEq1:  Iter=  5 NonCon=     1 RMS=4.59D-10 Max=1.18D-09 NDo=     1
 LinEq1:  Iter=  6 NonCon=     0 RMS=6.86D-11 Max=1.45D-10 NDo=     1
 Linear equations converged to 3.024D-10 3.024D-09 after     6 iterations.
 Density matrix breaks symmetry, PCut= 1.00D-04
 Density matrix has no symmetry -- integrals replicated.
 Density matrix is not symmetric, so final MOs not symmetrized.
 SCF Done:  E(UHF) =  -4.96053915808     a.u. after    5 cycles
            Convg  =    0.8189D-08                    37 Fock formations.
              S**2 =  1.3773                  -V/T =  1.9332
 <Sx>= 0.0000 <Sy>= 0.0000 <Sz>= 0.0000 <S**2>= 1.3773 S= 0.7757
 <L.S>= 0.000000000000E+00
 Annihilation of the first spin contaminant:
 S**2 before annihilation     1.3773,   after     2.9302
 Range of M.O.s used for correlation:     1    10
 NBasis=    10 NAE=     5 NBE=     5 NFC=     0 NFV=     0
 NROrb=     10 NOA=     5 NOB=     5 NVA=     5 NVB=     5
 Keep R1 and R2 ints in memory in symmetry-blocked form, NReq=802982.
 Orbital symmetries:
 Alpha Orbitals:
       Occupied  (BG) (BG) (BG) (BG) (BG)
       Virtual   (BG) (BG) (BG) (BG) (BG)
 Beta  Orbitals:
       Occupied  (BG) (BG) (BG) (BG) (BG)
       Virtual   (BG) (BG) (BG) (BG) (BG)
    12 initial guesses have been made.
 Convergence on wavefunction:    0.001000000000000
 Iteration     1 Dimension    12 NMult     0 NNew     12
 CISAX will form    12 AO SS matrices at one time.
 Iteration     2 Dimension    24 NMult    12 NNew     12
 Iteration     3 Dimension    27 NMult    24 NNew      3
 Iteration     4 Dimension    30 NMult    27 NNew      3
 ***********************************************************************
 Stability analysis using <AA,BB:AA,BB> singles matrix:
 ***********************************************************************

 Eigenvectors of the stability matrix:
 
 Eigenvector   1:  1.979-AG   Eigenvalue= 0.1419533  <S**2>=0.729
      4A ->  7A        0.22430
      5A ->  6A        0.65707
      4B ->  7B       -0.22430
      5B ->  6B       -0.65707
 SavETr:  write IOETrn=   770 NScale= 10 NData=  16 NLR=1 NState=    1 LETran=      28.
 The wavefunction is stable under the perturbations considered.
 The wavefunction is already stable.

 **********************************************************************

            Population analysis using the SCF density.

 **********************************************************************

 Orbital symmetries:
 Alpha Orbitals:
       Occupied  (BG) (BG) (BG) (BG) (BG)
       Virtual   (BG) (BG) (BG) (BG) (BG)
 Beta  Orbitals:
       Occupied  (BG) (BG) (BG) (BG) (BG)
       Virtual   (BG) (BG) (BG) (BG) (BG)
 Unable to determine electronic state:  partially filled degenerate orbitals.
 Alpha  occ. eigenvalues --   -0.87306  -0.74968  -0.55798  -0.45478  -0.38945
 Alpha virt. eigenvalues --    0.07032   0.20011   0.37420   0.52862   0.90710
  Beta  occ. eigenvalues --   -0.87306  -0.74968  -0.55798  -0.45478  -0.38945
  Beta virt. eigenvalues --    0.07032   0.20011   0.37420   0.52862   0.90710
          Condensed to atoms (all electrons):
               1          2          3          4          5          6
     1  H    0.914637   0.133746   0.169326  -0.171278  -0.016158  -0.057105
     2  H    0.133746   0.879148  -0.158153   0.154108  -0.037720  -0.017179
     3  H    0.169326  -0.158153   1.095490  -0.085520   0.206563  -0.122481
     4  H   -0.171278   0.154108  -0.085520   1.071848  -0.112862   0.228022
     5  H   -0.016158  -0.037720   0.206563  -0.112862   0.918602   0.012292
     6  H   -0.057105  -0.017179  -0.122481   0.228022   0.012292   0.918602
     7  H    0.001264   0.006223  -0.040207  -0.029348   0.228022  -0.112862
     8  H    0.007176   0.002177  -0.042313  -0.040207  -0.122481   0.206563
     9  H   -0.000754   0.000401   0.002177   0.006223  -0.017179  -0.037720
    10  H    0.000869  -0.000754   0.007176   0.001264  -0.057105  -0.016158
               7          8          9         10
     1  H    0.001264   0.007176  -0.000754   0.000869
     2  H    0.006223   0.002177   0.000401  -0.000754
     3  H   -0.040207  -0.042313   0.002177   0.007176
     4  H   -0.029348  -0.040207   0.006223   0.001264
     5  H    0.228022  -0.122481  -0.017179  -0.057105
     6  H   -0.112862   0.206563  -0.037720  -0.016158
     7  H    1.071848  -0.085520   0.154108  -0.171278
     8  H   -0.085520   1.095490  -0.158153   0.169326
     9  H    0.154108  -0.158153   0.879148   0.133746
    10  H   -0.171278   0.169326   0.133746   0.914637
          Atomic-Atomic Spin Densities.
               1          2          3          4          5          6
     1  H   -0.753499  -0.020038   0.004309   0.172893   0.011143   0.006003
     2  H   -0.020038   0.738578  -0.153509   0.039851   0.001485  -0.010621
     3  H    0.004309  -0.153509   0.868109   0.002599  -0.036863  -0.082102
     4  H    0.172893   0.039851   0.002599  -0.863749   0.074966  -0.031647
     5  H    0.011143   0.001485  -0.036863   0.074966  -0.573451  -0.000000
     6  H    0.006003  -0.010621  -0.082102  -0.031647  -0.000000   0.573451
     7  H    0.000047   0.008275  -0.059422  -0.000000   0.031647  -0.074966
     8  H   -0.011022  -0.001188   0.000000   0.059422   0.082102   0.036863
     9  H    0.001425   0.000000   0.001188  -0.008275   0.010621  -0.001485
    10  H    0.000000  -0.001425   0.011022  -0.000047  -0.006003  -0.011143
               7          8          9         10
     1  H    0.000047  -0.011022   0.001425   0.000000
     2  H    0.008275  -0.001188   0.000000  -0.001425
     3  H   -0.059422   0.000000   0.001188   0.011022
     4  H   -0.000000   0.059422  -0.008275  -0.000047
     5  H    0.031647   0.082102   0.010621  -0.006003
     6  H   -0.074966   0.036863  -0.001485  -0.011143
     7  H    0.863749  -0.002599  -0.039851  -0.172893
     8  H   -0.002599  -0.868109   0.153509  -0.004309
     9  H   -0.039851   0.153509  -0.738578   0.020038
    10  H   -0.172893  -0.004309   0.020038   0.753499
 Mulliken charges and spin densities:
               1          2
     1  H    0.018277  -0.588739
     2  H    0.038004   0.601409
     3  H   -0.032058   0.555331
     4  H   -0.022249  -0.553988
     5  H   -0.001974  -0.404354
     6  H   -0.001974   0.404354
     7  H   -0.022249   0.553988
     8  H   -0.032058  -0.555331
     9  H    0.038004  -0.601409
    10  H    0.018277   0.588739
 Sum of Mulliken charges =  -0.00000   0.00000
 Mulliken charges and spin densities with hydrogens summed into heavy atoms:
               1          2
 Electronic spatial extent (au):  <R**2>=            123.7596
 Charge=             -0.0000 electrons
 Dipole moment (field-independent basis, Debye):
    X=             -0.0000    Y=             -0.0000    Z=             -0.0000  Tot=              0.0000
 Quadrupole moment (field-independent basis, Debye-Ang):
   XX=            -12.9974   YY=            -15.4947   ZZ=            -12.7921
   XY=             -0.5701   XZ=             -0.0000   YZ=             -0.0000
 Traceless Quadrupole moment (field-independent basis, Debye-Ang):
   XX=              0.7640   YY=             -1.7333   ZZ=              0.9693
   XY=             -0.5701   XZ=             -0.0000   YZ=             -0.0000
 Octapole moment (field-independent basis, Debye-Ang**2):
  XXX=              0.0000  YYY=             -0.0000  ZZZ=              0.0000  XYY=             -0.0000
  XXY=             -0.0000  XXZ=              0.0000  XZZ=              0.0000  YZZ=             -0.0000
  YYZ=              0.0000  XYZ=              0.0000
 Hexadecapole moment (field-independent basis, Debye-Ang**3):
 XXXX=           -204.0217 YYYY=            -46.5348 ZZZZ=            -15.3389 XXXY=              4.7781
 XXXZ=             -0.0000 YYYX=              7.0606 YYYZ=              0.0000 ZZZX=             -0.0000
 ZZZY=              0.0000 XXYY=            -42.9025 XXZZ=            -35.6882 YYZZ=            -10.1529
 XXYZ=              0.0000 YYXZ=             -0.0000 ZZXY=              2.2307
 N-N= 1.373887306590D+01 E-N=-3.666427096753D+01  KE= 5.315352969173D+00
 Symmetry AG   KE= 2.528468725485D+00
 Symmetry BG   KE= 0.000000000000D+00
 Symmetry AU   KE= 0.000000000000D+00
 Symmetry BU   KE= 2.786884243687D+00
                          Isotropic Fermi Contact Couplings
        Atom                 a.u.       MegaHertz       Gauss      10(-4) cm-1
     1  H(1)              -0.21651    -483.88075    -172.66068    -161.40524
     2  H(1)               0.21593     482.60020     172.20375     160.97810
     3  H(1)               0.23898     534.09886     190.57975     178.15620
     4  H(1)              -0.23822    -532.41118    -189.97754    -177.59325
     5  H(1)              -0.16064    -359.01007    -128.10372    -119.75287
     6  H(1)               0.16064     359.01007     128.10372     119.75287
     7  H(1)               0.23822     532.41118     189.97754     177.59325
     8  H(1)              -0.23898    -534.09886    -190.57975    -178.15620
     9  H(1)              -0.21593    -482.60020    -172.20375    -160.97810
    10  H(1)               0.21651     483.88075     172.66068     161.40524
 --------------------------------------------------------
       Center         ----  Spin Dipole Couplings  ----
                      3XX-RR        3YY-RR        3ZZ-RR
 --------------------------------------------------------
     1   Atom        0.035849      0.037117     -0.072966
     2   Atom       -0.034491     -0.038042      0.072532
     3   Atom       -0.094953     -0.000131      0.095084
     4   Atom        0.088627      0.004781     -0.093408
     5   Atom        0.124649     -0.039069     -0.085580
     6   Atom       -0.124649      0.039069      0.085580
     7   Atom       -0.088627     -0.004781      0.093408
     8   Atom        0.094953      0.000131     -0.095084
     9   Atom        0.034491      0.038042     -0.072532
    10   Atom       -0.035849     -0.037117      0.072966
 --------------------------------------------------------
                        XY            XZ            YZ
 --------------------------------------------------------
     1   Atom       -0.042962     -0.000000      0.000000
     2   Atom       -0.023822      0.000000      0.000000
     3   Atom        0.004847      0.000000     -0.000000
     4   Atom       -0.031456     -0.000000      0.000000
     5   Atom       -0.022476      0.000000     -0.000000
     6   Atom        0.022476     -0.000000     -0.000000
     7   Atom        0.031456     -0.000000      0.000000
     8   Atom       -0.004847      0.000000      0.000000
     9   Atom        0.023822      0.000000      0.000000
    10   Atom        0.042962     -0.000000      0.000000
 --------------------------------------------------------


 ---------------------------------------------------------------------------------
              Anisotropic Spin Dipole Couplings in Principal Axis System
 ---------------------------------------------------------------------------------

       Atom             a.u.   MegaHertz   Gauss  10(-4) cm-1        Axes

              Baa    -0.0730   -38.931   -13.892   -12.986  0.0000  0.0000  1.0000
     1 H(1)   Bbb    -0.0065    -3.460    -1.234    -1.154  0.7123  0.7019  0.0000
              Bcc     0.0795    42.391    15.126    14.140 -0.7019  0.7123  0.0000
 
              Baa    -0.0602   -32.095   -11.452   -10.706  0.6803  0.7329  0.0000
     2 H(1)   Bbb    -0.0124    -6.604    -2.357    -2.203  0.7329 -0.6803  0.0000
              Bcc     0.0725    38.700    13.809    12.909  0.0000  0.0000  1.0000
 
              Baa    -0.0952   -50.794   -18.125   -16.943  0.9987 -0.0509  0.0000
     3 H(1)   Bbb     0.0001     0.062     0.022     0.021  0.0509  0.9987  0.0000
              Bcc     0.0951    50.733    18.103    16.923  0.0000  0.0000  1.0000
 
              Baa    -0.0934   -49.838   -17.783   -16.624  0.0000  0.0000  1.0000
     4 H(1)   Bbb    -0.0057    -3.046    -1.087    -1.016  0.3163  0.9487  0.0000
              Bcc     0.0991    52.884    18.870    17.640  0.9487 -0.3163  0.0000
 
              Baa    -0.0856   -45.661   -16.293   -15.231  0.0000  0.0000  1.0000
     5 H(1)   Bbb    -0.0421   -22.462    -8.015    -7.492  0.1336  0.9910  0.0000
              Bcc     0.1277    68.123    24.308    22.723  0.9910 -0.1336  0.0000
 
              Baa    -0.1277   -68.123   -24.308   -22.723  0.9910 -0.1336  0.0000
     6 H(1)   Bbb     0.0421    22.462     8.015     7.492  0.1336  0.9910 -0.0000
              Bcc     0.0856    45.661    16.293    15.231  0.0000  0.0000  1.0000
 
              Baa    -0.0991   -52.884   -18.870   -17.640  0.9487 -0.3163  0.0000
     7 H(1)   Bbb     0.0057     3.046     1.087     1.016  0.3163  0.9487  0.0000
              Bcc     0.0934    49.838    17.783    16.624  0.0000  0.0000  1.0000
 
              Baa    -0.0951   -50.733   -18.103   -16.923  0.0000  0.0000  1.0000
     8 H(1)   Bbb    -0.0001    -0.062    -0.022    -0.021  0.0509  0.9987 -0.0000
              Bcc     0.0952    50.794    18.125    16.943  0.9987 -0.0509  0.0000
 
              Baa    -0.0725   -38.700   -13.809   -12.909  0.0000  0.0000  1.0000
     9 H(1)   Bbb     0.0124     6.604     2.357     2.203  0.7329 -0.6803  0.0000
              Bcc     0.0602    32.095    11.452    10.706  0.6803  0.7329  0.0000
 
              Baa    -0.0795   -42.391   -15.126   -14.140 -0.7019  0.7123  0.0000
    10 H(1)   Bbb     0.0065     3.460     1.234     1.154  0.7123  0.7019  0.0000
              Bcc     0.0730    38.931    13.892    12.986  0.0000  0.0000  1.0000
 

 ---------------------------------------------------------------------------------


 Test job not archived.
 1\1\GINC-SULU\Stability\UHF\Gen\H10\LCJ1\22-Feb-2017\0\\#rhf/gen scf(s
 ymm,tight,novaracc,noincfock,fulldiag) stable=opt guess=read geom=nocr
 owd test\\hf stability analysis of h10 triangular lattice, y= 0.730545
 76956268569\\0,1\H\H,1,1.0762300395\H,1,1.0762300395,2,94.5\H,2,1.0762
 300395,1,85.5,3,0.,0\H,3,1.0762300395,1,180.,2,0.,0\H,4,1.0762300395,2
 ,180.,1,0.,0\H,5,1.0762300395,3,180.,2,0.,0\H,6,1.0762300395,4,180.,1,
 0.,0\H,7,1.0762300395,5,180.,2,0.,0\H,8,1.0762300395,6,180.,1,0.,0\\Ve
 rsion=ES64L-G09RevE.01\State=1-AG\HF=-4.9605392\S2=1.377347\S2-1=0.\S2
 A=2.930245\RMSD=4.254e-09\Dipole=0.,0.,0.\Quadrupole=0.5680044,0.72063
 99,-1.2886443,0.,-0.4238813,0.\PG=C02H [SGH(H10)]\\@


 WE LEARN WISDOM FROM FAILURE MUCH MORE THAN FROM SUCCESS.
 WE DISCOVER WHAT WILL DO BY FINDING OUT WHAT WILL NOT DO...
 AND HE WHO NEVER MADE A MISTAKE NEVER MADE A DISCOVERY
 Job cpu time:       0 days  0 hours  0 minutes  1.2 seconds.
 File lengths (MBytes):  RWF=     77 Int=      0 D2E=      0 Chk=      2 Scr=      2
 Normal termination of Gaussian 09 at Wed Feb 22 12:37:17 2017.
