 Entering Gaussian System, Link 0=g09
 AtFile(1): H.gbs
            H     0
            S   10   1.00
               1000.000000000000            0.000068713567
                316.227766000000            0.000169141320
                100.000000000000            0.000823394812
                 31.622776600000            0.003425569236
                 10.000000000000            0.013951996000
                  3.162277660000            0.056909313560
                  1.000000000000            0.198286399900
                  0.316227766000            0.496922426700
                  0.100000000000            0.369846276400
                  0.031622776600            0.003752720039
            ****
 Initial command:
 /projects/guscus/apps/gau/g09-e1/g09/l1.exe "/users/lcj1/gaussian/h10/2rows_uhf/ag3bu2/Gau-14157.inp" -scrdir="/users/lcj1/gaussian/h10/2rows_uhf/ag3bu2/"
 Entering Link 1 = /projects/guscus/apps/gau/g09-e1/g09/l1.exe PID=     14158.
  
 Copyright (c) 1988,1990,1992,1993,1995,1998,2003,2009,2015,
            Gaussian, Inc.  All Rights Reserved.
  
 This is part of the Gaussian(R) 09 program.  It is based on
 the Gaussian(R) 03 system (copyright 2003, Gaussian, Inc.),
 the Gaussian(R) 98 system (copyright 1998, Gaussian, Inc.),
 the Gaussian(R) 94 system (copyright 1995, Gaussian, Inc.),
 the Gaussian 92(TM) system (copyright 1992, Gaussian, Inc.),
 the Gaussian 90(TM) system (copyright 1990, Gaussian, Inc.),
 the Gaussian 88(TM) system (copyright 1988, Gaussian, Inc.),
 the Gaussian 86(TM) system (copyright 1986, Carnegie Mellon
 University), and the Gaussian 82(TM) system (copyright 1983,
 Carnegie Mellon University). Gaussian is a federally registered
 trademark of Gaussian, Inc.
  
 This software contains proprietary and confidential information,
 including trade secrets, belonging to Gaussian, Inc.
  
 This software is provided under written license and may be
 used, copied, transmitted, or stored only in accord with that
 written license.
  
 The following legend is applicable only to US Government
 contracts under FAR:
  
                    RESTRICTED RIGHTS LEGEND
  
 Use, reproduction and disclosure by the US Government is
 subject to restrictions as set forth in subparagraphs (a)
 and (c) of the Commercial Computer Software - Restricted
 Rights clause in FAR 52.227-19.
  
 Gaussian, Inc.
 340 Quinnipiac St., Bldg. 40, Wallingford CT 06492
  
  
 ---------------------------------------------------------------
 Warning -- This program may not be used in any manner that
 competes with the business of Gaussian, Inc. or will provide
 assistance to any competitor of Gaussian, Inc.  The licensee
 of this program is prohibited from giving any competitor of
 Gaussian, Inc. access to this program.  By using this program,
 the user acknowledges that Gaussian, Inc. is engaged in the
 business of creating and licensing software in the field of
 computational chemistry and represents and warrants to the
 licensee that it is not a competitor of Gaussian, Inc. and that
 it will not use this program in any manner prohibited above.
 ---------------------------------------------------------------
  

 Cite this work as:
 Gaussian 09, Revision E.01,
 M. J. Frisch, G. W. Trucks, H. B. Schlegel, G. E. Scuseria, 
 M. A. Robb, J. R. Cheeseman, G. Scalmani, V. Barone, B. Mennucci, 
 G. A. Petersson, H. Nakatsuji, M. Caricato, X. Li, H. P. Hratchian, 
 A. F. Izmaylov, J. Bloino, G. Zheng, J. L. Sonnenberg, M. Hada, 
 M. Ehara, K. Toyota, R. Fukuda, J. Hasegawa, M. Ishida, T. Nakajima, 
 Y. Honda, O. Kitao, H. Nakai, T. Vreven, J. A. Montgomery, Jr., 
 J. E. Peralta, F. Ogliaro, M. Bearpark, J. J. Heyd, E. Brothers, 
 K. N. Kudin, V. N. Staroverov, T. Keith, R. Kobayashi, J. Normand, 
 K. Raghavachari, A. Rendell, J. C. Burant, S. S. Iyengar, J. Tomasi, 
 M. Cossi, N. Rega, J. M. Millam, M. Klene, J. E. Knox, J. B. Cross, 
 V. Bakken, C. Adamo, J. Jaramillo, R. Gomperts, R. E. Stratmann, 
 O. Yazyev, A. J. Austin, R. Cammi, C. Pomelli, J. W. Ochterski, 
 R. L. Martin, K. Morokuma, V. G. Zakrzewski, G. A. Voth, 
 P. Salvador, J. J. Dannenberg, S. Dapprich, A. D. Daniels, 
 O. Farkas, J. B. Foresman, J. V. Ortiz, J. Cioslowski, 
 and D. J. Fox, Gaussian, Inc., Wallingford CT, 2013.
 
 ******************************************
 Gaussian 09:  ES64L-G09RevE.01 30-Nov-2015
                22-Feb-2017 
 ******************************************
 %chk=h10.chk
 ----------------------------------------------------------------------
 #rhf/gen scf(symm,tight,novaracc,noincfock,fulldiag) stable=opt guess=
 read geom=nocrowd test
 ----------------------------------------------------------------------
 1/38=1/1;
 2/12=1,17=6,18=5,40=1/2;
 3/5=7,11=2,16=1,25=1,30=1,116=1/1,2,3;
 4/5=1,9=4/1;
 5/5=100002,15=2,16=1,32=2,38=6/2;
 6/7=2,8=2,9=2,10=2,28=1/1;
 8/6=1,10=90,11=11/1;
 9/8=-3,42=1,46=1/14;
 5/5=100002,8=3,16=1,17=40,32=2,38=6/8(-2);
 6/7=2,8=2,9=2,10=2,28=1/1;
 99/5=1,9=1/99;
 ----------------------------------------------------------------------
 hf stability analysis of h10 triangular lattice, y= 0.3023959355609886
 5
 ----------------------------------------------------------------------
 Symbolic Z-matrix:
 Charge =  0 Multiplicity = 1
 H
 H                    1     1.93305 
 H                    1     1.93305  2     162. 
 H                    2     1.93305  1     18.      3     0.       0
 H                    3     1.93305  1     180.     2     0.       0
 H                    4     1.93305  2     180.     1     0.       0
 H                    5     1.93305  3     180.     2     0.       0
 H                    6     1.93305  4     180.     1     0.       0
 H                    7     1.93305  5     180.     2     0.       0
 H                    8     1.93305  6     180.     1     0.       0
 
                          Input orientation:                          
 ---------------------------------------------------------------------
 Center     Atomic      Atomic             Coordinates (Angstroms)
 Number     Number       Type             X           Y           Z
 ---------------------------------------------------------------------
      1          1           0        0.000000    0.000000    0.000000
      2          1           0        0.000000    0.000000    1.933052
      3          1           0        0.597346    0.000000   -1.838442
      4          1           0        0.597346    0.000000    0.094610
      5          1           0        1.194692    0.000000   -3.676883
      6          1           0        1.194692    0.000000   -1.743831
      7          1           0        1.792038    0.000000   -5.515325
      8          1           0        1.792038    0.000000   -3.582273
      9          1           0        2.389383    0.000000   -7.353766
     10          1           0        2.389383    0.000000   -5.420714
 ---------------------------------------------------------------------
                    Distance matrix (angstroms):
                    1          2          3          4          5
     1  H    0.000000
     2  H    1.933052   0.000000
     3  H    1.933052   3.818505   0.000000
     4  H    0.604792   1.933052   1.933052   0.000000
     5  H    3.866104   5.735735   1.933052   3.818505   0.000000
     6  H    2.113820   3.866104   0.604792   1.933052   1.933052
     7  H    5.799155   7.660921   3.866104   5.735735   1.933052
     8  H    4.005506   5.799155   2.113820   3.866104   0.604792
     9  H    7.732207   9.589272   5.799155   7.660921   3.866104
    10  H    5.923960   7.732207   4.005506   5.799155   2.113820
                    6          7          8          9         10
     6  H    0.000000
     7  H    3.818505   0.000000
     8  H    1.933052   1.933052   0.000000
     9  H    5.735735   1.933052   3.818505   0.000000
    10  H    3.866104   0.604792   1.933052   1.933052   0.000000
 Stoichiometry    H10
 Framework group  C2H[SGH(H10)]
 Deg. of freedom     9
 Full point group                 C2H     NOp   4
 Largest Abelian subgroup         C2H     NOp   4
 Largest concise Abelian subgroup C2      NOp   2
                         Standard orientation:                         
 ---------------------------------------------------------------------
 Center     Atomic      Atomic             Coordinates (Angstroms)
 Number     Number       Type             X           Y           Z
 ---------------------------------------------------------------------
      1          1           0        1.194692   -2.710357    0.000000
      2          1           0        1.194692   -4.643409    0.000000
      3          1           0        0.597346   -0.871916    0.000000
      4          1           0        0.597346   -2.804967    0.000000
      5          1           0        0.000000    0.966526   -0.000000
      6          1           0       -0.000000   -0.966526   -0.000000
      7          1           0       -0.597346    2.804967    0.000000
      8          1           0       -0.597346    0.871916    0.000000
      9          1           0       -1.194692    4.643409    0.000000
     10          1           0       -1.194692    2.710357    0.000000
 ---------------------------------------------------------------------
 Rotational constants (GHZ):    626.3797538      6.0216800      5.9643421
 General basis read from cards:  (5D, 7F)
 There are     5 symmetry adapted cartesian basis functions of AG  symmetry.
 There are     0 symmetry adapted cartesian basis functions of BG  symmetry.
 There are     0 symmetry adapted cartesian basis functions of AU  symmetry.
 There are     5 symmetry adapted cartesian basis functions of BU  symmetry.
 There are     5 symmetry adapted basis functions of AG  symmetry.
 There are     0 symmetry adapted basis functions of BG  symmetry.
 There are     0 symmetry adapted basis functions of AU  symmetry.
 There are     5 symmetry adapted basis functions of BU  symmetry.
    10 basis functions,   100 primitive gaussians,    10 cartesian basis functions
     5 alpha electrons        5 beta electrons
       nuclear repulsion energy        10.5108312407 Hartrees.
 NAtoms=   10 NActive=   10 NUniq=    5 SFac= 4.00D+00 NAtFMM=   60 NAOKFM=F Big=F
 Integral buffers will be    131072 words long.
 Raffenetti 2 integral format.
 Two-electron integral symmetry is turned on.
 One-electron integrals computed using PRISM.
 NBasis=    10 RedAO= T EigKep=  1.41D-01  NBF=     5     0     0     5
 NBsUse=    10 1.00D-06 EigRej= -1.00D+00 NBFU=     5     0     0     5
 Initial guess from the checkpoint file:  "h10.chk"
 B after Tr=     0.000000   -0.000000    0.000000
         Rot=    0.523109    0.000000    0.000000    0.852266 Ang= 116.92 deg.
 Initial guess orbital symmetries:
       Occupied  (AG) (BU) (AG) (BU) (AG)
       Virtual   (BU) (BU) (AG) (BU) (AG)
 Keep R1 ints in memory in symmetry-blocked form, NReq=873183.
 Requested convergence on RMS density matrix=1.00D-08 within 128 cycles.
 Requested convergence on MAX density matrix=1.00D-06.
 Requested convergence on             energy=1.00D-06.
 No special actions if energy rises.
 SCF Done:  E(RHF) =  -4.85351979100     A.U. after    9 cycles
            NFock=  9  Conv=0.68D-08     -V/T= 2.0026

 **********************************************************************

            Population analysis using the SCF density.

 **********************************************************************

 Orbital symmetries:
       Occupied  (AG) (BU) (AG) (BU) (AG)
       Virtual   (BU) (BU) (AG) (BU) (AG)
 The electronic state is 1-AG.
 Alpha  occ. eigenvalues --   -0.73548  -0.70487  -0.65706  -0.60508  -0.19515
 Alpha virt. eigenvalues --   -0.13888   0.38563   0.46075   0.57148   0.67831
          Condensed to atoms (all electrons):
               1          2          3          4          5          6
     1  H    0.597240  -0.030281  -0.035754   0.493508   0.000341  -0.029635
     2  H   -0.030281   1.069215  -0.000093  -0.029700   0.000031   0.000238
     3  H   -0.035754  -0.000093   0.625006  -0.035231  -0.037325   0.513320
     4  H    0.493508  -0.029700  -0.035231   0.603202   0.000325  -0.036202
     5  H    0.000341   0.000031  -0.037325   0.000325   0.623972  -0.036616
     6  H   -0.029635   0.000238   0.513320  -0.036202  -0.036616   0.623972
     7  H    0.000011  -0.000004   0.000385   0.000013  -0.036202   0.000325
     8  H    0.000339   0.000017  -0.030615   0.000385   0.513320  -0.037325
     9  H   -0.000003   0.000001   0.000017  -0.000004   0.000238   0.000031
    10  H    0.000009  -0.000003   0.000339   0.000011  -0.029635   0.000341
               7          8          9         10
     1  H    0.000011   0.000339  -0.000003   0.000009
     2  H   -0.000004   0.000017   0.000001  -0.000003
     3  H    0.000385  -0.030615   0.000017   0.000339
     4  H    0.000013   0.000385  -0.000004   0.000011
     5  H   -0.036202   0.513320   0.000238  -0.029635
     6  H    0.000325  -0.037325   0.000031   0.000341
     7  H    0.603202  -0.035231  -0.029700   0.493508
     8  H   -0.035231   0.625006  -0.000093  -0.035754
     9  H   -0.029700  -0.000093   1.069215  -0.030281
    10  H    0.493508  -0.035754  -0.030281   0.597240
 Mulliken charges:
               1
     1  H    0.004225
     2  H   -0.009421
     3  H   -0.000049
     4  H    0.003692
     5  H    0.001552
     6  H    0.001552
     7  H    0.003692
     8  H   -0.000049
     9  H   -0.009421
    10  H    0.004225
 Sum of Mulliken charges =   0.00000
 Mulliken charges with hydrogens summed into heavy atoms:
               1
 Electronic spatial extent (au):  <R**2>=            332.6137
 Charge=             -0.0000 electrons
 Dipole moment (field-independent basis, Debye):
    X=             -0.0000    Y=              0.0000    Z=             -0.0000  Tot=              0.0000
 Quadrupole moment (field-independent basis, Debye-Ang):
   XX=            -12.3272   YY=            -17.9966   ZZ=            -13.2211
   XY=              1.4484   XZ=              0.0000   YZ=              0.0000
 Traceless Quadrupole moment (field-independent basis, Debye-Ang):
   XX=              2.1877   YY=             -3.4816   ZZ=              1.2938
   XY=              1.4484   XZ=              0.0000   YZ=              0.0000
 Octapole moment (field-independent basis, Debye-Ang**2):
  XXX=             -0.0000  YYY=             -0.0000  ZZZ=             -0.0000  XYY=             -0.0000
  XXY=              0.0000  XXZ=             -0.0000  XZZ=             -0.0000  YZZ=              0.0000
  YYZ=             -0.0000  XYZ=              0.0000
 Hexadecapole moment (field-independent basis, Debye-Ang**3):
 XXXX=            -68.8095 YYYY=           -780.7595 ZZZZ=            -16.2691 XXXY=             86.5457
 XXXZ=             -0.0000 YYYX=            127.5441 YYYZ=              0.0000 ZZZX=             -0.0000
 ZZZY=              0.0000 XXYY=           -123.3690 XXZZ=            -14.6361 YYZZ=           -109.0188
 XXYZ=              0.0000 YYXZ=             -0.0000 ZZXY=             29.6295
 N-N= 1.051083124067D+01 E-N=-2.977453996493D+01  KE= 4.841112716176D+00
 Symmetry AG   KE= 2.746811430366D+00
 Symmetry BG   KE= 0.000000000000D+00
 Symmetry AU   KE= 0.000000000000D+00
 Symmetry BU   KE= 2.094301285810D+00
 Range of M.O.s used for correlation:     1    10
 NBasis=    10 NAE=     5 NBE=     5 NFC=     0 NFV=     0
 NROrb=     10 NOA=     5 NOB=     5 NVA=     5 NVB=     5

 **** Warning!!: The smallest alpha delta epsilon is  0.56262493D-01

 Keep R1 and R2 ints in memory in symmetry-blocked form, NReq=802982.
 Orbital symmetries:
       Occupied  (AG) (BU) (AG) (BU) (AG)
       Virtual   (BU) (BU) (AG) (BU) (AG)
    24 initial guesses have been made.
 Convergence on wavefunction:    0.001000000000000
 Iteration     1 Dimension    24 NMult     0 NNew     24
 CISAX will form    24 AO SS matrices at one time.
 New state      1 was old state      2
 Iteration     2 Dimension    46 NMult    24 NNew     22
 ***********************************************************************
 Stability analysis using <AA,BB:AA,BB> singles matrix:
 ***********************************************************************

 Eigenvectors of the stability matrix:
 
 Eigenvector   1:      Triplet-BU   Eigenvalue=-0.5726822  <S**2>=2.000
       5 ->  6         0.70625
 
 Eigenvector   2:      Triplet-AG   Eigenvalue= 0.3131397  <S**2>=2.000
       2 ->  6        -0.23030
       4 ->  6         0.66843
 
 Eigenvector   3:      Singlet-AG   Eigenvalue= 0.3412721  <S**2>=0.000
       2 ->  6        -0.10571
       4 ->  6         0.69911
 
 Eigenvector   4:      Triplet-BU   Eigenvalue= 0.3459763  <S**2>=2.000
       1 ->  6         0.16217
       3 ->  6         0.68734
 
 Eigenvector   5:      Singlet-BU   Eigenvalue= 0.3669709  <S**2>=0.000
       1 ->  6         0.11700
       3 ->  6         0.67892
       5 ->  6        -0.15908
 
 Eigenvector   6:      Triplet-BU   Eigenvalue= 0.4105478  <S**2>=2.000
       1 ->  9        -0.16352
       2 ->  8         0.19254
       2 -> 10         0.14281
       3 ->  7        -0.28133
       3 ->  9        -0.16239
       4 ->  8        -0.25668
       5 ->  7         0.47198
       5 ->  9         0.14355
 SavETr:  write IOETrn=   770 NScale= 10 NData=  16 NLR=1 NState=    6 LETran=     118.
 The wavefunction has an RHF -> UHF instability.
 Keep R1 and R2 ints in memory in symmetry-blocked form, NReq=854522.
 The two search directions are symmetric.
 Gradient too large for Newton-Raphson -- use scaled steepest descent instead.
     Accept linear search using points  3 and  4.
 LinEq1:  Iter=  0 NonCon=     1 RMS=8.83D-04 Max=2.98D-03 NDo=     1
 AX will form     1 AO Fock derivatives at one time.
 LinEq1:  Iter=  1 NonCon=     1 RMS=6.67D-05 Max=2.63D-04 NDo=     1
 LinEq1:  Iter=  2 NonCon=     1 RMS=2.60D-06 Max=5.62D-06 NDo=     1
 LinEq1:  Iter=  3 NonCon=     1 RMS=6.09D-07 Max=1.48D-06 NDo=     1
 LinEq1:  Iter=  4 NonCon=     1 RMS=2.06D-08 Max=7.17D-08 NDo=     1
 LinEq1:  Iter=  5 NonCon=     1 RMS=1.07D-09 Max=2.86D-09 NDo=     1
 LinEq1:  Iter=  6 NonCon=     0 RMS=2.01D-10 Max=5.38D-10 NDo=     1
 Linear equations converged to 1.000D-09 1.000D-08 after     6 iterations.
     Accept linear search using points  1 and  2.
     Minimum is close to point  2 DX= -6.25D-07 DF=  0.00D+00 DXR=  6.25D-07 DFR=  0.00D+00 which will be used.
 LinEq1:  Iter=  0 NonCon=     1 RMS=2.27D-07 Max=6.52D-07 NDo=     1
 LinEq1:  Iter=  1 NonCon=     1 RMS=8.18D-09 Max=1.43D-08 NDo=     1
 LinEq1:  Iter=  2 NonCon=     1 RMS=1.45D-09 Max=3.40D-09 NDo=     1
 LinEq1:  Iter=  3 NonCon=     1 RMS=1.40D-10 Max=3.48D-10 NDo=     1
 LinEq1:  Iter=  4 NonCon=     0 RMS=7.05D-12 Max=2.16D-11 NDo=     1
 Linear equations converged to 1.258D-11 1.258D-10 after     4 iterations.
 Density matrix breaks symmetry, PCut= 1.00D-04
 Density matrix has no symmetry -- integrals replicated.
 Density matrix is not symmetric, so final MOs not symmetrized.
 SCF Done:  E(UHF) =  -5.14075881979     a.u. after    4 cycles
            Convg  =    0.2243D-09                    28 Fock formations.
              S**2 =  1.0000                  -V/T =  2.0560
 <Sx>= 0.0000 <Sy>= 0.0000 <Sz>= 0.0000 <S**2>= 1.0000 S= 0.6180
 <L.S>= 0.000000000000E+00
 Annihilation of the first spin contaminant:
 S**2 before annihilation     1.0000,   after     0.0000
 Range of M.O.s used for correlation:     1    10
 NBasis=    10 NAE=     5 NBE=     5 NFC=     0 NFV=     0
 NROrb=     10 NOA=     5 NOB=     5 NVA=     5 NVB=     5
 Keep R1 and R2 ints in memory in symmetry-blocked form, NReq=802982.
 Orbital symmetries:
 Alpha Orbitals:
       Occupied  (BG) (BG) (BG) (BG) (BG)
       Virtual   (BG) (?A) (?A) (?A) (?A)
 Beta  Orbitals:
       Occupied  (BG) (BG) (BG) (BG) (BG)
       Virtual   (BG) (?A) (?A) (?A) (?A)
    12 initial guesses have been made.
 Convergence on wavefunction:    0.001000000000000
 Iteration     1 Dimension    12 NMult     0 NNew     12
 CISAX will form    12 AO SS matrices at one time.
 New state      1 was old state      3
 Iteration     2 Dimension    24 NMult    12 NNew     12
 New state      1 was old state      7
 Iteration     3 Dimension    27 NMult    24 NNew      3
 Iteration     4 Dimension    30 NMult    27 NNew      3
 Iteration     5 Dimension    33 NMult    30 NNew      3
 Iteration     6 Dimension    36 NMult    33 NNew      3
 ***********************************************************************
 Stability analysis using <AA,BB:AA,BB> singles matrix:
 ***********************************************************************

 Eigenvectors of the stability matrix:
 
 Excited state symmetry could not be determined.
 Eigenvector   1:  3.590-?Sym  Eigenvalue= 0.4164943  <S**2>=2.972
      1A -> 10A       -0.23219
      2A ->  9A       -0.20875
      3A ->  8A       -0.27709
      4A ->  7A       -0.51254
      4A ->  9A        0.10257
      5A ->  7A        0.12795
      1B -> 10B        0.23219
      2B ->  9B        0.20875
      3B ->  8B        0.27709
      4B ->  7B        0.51254
      4B ->  9B       -0.10257
      5B ->  7B       -0.12795
 SavETr:  write IOETrn=   770 NScale= 10 NData=  16 NLR=1 NState=    1 LETran=      28.
 The wavefunction is stable under the perturbations considered.
 The wavefunction is already stable.

 **********************************************************************

            Population analysis using the SCF density.

 **********************************************************************

 Orbital symmetries:
 Alpha Orbitals:
       Occupied  (BG) (BG) (BG) (BG) (BG)
       Virtual   (BG) (?A) (?A) (?A) (?A)
 Beta  Orbitals:
       Occupied  (BG) (BG) (BG) (BG) (BG)
       Virtual   (BG) (?A) (?A) (?A) (?A)
 Unable to determine electronic state:  partially filled degenerate orbitals.
 Alpha  occ. eigenvalues --   -0.73280  -0.70312  -0.65604  -0.60382  -0.48038
 Alpha virt. eigenvalues --    0.14747   0.38903   0.46454   0.57529   0.68188
  Beta  occ. eigenvalues --   -0.73280  -0.70312  -0.65604  -0.60382  -0.48038
  Beta virt. eigenvalues --    0.14747   0.38903   0.46454   0.57529   0.68188
          Condensed to atoms (all electrons):
               1          2          3          4          5          6
     1  H    0.605281  -0.036908  -0.036941   0.500155   0.000476  -0.030246
     2  H   -0.036908   1.068403   0.000409  -0.036660  -0.000002   0.000482
     3  H   -0.036941   0.000409   0.626346  -0.036428  -0.037785   0.514684
     4  H    0.500155  -0.036660  -0.036428   0.611322   0.000469  -0.036977
     5  H    0.000476  -0.000002  -0.037785   0.000469   0.625615  -0.037295
     6  H   -0.030246   0.000482   0.514684  -0.036977  -0.037295   0.625615
     7  H   -0.000003   0.000000   0.000473  -0.000002  -0.036977   0.000469
     8  H    0.000410  -0.000003  -0.030877   0.000473   0.514684  -0.037785
     9  H    0.000000   0.000000  -0.000003   0.000000   0.000482  -0.000002
    10  H   -0.000003   0.000000   0.000410  -0.000003  -0.030246   0.000476
               7          8          9         10
     1  H   -0.000003   0.000410   0.000000  -0.000003
     2  H    0.000000  -0.000003   0.000000   0.000000
     3  H    0.000473  -0.030877  -0.000003   0.000410
     4  H   -0.000002   0.000473   0.000000  -0.000003
     5  H   -0.036977   0.514684   0.000482  -0.030246
     6  H    0.000469  -0.037785  -0.000002   0.000476
     7  H    0.611322  -0.036428  -0.036660   0.500155
     8  H   -0.036428   0.626346   0.000409  -0.036941
     9  H   -0.036660   0.000409   1.068403  -0.036908
    10  H    0.500155  -0.036941  -0.036908   0.605281
          Atomic-Atomic Spin Densities.
               1          2          3          4          5          6
     1  H   -0.017817   0.032335   0.000707  -0.014206  -0.000010   0.000815
     2  H    0.032335  -1.067695  -0.000434   0.032051   0.000003  -0.000505
     3  H    0.000707  -0.000434  -0.000053   0.000677  -0.000044  -0.000570
     4  H   -0.014206   0.032051   0.000677  -0.016735  -0.000010   0.000978
     5  H   -0.000010   0.000003  -0.000044  -0.000010   0.001371   0.000000
     6  H    0.000815  -0.000505  -0.000570   0.000978   0.000000  -0.001371
     7  H   -0.000000  -0.000000   0.000013   0.000000  -0.000978   0.000010
     8  H   -0.000011   0.000004   0.000000  -0.000013   0.000570   0.000044
     9  H    0.000000  -0.000000  -0.000004   0.000000   0.000505  -0.000003
    10  H   -0.000000  -0.000000   0.000011   0.000000  -0.000815   0.000010
               7          8          9         10
     1  H   -0.000000  -0.000011   0.000000  -0.000000
     2  H   -0.000000   0.000004  -0.000000  -0.000000
     3  H    0.000013   0.000000  -0.000004   0.000011
     4  H    0.000000  -0.000013   0.000000   0.000000
     5  H   -0.000978   0.000570   0.000505  -0.000815
     6  H    0.000010   0.000044  -0.000003   0.000010
     7  H    0.016735  -0.000677  -0.032051   0.014206
     8  H   -0.000677   0.000053   0.000434  -0.000707
     9  H   -0.032051   0.000434   1.067695  -0.032335
    10  H    0.014206  -0.000707  -0.032335   0.017817
 Mulliken charges and spin densities:
               1          2
     1  H   -0.002222   0.001812
     2  H    0.004279  -1.004241
     3  H   -0.000288   0.000303
     4  H   -0.002348   0.002741
     5  H    0.000579   0.000591
     6  H    0.000579  -0.000591
     7  H   -0.002348  -0.002741
     8  H   -0.000288  -0.000303
     9  H    0.004279   1.004241
    10  H   -0.002222  -0.001812
 Sum of Mulliken charges =   0.00000   0.00000
 Mulliken charges and spin densities with hydrogens summed into heavy atoms:
               1          2
 Electronic spatial extent (au):  <R**2>=            331.1938
 Charge=              0.0000 electrons
 Dipole moment (field-independent basis, Debye):
    X=             -0.0000    Y=             -0.0000    Z=              0.0000  Tot=              0.0000
 Quadrupole moment (field-independent basis, Debye-Ang):
   XX=            -12.2156   YY=            -16.2341   ZZ=            -13.1854
   XY=              1.0507   XZ=              0.0000   YZ=              0.0000
 Traceless Quadrupole moment (field-independent basis, Debye-Ang):
   XX=              1.6628   YY=             -2.3557   ZZ=              0.6930
   XY=              1.0507   XZ=              0.0000   YZ=              0.0000
 Octapole moment (field-independent basis, Debye-Ang**2):
  XXX=             -0.0000  YYY=             -0.0000  ZZZ=             -0.0000  XYY=             -0.0000
  XXY=              0.0000  XXZ=             -0.0000  XZZ=             -0.0000  YZZ=              0.0000
  YYZ=             -0.0000  XYZ=              0.0000
 Hexadecapole moment (field-independent basis, Debye-Ang**3):
 XXXX=            -68.2625 YYYY=           -735.2893 ZZZZ=            -16.1907 XXXY=             85.2349
 XXXZ=             -0.0000 YYYX=            116.5599 YYYZ=              0.0000 ZZZX=             -0.0000
 ZZZY=              0.0000 XXYY=           -119.7907 XXZZ=            -14.5527 YYZZ=           -108.0764
 XXYZ=              0.0000 YYXZ=             -0.0000 ZZXY=             29.3958
 N-N= 1.051083124067D+01 E-N=-2.981917872794D+01  KE= 4.868316447749D+00
 Symmetry AG   KE= 2.188605127191D+00
 Symmetry BG   KE= 0.000000000000D+00
 Symmetry AU   KE= 0.000000000000D+00
 Symmetry BU   KE= 2.679711320558D+00
                          Isotropic Fermi Contact Couplings
        Atom                 a.u.       MegaHertz       Gauss      10(-4) cm-1
     1  H(1)              -0.00675     -15.08114      -5.38133      -5.03053
     2  H(1)              -0.32886    -734.98115    -262.25954    -245.16332
     3  H(1)              -0.00009      -0.19423      -0.06931      -0.06479
     4  H(1)              -0.00644     -14.39308      -5.13581      -4.80101
     5  H(1)               0.00044       0.99021       0.35333       0.33030
     6  H(1)              -0.00044      -0.99021      -0.35333      -0.33030
     7  H(1)               0.00644      14.39308       5.13581       4.80101
     8  H(1)               0.00009       0.19423       0.06931       0.06479
     9  H(1)               0.32886     734.98115     262.25954     245.16332
    10  H(1)               0.00675      15.08114       5.38133       5.03053
 --------------------------------------------------------
       Center         ----  Spin Dipole Couplings  ----
                      3XX-RR        3YY-RR        3ZZ-RR
 --------------------------------------------------------
     1   Atom        0.010342     -0.029322      0.018980
     2   Atom       -0.002752      0.006007     -0.003255
     3   Atom        0.001760     -0.004143      0.002383
     4   Atom        0.006482     -0.025592      0.019110
     5   Atom       -0.001081      0.003099     -0.002018
     6   Atom        0.001081     -0.003099      0.002018
     7   Atom       -0.006482      0.025592     -0.019110
     8   Atom       -0.001760      0.004143     -0.002383
     9   Atom        0.002752     -0.006007      0.003255
    10   Atom       -0.010342      0.029322     -0.018980
 --------------------------------------------------------
                        XY            XZ            YZ
 --------------------------------------------------------
     1   Atom        0.000266     -0.000000      0.000000
     2   Atom       -0.001470     -0.000000     -0.000000
     3   Atom        0.000676     -0.000000      0.000000
     4   Atom        0.011041     -0.000000      0.000000
     5   Atom       -0.002030     -0.000000      0.000000
     6   Atom        0.002030     -0.000000      0.000000
     7   Atom       -0.011041     -0.000000      0.000000
     8   Atom       -0.000676     -0.000000      0.000000
     9   Atom        0.001470      0.000000     -0.000000
    10   Atom       -0.000266     -0.000000      0.000000
 --------------------------------------------------------


 ---------------------------------------------------------------------------------
              Anisotropic Spin Dipole Couplings in Principal Axis System
 ---------------------------------------------------------------------------------

       Atom             a.u.   MegaHertz   Gauss  10(-4) cm-1        Axes

              Baa    -0.0293   -15.646    -5.583    -5.219 -0.0067  1.0000  0.0000
     1 H(1)   Bbb     0.0103     5.519     1.969     1.841  1.0000  0.0067  0.0000
              Bcc     0.0190    10.127     3.613     3.378  0.0000  0.0000  1.0000
 
              Baa    -0.0033    -1.737    -0.620    -0.579  0.0000  0.0000  1.0000
     2 H(1)   Bbb    -0.0030    -1.597    -0.570    -0.533  0.9869  0.1612  0.0000
              Bcc     0.0062     3.333     1.189     1.112 -0.1612  0.9869  0.0000
 
              Baa    -0.0042    -2.251    -0.803    -0.751 -0.1124  0.9937  0.0000
     3 H(1)   Bbb     0.0018     0.980     0.350     0.327  0.9937  0.1124  0.0000
              Bcc     0.0024     1.271     0.454     0.424  0.0000  0.0000  1.0000
 
              Baa    -0.0290   -15.487    -5.526    -5.166 -0.2969  0.9549  0.0000
     4 H(1)   Bbb     0.0099     5.290     1.888     1.765  0.9549  0.2969  0.0000
              Bcc     0.0191    10.196     3.638     3.401  0.0000  0.0000  1.0000
 
              Baa    -0.0020    -1.077    -0.384    -0.359  0.0000  0.0000  1.0000
     5 H(1)   Bbb    -0.0019    -1.016    -0.363    -0.339  0.9267  0.3759  0.0000
              Bcc     0.0039     2.093     0.747     0.698 -0.3759  0.9267  0.0000
 
              Baa    -0.0039    -2.093    -0.747    -0.698 -0.3759  0.9267  0.0000
     6 H(1)   Bbb     0.0019     1.016     0.363     0.339  0.9267  0.3759  0.0000
              Bcc     0.0020     1.077     0.384     0.359  0.0000  0.0000  1.0000
 
              Baa    -0.0191   -10.196    -3.638    -3.401  0.0000  0.0000  1.0000
     7 H(1)   Bbb    -0.0099    -5.290    -1.888    -1.765  0.9549  0.2969  0.0000
              Bcc     0.0290    15.487     5.526     5.166 -0.2969  0.9549  0.0000
 
              Baa    -0.0024    -1.271    -0.454    -0.424  0.0000  0.0000  1.0000
     8 H(1)   Bbb    -0.0018    -0.980    -0.350    -0.327  0.9937  0.1124  0.0000
              Bcc     0.0042     2.251     0.803     0.751 -0.1124  0.9937  0.0000
 
              Baa    -0.0062    -3.333    -1.189    -1.112 -0.1612  0.9869  0.0000
     9 H(1)   Bbb     0.0030     1.597     0.570     0.533  0.9869  0.1612  0.0000
              Bcc     0.0033     1.737     0.620     0.579  0.0000  0.0000  1.0000
 
              Baa    -0.0190   -10.127    -3.613    -3.378  0.0000  0.0000  1.0000
    10 H(1)   Bbb    -0.0103    -5.519    -1.969    -1.841  1.0000  0.0067  0.0000
              Bcc     0.0293    15.646     5.583     5.219 -0.0067  1.0000  0.0000
 

 ---------------------------------------------------------------------------------


 Test job not archived.
 1\1\GINC-SULU\Stability\UHF\Gen\H10\LCJ1\22-Feb-2017\0\\#rhf/gen scf(s
 ymm,tight,novaracc,noincfock,fulldiag) stable=opt guess=read geom=nocr
 owd test\\hf stability analysis of h10 triangular lattice, y= 0.302395
 93556098865\\0,1\H\H,1,1.9330518191\H,1,1.9330518191,2,162.\H,2,1.9330
 518191,1,18.,3,0.,0\H,3,1.9330518191,1,180.,2,0.,0\H,4,1.9330518191,2,
 180.,1,0.,0\H,5,1.9330518191,3,180.,2,0.,0\H,6,1.9330518191,4,180.,1,0
 .,0\H,7,1.9330518191,5,180.,2,0.,0\H,8,1.9330518191,6,180.,1,0.,0\\Ver
 sion=ES64L-G09RevE.01\State=1-AG\HF=-5.1407588\S2=1.\S2-1=0.\S2A=0.000
 003\RMSD=6.844e-09\Dipole=0.,0.,0.\Quadrupole=1.2362192,0.515208,-1.75
 14272,0.,0.7811697,0.\PG=C02H [SGH(H10)]\\@


 THE LENGTH OF A MEETING IS PROPORTIONAL TO THE
 SQUARE OF THE PARTICIPANTS.
 Job cpu time:       0 days  0 hours  0 minutes  1.1 seconds.
 File lengths (MBytes):  RWF=     77 Int=      0 D2E=      0 Chk=      2 Scr=      2
 Normal termination of Gaussian 09 at Wed Feb 22 12:29:35 2017.
